
*************** JDFTx 1.7.0  ***************

Start date and time: Fri May 16 21:12:40 2025
Executable /data2/jt577/jdftx_eat_withLibXC/build/jdftx with command-line: -i /data2/jt577/May_2025/Relax_Mag_litU/pure_VO/runs/calc_20250516-211239/O/O.in
Running on hosts (process indices):  node3404 (0-8)
Divided in process groups (process indices):  0 (0)  1 (1)  2 (2)  3 (3)  4 (4)  5 (5)  6 (6)  7 (7)  8 (8)
Resource initialization completed at t[s]:      0.00
Run totals: 9 processes, 90 threads, 0 GPUs


Input parsed successfully to the following command list (including defaults):

add-mix 
add-U 	V d 0.113923
basis kpoint-dependent
coords-type Lattice
core-overlap-check vector
coulomb-interaction Periodic
davidson-band-ratio 1.1
dump End IonicPositions Lattice Ecomponents
dump-name O.$VAR
elec-cutoff 30
elec-eigen-algo Davidson
elec-ex-corr gga-x-rpbe gga-c-pbe
elec-smearing Fermi 0.001
electronic-minimize  \
	dirUpdateScheme      FletcherReeves \
	linminMethod         DirUpdateRecommended \
	nIterations          1000 \
	history              15 \
	knormThreshold       0 \
	energyDiffThreshold  1e-06 \
	nEnergyDiff          5 \
	alphaTstart          1 \
	alphaTmin            1e-10 \
	updateTestStepSize   yes \
	alphaTreduceFactor   0.1 \
	alphaTincreaseFactor 3 \
	nAlphaAdjustMax      3 \
	wolfeEnergy          0.0001 \
	wolfeGradient        0.9 \
	fdTest               no
exchange-regularization WignerSeitzTruncated
fluid None
fluid-ex-corr (null) lda-PZ
fluid-gummel-loop 10 1.000000e-05
fluid-minimize  \
	dirUpdateScheme      PolakRibiere \
	linminMethod         DirUpdateRecommended \
	nIterations          100 \
	history              15 \
	knormThreshold       0 \
	energyDiffThreshold  0 \
	nEnergyDiff          2 \
	alphaTstart          1 \
	alphaTmin            1e-10 \
	updateTestStepSize   yes \
	alphaTreduceFactor   0.1 \
	alphaTincreaseFactor 3 \
	nAlphaAdjustMax      3 \
	wolfeEnergy          0.0001 \
	wolfeGradient        0.9 \
	fdTest               no
fluid-solvent H2O 55.338 ScalarEOS \
	epsBulk 78.4 \
	pMol 0.92466 \
	epsInf 1.77 \
	Pvap 1.06736e-10 \
	sigmaBulk 4.62e-05 \
	Rvdw 2.61727 \
	Res 1.42 \
	tauNuc 343133 \
	poleEl 15 7 1
forces-output-coords Positions
initial-magnetic-moments  \
	V 1 -1 1 -1 1 1 -1 -1 -1 1 -1 1 -1 -1 1 1
initial-state O.$VAR
ion V  0.000000000000000   0.000000000000000   0.150000000000000 1
ion V  0.500000000000000   0.000000000000000   0.150000000000000 1
ion V  0.000000000000000   0.500000000000000   0.150000000000000 1
ion V  0.500000000000000   0.500000000000000   0.150000000000000 1
ion V  0.250000000000000   0.250000000000000   0.050000000000000 1
ion V  0.250000000000000   0.750000000000000   0.050000000000000 1
ion V -0.250000000000000   0.250000000000000   0.050000000000000 1
ion V -0.250000000000000   0.750000000000000   0.050000000000000 1
ion V  0.000000000000000   0.000000000000000  -0.050000000000000 0
ion V  0.500000000000000   0.000000000000000  -0.050000000000000 0
ion V  0.000000000000000   0.500000000000000  -0.050000000000000 0
ion V  0.500000000000000   0.500000000000000  -0.050000000000000 0
ion V  0.250000000000000   0.250000000000000  -0.150000000000000 0
ion V  0.250000000000000   0.750000000000000  -0.150000000000000 0
ion V -0.250000000000000   0.250000000000000  -0.150000000000000 0
ion V -0.250000000000000   0.750000000000000  -0.150000000000000 0
ion O  0.250000000000000   0.250000000000000   0.150000000000000 1
ion O  0.250000000000000   0.750000000000000   0.150000000000000 1
ion O -0.250000000000000   0.250000000000000   0.150000000000000 1
ion O -0.250000000000000   0.750000000000000   0.150000000000000 1
ion O  0.000000000000000   0.000000000000000   0.050000000000000 1
ion O  0.500000000000000   0.000000000000000   0.050000000000000 1
ion O  0.000000000000000   0.500000000000000   0.050000000000000 1
ion O  0.500000000000000   0.500000000000000   0.050000000000000 1
ion O  0.250000000000000   0.250000000000000  -0.050000000000000 0
ion O  0.250000000000000   0.750000000000000  -0.050000000000000 0
ion O -0.250000000000000   0.250000000000000  -0.050000000000000 0
ion O -0.250000000000000   0.750000000000000  -0.050000000000000 0
ion O  0.000000000000000   0.000000000000000  -0.150000000000000 0
ion O  0.500000000000000   0.000000000000000  -0.150000000000000 0
ion O  0.000000000000000   0.500000000000000  -0.150000000000000 0
ion O  0.500000000000000   0.500000000000000  -0.150000000000000 0
ion O  0.000000000000000   0.000000000000000   0.230000000000000 1
ion-species SG15/$ID_ONCV_PBE.upf
ion-width 0
ionic-minimize  \
	dirUpdateScheme      L-BFGS \
	linminMethod         DirUpdateRecommended \
	nIterations          1000 \
	history              15 \
	knormThreshold       0.0001 \
	energyDiffThreshold  0.0001 \
	nEnergyDiff          3 \
	alphaTstart          1 \
	alphaTmin            1e-10 \
	updateTestStepSize   yes \
	alphaTreduceFactor   0.1 \
	alphaTincreaseFactor 3 \
	nAlphaAdjustMax      3 \
	wolfeEnergy          0.0001 \
	wolfeGradient        0.9 \
	fdTest               no
kpoint   0.500000000000   0.500000000000   0.500000000000  1.00000000000000
kpoint-folding 3 3 1 
latt-move-scale 1 1 1
latt-scale 1 1 1 
lattice  \
	   8.260000000000000    8.260000000000000    0.000000000000000  \
	   8.260000000000000   -8.260000000000000    0.000000000000000  \
	   0.000000000000000    0.000000000000000   41.299999999999997 
lattice-minimize  \
	dirUpdateScheme      L-BFGS \
	linminMethod         DirUpdateRecommended \
	nIterations          0 \
	history              15 \
	knormThreshold       0 \
	energyDiffThreshold  1e-06 \
	nEnergyDiff          2 \
	alphaTstart          1 \
	alphaTmin            1e-10 \
	updateTestStepSize   yes \
	alphaTreduceFactor   0.1 \
	alphaTincreaseFactor 3 \
	nAlphaAdjustMax      3 \
	wolfeEnergy          0.0001 \
	wolfeGradient        0.9 \
	fdTest               no
lcao-params -1 1e-06 0.001
pcm-variant GLSSA13
spintype z-spin
subspace-rotation-factor 1 yes
symmetries none
symmetry-threshold 0.0001


Applied RMS atom displacement 0 bohrs to make symmetries exact.

---------- Initializing the Grid ----------
R = 
[         8.26         8.26            0  ]
[         8.26        -8.26            0  ]
[            0            0         41.3  ]
unit cell volume = 5635.6
G =
[   0.380338   0.380338         -0  ]
[   0.380338  -0.380338         -0  ]
[         -0         -0   0.152135  ]
Minimum fftbox size, Smin = [  60  60  204  ]
Chosen fftbox size, S = [  60  60  210  ]

---------- Exchange Correlation functional ----------
Initialized LibXC exchange functional 'Hammer, Hansen, and Norskov'
Initialized LibXC correlation functional 'Perdew, Burke & Ernzerhof'

---------- Setting up pseudopotentials ----------
Width of ionic core gaussian charges (only for fluid interactions / plotting) set to 0

Reading pseudopotential file '/data2/jt577/jdftx_eat_withLibXC/build/pseudopotentials/SG15/V_ONCV_PBE.upf':
  'V' pseudopotential, 'PBE' functional
  Generated using ONCVPSP code by D. R. Hamann
  Author: Martin Schlipf and Francois Gygi  Date: 150915.
  13 valence electrons, 4 orbitals, 6 projectors, 1536 radial grid points, with lMax = 2
  Transforming local potential to a uniform radial grid of dG=0.02 with 1398 points.
  Transforming nonlocal projectors to a uniform radial grid of dG=0.02 with 528 points.
    3S    l: 0   occupation:  2.0   eigenvalue: -2.581105
    3P    l: 1   occupation:  6.0   eigenvalue: -1.618486
    4S    l: 0   occupation:  2.0   eigenvalue: -0.172804
    3D    l: 2   occupation:  3.0   eigenvalue: -0.189795
  Transforming atomic orbitals to a uniform radial grid of dG=0.02 with 528 points.
  Core radius for overlap checks: 1.80 bohrs.
  Reading pulay file /data2/jt577/jdftx_eat_withLibXC/build/pseudopotentials/SG15/V_ONCV_PBE.pulay ... using dE_dnG = -1.698632e-04 computed for Ecut = 30.

Reading pseudopotential file '/data2/jt577/jdftx_eat_withLibXC/build/pseudopotentials/SG15/O_ONCV_PBE.upf':
  'O' pseudopotential, 'PBE' functional
  Generated using ONCVPSP code by D. R. Hamann
  Author: Martin Schlipf and Francois Gygi  Date: 150915.
  6 valence electrons, 2 orbitals, 4 projectors, 936 radial grid points, with lMax = 1
  Transforming local potential to a uniform radial grid of dG=0.02 with 1398 points.
  Transforming nonlocal projectors to a uniform radial grid of dG=0.02 with 528 points.
    2S    l: 0   occupation:  2.0   eigenvalue: -0.880572
    2P    l: 1   occupation:  4.0   eigenvalue: -0.331869
  Transforming atomic orbitals to a uniform radial grid of dG=0.02 with 528 points.
  Core radius for overlap checks: 1.29 bohrs.
  Reading pulay file /data2/jt577/jdftx_eat_withLibXC/build/pseudopotentials/SG15/O_ONCV_PBE.pulay ... using dE_dnG = -8.209514e-03 computed for Ecut = 30.

Initialized 2 species with 33 total atoms.

Folded 1 k-points by 3x3x1 to 9 k-points.

---------- Setting up k-points, bands, fillings ----------
No reducable k-points. 
Computing the number of bands and number of electrons
Calculating initial fillings.
nElectrons: 310.000000   nBands: 228   nStates: 18

----- Setting up reduced wavefunction bases (one per k-point) -----
average nbasis = 44217.778 , ideal nbasis = 44229.907

---------- Setting up ewald sum ----------
Optimum gaussian width for ewald sums = 3.964038 bohr.
Real space sum over 605 unit cells with max indices [  5  5  2  ]
Reciprocal space sum over 5915 terms with max indices [  6  6  17  ]

---------- Allocating electronic variables ----------
Initializing wave functions:  linear combination of atomic orbitals
V (M=1) pseudo-atom majority spin occupations:   s ( 1 0 )  p ( 3 )  d ( 3 )
V (M=1) pseudo-atom minority spin occupations:   s ( 1 0 )  p ( 3 )  d ( 2 )
O pseudo-atom occupations:   s ( 2 )  p ( 4 )
	FillingsUpdate:  mu: -0.309879788  nElectrons: 310.000000  magneticMoment: [ Abs: 6.44349  Tot: -0.00000 ]
LCAOMinimize: Iter:   0  F: -1386.0852087325149569  |grad|_K:  8.645e-03  alpha:  1.000e+00
	FillingsUpdate:  mu: +0.255652790  nElectrons: 310.000000  magneticMoment: [ Abs: 8.43766  Tot: -0.00000 ]
LCAOMinimize: Iter:   1  F: -1389.9701604740757830  |grad|_K:  1.590e-02  alpha:  1.078e-01  linmin:  4.393e-03  cgtest: -2.818e-01  t[s]:     42.39
	FillingsUpdate:  mu: +0.375797929  nElectrons: 310.000000  magneticMoment: [ Abs: 9.02032  Tot: +0.00000 ]
LCAOMinimize: Iter:   2  F: -1391.3085481684520346  |grad|_K:  1.946e-02  alpha:  8.369e-03  linmin: -6.307e-03  cgtest:  8.206e-01  t[s]:     57.24
	FillingsUpdate:  mu: +0.528017280  nElectrons: 310.000000  magneticMoment: [ Abs: 10.12951  Tot: -0.00000 ]
LCAOMinimize: Iter:   3  F: -1394.1998389720824889  |grad|_K:  1.502e-02  alpha:  1.170e-02  linmin: -5.178e-02  cgtest:  9.263e-01  t[s]:     72.47
LCAOMinimize: Encountered beta<0, resetting CG.
LCAOMinimize: 	Predicted alpha/alphaT>3.000000, increasing alphaT to 3.510764e-02.
	FillingsUpdate:  mu: -0.365580659  nElectrons: 310.000000  magneticMoment: [ Abs: 14.75371  Tot: -0.00000 ]
LCAOMinimize: Iter:   4  F: -1397.1845955739847795  |grad|_K:  2.069e-02  alpha:  4.705e-02  linmin:  1.011e-01  cgtest: -4.244e-01  t[s]:     92.00
LCAOMinimize: 	Bad step direction: g.d > 0.
LCAOMinimize: 	Undoing step.
LCAOMinimize: 	Step failed: resetting search direction.
	FillingsUpdate:  mu: -0.365580659  nElectrons: 310.000000  magneticMoment: [ Abs: 14.75371  Tot: -0.00000 ]
LCAOMinimize: Iter:   5  F: -1397.1845955739847795  |grad|_K:  2.069e-02  alpha:  0.000e+00
	FillingsUpdate:  mu: -0.099029582  nElectrons: 310.000000  magneticMoment: [ Abs: 15.44596  Tot: +0.00000 ]
LCAOMinimize: Iter:   6  F: -1400.0476847174159047  |grad|_K:  1.113e-02  alpha:  1.652e-02  linmin:  2.446e-02  cgtest: -1.990e-01  t[s]:    118.12
	FillingsUpdate:  mu: +0.289460702  nElectrons: 310.000000  magneticMoment: [ Abs: 15.26880  Tot: +0.00000 ]
LCAOMinimize: Iter:   7  F: -1401.2695827671568622  |grad|_K:  1.073e-02  alpha:  3.047e-02  linmin:  5.228e-02  cgtest: -5.271e-02  t[s]:    133.17
	FillingsUpdate:  mu: +0.569066969  nElectrons: 310.000000  magneticMoment: [ Abs: 19.22408  Tot: +0.00000 ]
LCAOMinimize: Iter:   8  F: -1402.4484981250045621  |grad|_K:  2.219e-02  alpha:  4.793e-02  linmin:  3.275e-03  cgtest:  6.953e-01  t[s]:    148.24
	FillingsUpdate:  mu: +0.442662479  nElectrons: 310.000000  magneticMoment: [ Abs: 25.67216  Tot: +0.00000 ]
LCAOMinimize: Iter:   9  F: -1405.5644105248602500  |grad|_K:  1.120e-02  alpha:  1.348e-02  linmin: -1.045e-03  cgtest:  8.763e-01  t[s]:    163.31
LCAOMinimize: Encountered beta<0, resetting CG.
	FillingsUpdate:  mu: +0.210526462  nElectrons: 310.000000  magneticMoment: [ Abs: 27.00220  Tot: +0.00000 ]
LCAOMinimize: Iter:  10  F: -1406.6294906394837199  |grad|_K:  7.807e-03  alpha:  1.913e-02  linmin:  4.907e-02  cgtest: -7.463e-02  t[s]:    178.42
	FillingsUpdate:  mu: +0.136744756  nElectrons: 310.000000  magneticMoment: [ Abs: 27.78816  Tot: -0.00000 ]
LCAOMinimize: Iter:  11  F: -1406.9174845460925098  |grad|_K:  4.432e-03  alpha:  1.339e-02  linmin:  2.314e-03  cgtest:  4.315e-01  t[s]:    193.55
	FillingsUpdate:  mu: +0.217282127  nElectrons: 310.000000  magneticMoment: [ Abs: 28.95583  Tot: -0.00000 ]
LCAOMinimize: Iter:  12  F: -1407.1549174133997440  |grad|_K:  2.924e-03  alpha:  2.499e-02  linmin: -1.977e-02  cgtest:  6.649e-02  t[s]:    208.57
	FillingsUpdate:  mu: +0.202283753  nElectrons: 310.000000  magneticMoment: [ Abs: 30.25492  Tot: -0.00000 ]
LCAOMinimize: Iter:  13  F: -1407.2549615661146163  |grad|_K:  3.306e-03  alpha:  2.345e-02  linmin: -1.335e-03  cgtest: -5.068e-02  t[s]:    223.54
	FillingsUpdate:  mu: +0.170857396  nElectrons: 310.000000  magneticMoment: [ Abs: 35.24260  Tot: +0.00000 ]
LCAOMinimize: Iter:  14  F: -1407.5478663331446114  |grad|_K:  2.458e-03  alpha:  5.719e-02  linmin: -6.177e-03  cgtest:  8.800e-01  t[s]:    238.58
LCAOMinimize: Encountered beta<0, resetting CG.
	FillingsUpdate:  mu: +0.191232486  nElectrons: 310.000000  magneticMoment: [ Abs: 35.64870  Tot: +0.00000 ]
LCAOMinimize: Iter:  15  F: -1407.6163468062479751  |grad|_K:  2.223e-03  alpha:  2.722e-02  linmin:  1.129e-02  cgtest: -1.161e-01  t[s]:    253.81
	FillingsUpdate:  mu: +0.241131114  nElectrons: 310.000000  magneticMoment: [ Abs: 37.79752  Tot: +0.00000 ]
LCAOMinimize: Iter:  16  F: -1407.7346769947146186  |grad|_K:  1.982e-03  alpha:  6.151e-02  linmin:  3.648e-03  cgtest:  6.217e-01  t[s]:    268.66
	FillingsUpdate:  mu: +0.210389185  nElectrons: 310.000000  magneticMoment: [ Abs: 38.68780  Tot: +0.00000 ]
LCAOMinimize: Iter:  17  F: -1407.8107500555954630  |grad|_K:  1.400e-03  alpha:  4.488e-02  linmin:  3.023e-03  cgtest: -6.148e-02  t[s]:    283.46
	FillingsUpdate:  mu: +0.198854734  nElectrons: 310.000000  magneticMoment: [ Abs: 39.55006  Tot: -0.00000 ]
LCAOMinimize: Iter:  18  F: -1407.8480866361460357  |grad|_K:  1.288e-03  alpha:  4.186e-02  linmin: -8.227e-03  cgtest:  1.691e-01  t[s]:    298.40
	FillingsUpdate:  mu: +0.211095574  nElectrons: 310.000000  magneticMoment: [ Abs: 41.33918  Tot: -0.00000 ]
LCAOMinimize: Iter:  19  F: -1407.9228285581968976  |grad|_K:  1.341e-03  alpha:  1.020e-01  linmin:  7.455e-03  cgtest: -4.750e-01  t[s]:    313.39
	FillingsUpdate:  mu: +0.202309740  nElectrons: 310.000000  magneticMoment: [ Abs: 42.76765  Tot: +0.00000 ]
LCAOMinimize: Iter:  20  F: -1407.9569913091097533  |grad|_K:  1.108e-03  alpha:  6.679e-02  linmin: -3.594e-04  cgtest:  1.653e-01  t[s]:    328.55
	FillingsUpdate:  mu: +0.194322614  nElectrons: 310.000000  magneticMoment: [ Abs: 43.40207  Tot: -0.00000 ]
LCAOMinimize: Iter:  21  F: -1407.9904386015848559  |grad|_K:  1.153e-03  alpha:  5.345e-02  linmin:  3.936e-03  cgtest: -2.841e-01  t[s]:    343.61
	FillingsUpdate:  mu: +0.198229227  nElectrons: 310.000000  magneticMoment: [ Abs: 43.79326  Tot: +0.00000 ]
LCAOMinimize: Iter:  22  F: -1408.0000006728589597  |grad|_K:  7.525e-04  alpha:  2.517e-02  linmin:  4.147e-03  cgtest:  5.566e-01  t[s]:    358.46
	FillingsUpdate:  mu: +0.202279058  nElectrons: 310.000000  magneticMoment: [ Abs: 43.94590  Tot: -0.00000 ]
LCAOMinimize: Iter:  23  F: -1408.0096491333561062  |grad|_K:  7.270e-04  alpha:  5.155e-02  linmin:  3.191e-02  cgtest: -3.428e-01  t[s]:    373.36
	FillingsUpdate:  mu: +0.208150431  nElectrons: 310.000000  magneticMoment: [ Abs: 44.03827  Tot: +0.00000 ]
LCAOMinimize: Iter:  24  F: -1408.0108562762088695  |grad|_K:  6.594e-04  alpha:  1.553e-02  linmin:  9.785e-04  cgtest:  8.964e-01  t[s]:    388.54
	FillingsUpdate:  mu: +0.200340280  nElectrons: 310.000000  magneticMoment: [ Abs: 44.08011  Tot: -0.00000 ]
LCAOMinimize: Iter:  25  F: -1408.0150906252704317  |grad|_K:  3.115e-04  alpha:  2.112e-02  linmin:  1.041e-02  cgtest: -1.056e-01  t[s]:    403.88
	FillingsUpdate:  mu: +0.197304129  nElectrons: 310.000000  magneticMoment: [ Abs: 44.15486  Tot: +0.00000 ]
LCAOMinimize: Iter:  26  F: -1408.0169086445885114  |grad|_K:  1.982e-04  alpha:  4.364e-02  linmin:  2.557e-03  cgtest:  2.151e-01  t[s]:    418.96
	FillingsUpdate:  mu: +0.201579609  nElectrons: 310.000000  magneticMoment: [ Abs: 44.32009  Tot: -0.00000 ]
LCAOMinimize: Iter:  27  F: -1408.0185008544024186  |grad|_K:  3.657e-04  alpha:  8.831e-02  linmin:  3.521e-04  cgtest: -4.945e-03  t[s]:    434.26
	FillingsUpdate:  mu: +0.202429551  nElectrons: 310.000000  magneticMoment: [ Abs: 44.89308  Tot: +0.00000 ]
LCAOMinimize: Iter:  28  F: -1408.0229617269292248  |grad|_K:  2.942e-04  alpha:  7.309e-02  linmin: -5.759e-04  cgtest: -1.947e-01  t[s]:    449.53
	FillingsUpdate:  mu: +0.197683220  nElectrons: 310.000000  magneticMoment: [ Abs: 45.52574  Tot: +0.00000 ]
LCAOMinimize: Iter:  29  F: -1408.0271521476145153  |grad|_K:  1.224e-04  alpha:  9.835e-02  linmin: -3.510e-03  cgtest: -5.553e-02  t[s]:    464.84
	FillingsUpdate:  mu: +0.197156094  nElectrons: 310.000000  magneticMoment: [ Abs: 45.79404  Tot: +0.00000 ]
LCAOMinimize: Iter:  30  F: -1408.0283934675230739  |grad|_K:  2.283e-04  alpha:  1.669e-01  linmin: -2.056e-05  cgtest: -2.126e-02  t[s]:    480.28
LCAOMinimize: None of the convergence criteria satisfied after 30 iterations.


---- Citations for features of the code used in this run ----

   Software package:
      R. Sundararaman, K. Letchworth-Weaver, K.A. Schwarz, D. Gunceler, Y. Ozhabes and T.A. Arias, 'JDFTx: software for joint density-functional theory', SoftwareX 6, 278 (2017)

   Simplified rotationally-invariant DFT+U:
      S. L. Dudarev et al., Phys. Rev. B 57, 1505 (1998)

   LibXC library of exchange-correlation functions:
      M. A. L. Marques, M. J. T. Oliveira and T. Burnus, Comput. Phys. Commun. 183, 2272 (2012)

   Hammer, Hansen, and Norskov exchange functional:
      B. Hammer, L. B. Hansen, and J. K. Nørskov, Phys. Rev. B 59, 7413 (1999)

   Perdew, Burke & Ernzerhof correlation functional:
      J. P. Perdew, K. Burke, and M. Ernzerhof, Phys. Rev. Lett. 77, 3865 (1996)

   Pseudopotentials:
      M Schlipf and F Gygi, Comput. Phys. Commun. 196, 36 (2015)

   Total energy minimization with Auxiliary Hamiltonian:
      C. Freysoldt, S. Boeck, and J. Neugebauer, Phys. Rev. B 79, 241103(R) (2009)

This list may not be complete. Please suggest additional citations or
report any other bugs at https://github.com/shankar1729/jdftx/issues

Initialization completed successfully at t[s]:    486.31


-------- Electronic minimization -----------
	FillingsUpdate:  mu: +0.197156130  nElectrons: 310.000000  magneticMoment: [ Abs: 45.79404  Tot: +0.00000 ]
ElecMinimize: Iter:   0  F: -1408.028393467527167  |grad|_K:  1.092e-04  alpha:  1.000e+00
	FillingsUpdate:  mu: +0.170987533  nElectrons: 310.000000  magneticMoment: [ Abs: 45.89272  Tot: +0.00000 ]
	SubspaceRotationAdjust: set factor to 0.581
ElecMinimize: Iter:   1  F: -1408.812129620506994  |grad|_K:  1.585e-04  alpha:  3.988e-01  linmin:  2.062e-04  t[s]:    577.17
	FillingsUpdate:  mu: +0.177252099  nElectrons: 310.000000  magneticMoment: [ Abs: 45.97435  Tot: +0.00000 ]
	SubspaceRotationAdjust: set factor to 0.247
ElecMinimize: Iter:   2  F: -1408.964982530422276  |grad|_K:  8.740e-05  alpha:  3.080e-02  linmin:  1.621e-03  t[s]:    653.37
ElecMinimize: 	Predicted alpha/alphaT>3.000000, increasing alphaT to 9.240473e-02.
	FillingsUpdate:  mu: +0.138260817  nElectrons: 310.000000  magneticMoment: [ Abs: 45.89120  Tot: +0.00000 ]
	SubspaceRotationAdjust: set factor to 0.179
ElecMinimize: Iter:   3  F: -1409.187063725537428  |grad|_K:  7.342e-05  alpha:  2.375e-01  linmin: -4.239e-04  t[s]:    760.52
	FillingsUpdate:  mu: +0.150287134  nElectrons: 310.000000  magneticMoment: [ Abs: 45.74839  Tot: +0.00000 ]
	SubspaceRotationAdjust: set factor to 0.271
ElecMinimize: Iter:   4  F: -1409.342158004805469  |grad|_K:  3.492e-05  alpha:  1.174e-01  linmin: -1.244e-03  t[s]:    836.61
	FillingsUpdate:  mu: +0.168699087  nElectrons: 310.000000  magneticMoment: [ Abs: 45.71149  Tot: +0.00000 ]
	SubspaceRotationAdjust: set factor to 0.16
ElecMinimize: Iter:   5  F: -1409.387434723336128  |grad|_K:  5.907e-05  alpha:  1.712e-01  linmin:  9.486e-04  t[s]:    912.31
	FillingsUpdate:  mu: +0.169520183  nElectrons: 310.000000  magneticMoment: [ Abs: 45.70798  Tot: +0.00000 ]
	SubspaceRotationAdjust: set factor to 0.102
	SubspaceRotationAdjust: resetting CG because factor has changed by 0.102474
ElecMinimize: 	State modified externally: resetting search direction.
ElecMinimize: Iter:   6  F: -1409.424645370926555  |grad|_K:  4.073e-05  alpha:  7.284e-02
	FillingsUpdate:  mu: +0.148950326  nElectrons: 310.000000  magneticMoment: [ Abs: 45.74207  Tot: -0.00000 ]
	SubspaceRotationAdjust: set factor to 0.0559
ElecMinimize: Iter:   7  F: -1409.468227870592273  |grad|_K:  1.260e-05  alpha:  1.407e-01  linmin: -1.129e-02  t[s]:   1080.49
ElecMinimize: 	Predicted alpha/alphaT>3.000000, increasing alphaT to 4.220770e-01.
	FillingsUpdate:  mu: +0.146458680  nElectrons: 310.000000  magneticMoment: [ Abs: 45.76822  Tot: -0.00000 ]
	SubspaceRotationAdjust: set factor to 0.068
ElecMinimize: Iter:   8  F: -1409.482727356920350  |grad|_K:  1.104e-05  alpha:  4.644e-01  linmin:  5.734e-05  t[s]:   1187.43
	FillingsUpdate:  mu: +0.148976400  nElectrons: 310.000000  magneticMoment: [ Abs: 45.82867  Tot: +0.00000 ]
	SubspaceRotationAdjust: set factor to 0.0693
ElecMinimize: Iter:   9  F: -1409.495718469058829  |grad|_K:  1.018e-05  alpha:  5.891e-01  linmin:  2.320e-04  t[s]:   1265.70
	FillingsUpdate:  mu: +0.145417677  nElectrons: 310.000000  magneticMoment: [ Abs: 45.88216  Tot: +0.00000 ]
	SubspaceRotationAdjust: set factor to 0.0853
ElecMinimize: Iter:  10  F: -1409.503451886125049  |grad|_K:  6.386e-06  alpha:  4.168e-01  linmin:  9.776e-05  t[s]:   1341.83
	FillingsUpdate:  mu: +0.142879776  nElectrons: 310.000000  magneticMoment: [ Abs: 45.90616  Tot: -0.00000 ]
	SubspaceRotationAdjust: set factor to 0.1
ElecMinimize: Iter:  11  F: -1409.508188864601379  |grad|_K:  6.656e-06  alpha:  6.424e-01  linmin:  2.854e-05  t[s]:   1419.03
	FillingsUpdate:  mu: +0.144467533  nElectrons: 310.000000  magneticMoment: [ Abs: 45.91399  Tot: +0.00000 ]
	SubspaceRotationAdjust: set factor to 0.111
ElecMinimize: Iter:  12  F: -1409.512091270594283  |grad|_K:  6.336e-06  alpha:  4.857e-01  linmin: -5.718e-06  t[s]:   1496.69
	FillingsUpdate:  mu: +0.139698991  nElectrons: 310.000000  magneticMoment: [ Abs: 45.92179  Tot: -0.00000 ]
	SubspaceRotationAdjust: set factor to 0.112
ElecMinimize: Iter:  13  F: -1409.516069567582008  |grad|_K:  6.423e-06  alpha:  5.441e-01  linmin: -1.869e-05  t[s]:   1573.97
	FillingsUpdate:  mu: +0.142307241  nElectrons: 310.000000  magneticMoment: [ Abs: 45.91429  Tot: +0.00000 ]
	SubspaceRotationAdjust: set factor to 0.102
ElecMinimize: Iter:  14  F: -1409.519301523670038  |grad|_K:  5.637e-06  alpha:  4.309e-01  linmin: -2.459e-05  t[s]:   1653.56
	FillingsUpdate:  mu: +0.138500380  nElectrons: 310.000000  magneticMoment: [ Abs: 45.91744  Tot: -0.00000 ]
	SubspaceRotationAdjust: set factor to 0.0877
ElecMinimize: Iter:  15  F: -1409.521319697984836  |grad|_K:  3.958e-06  alpha:  3.463e-01  linmin:  4.839e-06  t[s]:   1731.66
	FillingsUpdate:  mu: +0.140720776  nElectrons: 310.000000  magneticMoment: [ Abs: 45.91965  Tot: -0.00000 ]
	SubspaceRotationAdjust: set factor to 0.0805
ElecMinimize: Iter:  16  F: -1409.522584078491263  |grad|_K:  3.393e-06  alpha:  4.437e-01  linmin: -1.105e-05  t[s]:   1811.25
	FillingsUpdate:  mu: +0.139423958  nElectrons: 310.000000  magneticMoment: [ Abs: 45.93346  Tot: +0.00000 ]
	SubspaceRotationAdjust: set factor to 0.0865
ElecMinimize: Iter:  17  F: -1409.523477049207258  |grad|_K:  2.485e-06  alpha:  4.249e-01  linmin:  1.272e-05  t[s]:   1888.73
	FillingsUpdate:  mu: +0.139235706  nElectrons: 310.000000  magneticMoment: [ Abs: 45.94547  Tot: -0.00000 ]
	SubspaceRotationAdjust: set factor to 0.0982
ElecMinimize: Iter:  18  F: -1409.523988693225419  |grad|_K:  1.909e-06  alpha:  4.567e-01  linmin:  3.446e-07  t[s]:   1964.91
	FillingsUpdate:  mu: +0.140190356  nElectrons: 310.000000  magneticMoment: [ Abs: 45.95334  Tot: +0.00000 ]
	SubspaceRotationAdjust: set factor to 0.1
ElecMinimize: Iter:  19  F: -1409.524322447884970  |grad|_K:  1.812e-06  alpha:  5.034e-01  linmin: -1.409e-05  t[s]:   2043.09
	FillingsUpdate:  mu: +0.139079371  nElectrons: 310.000000  magneticMoment: [ Abs: 45.96497  Tot: -0.00000 ]
	SubspaceRotationAdjust: set factor to 0.0919
ElecMinimize: Iter:  20  F: -1409.524581811167536  |grad|_K:  1.658e-06  alpha:  4.319e-01  linmin:  7.403e-06  t[s]:   2120.77
	FillingsUpdate:  mu: +0.139810165  nElectrons: 310.000000  magneticMoment: [ Abs: 45.97329  Tot: +0.00000 ]
	SubspaceRotationAdjust: set factor to 0.0867
ElecMinimize: Iter:  21  F: -1409.524781886450228  |grad|_K:  1.398e-06  alpha:  4.010e-01  linmin: -8.841e-06  t[s]:   2195.59
	FillingsUpdate:  mu: +0.139136284  nElectrons: 310.000000  magneticMoment: [ Abs: 45.98330  Tot: -0.00000 ]
	SubspaceRotationAdjust: set factor to 0.0941
ElecMinimize: Iter:  22  F: -1409.524942976638158  |grad|_K:  1.143e-06  alpha:  4.520e-01  linmin:  1.252e-05  t[s]:   2271.72
	FillingsUpdate:  mu: +0.139074438  nElectrons: 310.000000  magneticMoment: [ Abs: 45.99070  Tot: -0.00000 ]
	SubspaceRotationAdjust: set factor to 0.108
ElecMinimize: Iter:  23  F: -1409.525055892675255  |grad|_K:  9.315e-07  alpha:  4.764e-01  linmin:  2.079e-06  t[s]:   2348.50
	FillingsUpdate:  mu: +0.139493896  nElectrons: 310.000000  magneticMoment: [ Abs: 45.99656  Tot: +0.00000 ]
	SubspaceRotationAdjust: set factor to 0.113
ElecMinimize: Iter:  24  F: -1409.525129490437848  |grad|_K:  8.647e-07  alpha:  4.664e-01  linmin: -3.804e-06  t[s]:   2425.84
	FillingsUpdate:  mu: +0.139018671  nElectrons: 310.000000  magneticMoment: [ Abs: 46.00366  Tot: +0.00000 ]
	SubspaceRotationAdjust: set factor to 0.0983
ElecMinimize: Iter:  25  F: -1409.525180706865285  |grad|_K:  7.953e-07  alpha:  3.759e-01  linmin:  3.052e-06  t[s]:   2501.42
	FillingsUpdate:  mu: +0.139562054  nElectrons: 310.000000  magneticMoment: [ Abs: 46.00804  Tot: -0.00000 ]
	SubspaceRotationAdjust: set factor to 0.0836
ElecMinimize: Iter:  26  F: -1409.525217939887625  |grad|_K:  5.986e-07  alpha:  3.238e-01  linmin:  1.204e-06  t[s]:   2580.71
	FillingsUpdate:  mu: +0.139389969  nElectrons: 310.000000  magneticMoment: [ Abs: 46.01350  Tot: -0.00000 ]
	SubspaceRotationAdjust: set factor to 0.0917
ElecMinimize: Iter:  27  F: -1409.525247660683590  |grad|_K:  4.896e-07  alpha:  4.561e-01  linmin:  4.457e-06  t[s]:   2659.56
	FillingsUpdate:  mu: +0.139248797  nElectrons: 310.000000  magneticMoment: [ Abs: 46.01818  Tot: -0.00000 ]
	SubspaceRotationAdjust: set factor to 0.0995
ElecMinimize: Iter:  28  F: -1409.525268345285895  |grad|_K:  4.223e-07  alpha:  4.748e-01  linmin:  2.918e-06  t[s]:   2734.15
	FillingsUpdate:  mu: +0.139493476  nElectrons: 310.000000  magneticMoment: [ Abs: 46.02118  Tot: -0.00000 ]
	SubspaceRotationAdjust: set factor to 0.094
ElecMinimize: Iter:  29  F: -1409.525281048068337  |grad|_K:  3.562e-07  alpha:  3.918e-01  linmin:  3.175e-06  t[s]:   2813.11
	FillingsUpdate:  mu: +0.139246194  nElectrons: 310.000000  magneticMoment: [ Abs: 46.02454  Tot: -0.00000 ]
	SubspaceRotationAdjust: set factor to 0.0887
ElecMinimize: Iter:  30  F: -1409.525289976038721  |grad|_K:  3.208e-07  alpha:  3.871e-01  linmin:  9.401e-07  t[s]:   2889.23
	FillingsUpdate:  mu: +0.139334889  nElectrons: 310.000000  magneticMoment: [ Abs: 46.02738  Tot: +0.00000 ]
	SubspaceRotationAdjust: set factor to 0.101
ElecMinimize: Iter:  31  F: -1409.525298660728367  |grad|_K:  2.770e-07  alpha:  4.640e-01  linmin:  1.363e-06  t[s]:   2967.93
	FillingsUpdate:  mu: +0.139371574  nElectrons: 310.000000  magneticMoment: [ Abs: 46.02994  Tot: -0.00000 ]
	SubspaceRotationAdjust: set factor to 0.118
ElecMinimize: Iter:  32  F: -1409.525305963124083  |grad|_K:  2.566e-07  alpha:  5.233e-01  linmin:  9.502e-07  t[s]:   3046.20
	FillingsUpdate:  mu: +0.139229879  nElectrons: 310.000000  magneticMoment: [ Abs: 46.03270  Tot: +0.00000 ]
	SubspaceRotationAdjust: set factor to 0.119
ElecMinimize: Iter:  33  F: -1409.525311606636933  |grad|_K:  2.740e-07  alpha:  4.712e-01  linmin:  6.849e-07  t[s]:   3124.07
	FillingsUpdate:  mu: +0.139439157  nElectrons: 310.000000  magneticMoment: [ Abs: 46.03471  Tot: +0.00000 ]
	SubspaceRotationAdjust: set factor to 0.103
ElecMinimize: Iter:  34  F: -1409.525316271565089  |grad|_K:  2.588e-07  alpha:  3.419e-01  linmin:  1.691e-08  t[s]:   3203.57
	FillingsUpdate:  mu: +0.139315376  nElectrons: 310.000000  magneticMoment: [ Abs: 46.03772  Tot: +0.00000 ]
	SubspaceRotationAdjust: set factor to 0.102
ElecMinimize: Iter:  35  F: -1409.525321112548909  |grad|_K:  2.275e-07  alpha:  3.973e-01  linmin:  2.563e-06  t[s]:   3278.33
	FillingsUpdate:  mu: +0.139382707  nElectrons: 310.000000  magneticMoment: [ Abs: 46.04046  Tot: +0.00000 ]
	SubspaceRotationAdjust: set factor to 0.113
ElecMinimize: Iter:  36  F: -1409.525325964035119  |grad|_K:  2.095e-07  alpha:  5.163e-01  linmin:  1.934e-06  t[s]:   3356.08
	FillingsUpdate:  mu: +0.139467824  nElectrons: 310.000000  magneticMoment: [ Abs: 46.04284  Tot: -0.00000 ]
	SubspaceRotationAdjust: set factor to 0.12
ElecMinimize: Iter:  37  F: -1409.525329968083952  |grad|_K:  1.903e-07  alpha:  5.020e-01  linmin:  2.331e-06  t[s]:   3431.50
	FillingsUpdate:  mu: +0.139358162  nElectrons: 310.000000  magneticMoment: [ Abs: 46.04477  Tot: +0.00000 ]
	SubspaceRotationAdjust: set factor to 0.106
ElecMinimize: Iter:  38  F: -1409.525332333077131  |grad|_K:  1.814e-07  alpha:  3.591e-01  linmin:  1.699e-06  t[s]:   3508.55
	FillingsUpdate:  mu: +0.139497687  nElectrons: 310.000000  magneticMoment: [ Abs: 46.04608  Tot: +0.00000 ]
	SubspaceRotationAdjust: set factor to 0.0888
ElecMinimize: Iter:  39  F: -1409.525334281846654  |grad|_K:  1.552e-07  alpha:  3.261e-01  linmin:  1.148e-06  t[s]:   3585.54
	FillingsUpdate:  mu: +0.139475875  nElectrons: 310.000000  magneticMoment: [ Abs: 46.04783  Tot: -0.00000 ]
	SubspaceRotationAdjust: set factor to 0.1
ElecMinimize: Iter:  40  F: -1409.525336207865166  |grad|_K:  1.293e-07  alpha:  4.399e-01  linmin:  1.830e-06  t[s]:   3664.47
	FillingsUpdate:  mu: +0.139452742  nElectrons: 310.000000  magneticMoment: [ Abs: 46.04931  Tot: -0.00000 ]
	SubspaceRotationAdjust: set factor to 0.112
ElecMinimize: Iter:  41  F: -1409.525337621347717  |grad|_K:  1.172e-07  alpha:  4.652e-01  linmin:  5.420e-07  t[s]:   3739.90
	FillingsUpdate:  mu: +0.139548622  nElectrons: 310.000000  magneticMoment: [ Abs: 46.05037  Tot: -0.00000 ]
	SubspaceRotationAdjust: set factor to 0.106
ElecMinimize: Iter:  42  F: -1409.525338630899796  |grad|_K:  1.194e-07  alpha:  4.039e-01  linmin:  4.762e-07  t[s]:   3816.37
	FillingsUpdate:  mu: +0.139487638  nElectrons: 310.000000  magneticMoment: [ Abs: 46.05183  Tot: +0.00000 ]
	SubspaceRotationAdjust: set factor to 0.104
ElecMinimize: Iter:  43  F: -1409.525339578416151  |grad|_K:  1.063e-07  alpha:  3.654e-01  linmin:  2.040e-07  t[s]:   3893.51
	FillingsUpdate:  mu: +0.139526189  nElectrons: 310.000000  magneticMoment: [ Abs: 46.05332  Tot: +0.00000 ]
	SubspaceRotationAdjust: set factor to 0.122
ElecMinimize: Iter:  44  F: -1409.525340584282503  |grad|_K:  9.800e-08  alpha:  4.893e-01  linmin:  7.746e-07  t[s]:   3970.09
	FillingsUpdate:  mu: +0.139547231  nElectrons: 310.000000  magneticMoment: [ Abs: 46.05481  Tot: +0.00000 ]
	SubspaceRotationAdjust: set factor to 0.139
ElecMinimize: Iter:  45  F: -1409.525341518422920  |grad|_K:  9.916e-08  alpha:  5.349e-01  linmin:  3.859e-07  t[s]:   4045.86
	FillingsUpdate:  mu: +0.139484672  nElectrons: 310.000000  magneticMoment: [ Abs: 46.05624  Tot: -0.00000 ]
	SubspaceRotationAdjust: set factor to 0.135
ElecMinimize: Iter:  46  F: -1409.525342272045236  |grad|_K:  1.092e-07  alpha:  4.214e-01  linmin:  4.591e-07  t[s]:   4125.37
	FillingsUpdate:  mu: +0.139563220  nElectrons: 310.000000  magneticMoment: [ Abs: 46.05714  Tot: -0.00000 ]
	SubspaceRotationAdjust: set factor to 0.111
ElecMinimize: Iter:  47  F: -1409.525342870490022  |grad|_K:  1.005e-07  alpha:  2.760e-01  linmin:  3.330e-07  t[s]:   4203.69
	FillingsUpdate:  mu: +0.139516817  nElectrons: 310.000000  magneticMoment: [ Abs: 46.05852  Tot: -0.00000 ]
	SubspaceRotationAdjust: set factor to 0.112
ElecMinimize: Iter:  48  F: -1409.525343626353333  |grad|_K:  8.709e-08  alpha:  4.117e-01  linmin:  8.281e-07  t[s]:   4282.70
	FillingsUpdate:  mu: +0.139511892  nElectrons: 310.000000  magneticMoment: [ Abs: 46.05962  Tot: -0.00000 ]
	SubspaceRotationAdjust: set factor to 0.123
ElecMinimize: Iter:  49  F: -1409.525344329162181  |grad|_K:  8.077e-08  alpha:  5.097e-01  linmin:  1.418e-07  t[s]:   4362.18
ElecMinimize: Converged (|Delta F|<1.000000e-06 for 5 iters).
Setting wave functions to eigenvectors of Hamiltonian

# Ionic positions in lattice coordinates:
ion V   0.000000000000000   0.000000000000000   0.150000000000000 1
ion V   0.500000000000000   0.000000000000000   0.150000000000000 1
ion V   0.000000000000000   0.500000000000000   0.150000000000000 1
ion V   0.500000000000000   0.500000000000000   0.150000000000000 1
ion V   0.250000000000000   0.250000000000000   0.050000000000000 1
ion V   0.250000000000000   0.750000000000000   0.050000000000000 1
ion V  -0.250000000000000   0.250000000000000   0.050000000000000 1
ion V  -0.250000000000000   0.750000000000000   0.050000000000000 1
ion V   0.000000000000000   0.000000000000000  -0.050000000000000 0
ion V   0.500000000000000   0.000000000000000  -0.050000000000000 0
ion V   0.000000000000000   0.500000000000000  -0.050000000000000 0
ion V   0.500000000000000   0.500000000000000  -0.050000000000000 0
ion V   0.250000000000000   0.250000000000000  -0.150000000000000 0
ion V   0.250000000000000   0.750000000000000  -0.150000000000000 0
ion V  -0.250000000000000   0.250000000000000  -0.150000000000000 0
ion V  -0.250000000000000   0.750000000000000  -0.150000000000000 0
ion O   0.250000000000000   0.250000000000000   0.150000000000000 1
ion O   0.250000000000000   0.750000000000000   0.150000000000000 1
ion O  -0.250000000000000   0.250000000000000   0.150000000000000 1
ion O  -0.250000000000000   0.750000000000000   0.150000000000000 1
ion O   0.000000000000000   0.000000000000000   0.050000000000000 1
ion O   0.500000000000000   0.000000000000000   0.050000000000000 1
ion O   0.000000000000000   0.500000000000000   0.050000000000000 1
ion O   0.500000000000000   0.500000000000000   0.050000000000000 1
ion O   0.250000000000000   0.250000000000000  -0.050000000000000 0
ion O   0.250000000000000   0.750000000000000  -0.050000000000000 0
ion O  -0.250000000000000   0.250000000000000  -0.050000000000000 0
ion O  -0.250000000000000   0.750000000000000  -0.050000000000000 0
ion O   0.000000000000000   0.000000000000000  -0.150000000000000 0
ion O   0.500000000000000   0.000000000000000  -0.150000000000000 0
ion O   0.000000000000000   0.500000000000000  -0.150000000000000 0
ion O   0.500000000000000   0.500000000000000  -0.150000000000000 0
ion O   0.000000000000000   0.000000000000000   0.230000000000000 1

# Forces in Lattice coordinates:
force V   0.001160243340341   0.001777482864976   3.549636516954395 1
force V  -0.049171967821743  -0.000004112001681   0.677821407953042 1
force V  -0.040056140404768   0.000035234039312   0.917084077846877 1
force V  -0.048256489288337  -0.000080548846546   0.375553667686625 1
force V  -0.013877527555558  -0.005297620039718   0.299362218718630 1
force V  -0.013482858235847   0.004995867897618   0.297609745705395 1
force V   0.001919658270988   0.017350043112998   0.223539003318398 1
force V   0.001107891294794  -0.018130089148243   0.219306714177453 1
force V  -0.004852719647374   0.000035585201399  -0.185557526284154 0
force V   0.009853360230026  -0.000015581365822  -0.231871144520273 0
force V  -0.007554446456589   0.000018014988219  -0.203430183565128 0
force V   0.009356538030984  -0.000019379847567  -0.235847416463764 0
force V   0.043558705993331  -0.000330467095300  -0.389466183585313 0
force V   0.043591175724682   0.000312971334941  -0.389297309431080 0
force V   0.036004071765364  -0.000039644172449  -0.713815876376401 0
force V   0.036007815363144   0.000049902870889  -0.713879855052861 0
force O   0.102883778710343   0.018752756209728  -0.607514831154585 1
force O   0.105011734011640  -0.020758351299903  -0.601370227909733 1
force O  -0.142222553828571   0.010249406148862  -0.685942559047771 1
force O  -0.139724029784961  -0.007957573590651  -0.692677895138990 1
force O  -0.046147414498579  -0.000491802897096  -0.218266335230706 1
force O   0.027960095671763   0.000149662032708   0.275659334285212 1
force O  -0.023344473708907  -0.000166743857979  -0.026190273993481 1
force O   0.026390066579336  -0.000192517838696   0.287281438243052 1
force O  -0.028278869982816   0.000503462597987  -0.233112635930665 0
force O  -0.028311530928109  -0.000490578028976  -0.234395945432251 0
force O   0.025545423591882  -0.000408902189518   0.018487507956075 0
force O   0.025575847314148   0.000465875697848   0.019155239762506 0
force O   0.093501189961582   0.000007093383882   0.108829178157313 0
force O  -0.045728377478214   0.000021387934215   0.059269813219093 0
force O   0.093535479861850  -0.000010365130841   0.117042145221557 0
force O  -0.045451973496792   0.000003396906702   0.060631621963864 0
force O  -0.007274119518124  -0.000268359323864  -1.042515001849203 1

# Energy components:
   Eewald =     4425.3734192060783244
       EH =     5686.4023480606338126
     Eloc =   -11778.1684059541566967
      Enl =     -217.0282763535445270
   Epulay =       -0.0003062098084384
      Exc =     -198.5791094876217358
       KE =      671.4925897390016871
        U =        0.9841791627828453
-------------------------------------
     Etot =    -1409.5235618366350536
       TS =        0.0017824925271300
-------------------------------------
        F =    -1409.5253443291621807

IonicMinimize: Iter:   0  F: -1409.525344329162181  |grad|_K:  1.447e-02  t[s]:   4371.67

#--- Lowdin population analysis ---
# oxidation-state V +1.169 +1.197 +1.107 +1.165 +0.983 +0.983 +1.005 +1.005 +1.010 +0.985 +1.011 +0.985 +1.105 +1.105 +1.025 +1.025
# magnetic-moments V +2.055 -2.760 +2.973 -2.761 +2.919 +2.919 -2.855 -2.855 -2.853 +2.931 -2.855 +2.931 -2.823 -2.823 +3.042 +3.042
# oxidation-state O -0.927 -0.927 -0.925 -0.925 -0.930 -0.918 -0.922 -0.916 -0.919 -0.919 -0.923 -0.923 -0.962 -0.964 -0.962 -0.964 -0.608
# magnetic-moments O +0.004 +0.005 +0.026 +0.026 +0.003 +0.013 +0.003 +0.014 +0.016 +0.016 +0.003 +0.003 +0.023 +0.005 +0.022 +0.004 -0.481


-------- Electronic minimization -----------
	FillingsUpdate:  mu: +0.171762334  nElectrons: 310.000000  magneticMoment: [ Abs: 46.05795  Tot: -0.00000 ]
ElecMinimize: Iter:   0  F: -1408.984828642567436  |grad|_K:  9.731e-05  alpha:  1.000e+00
	FillingsUpdate:  mu: +0.150244394  nElectrons: 310.000000  magneticMoment: [ Abs: 45.99051  Tot: +0.00000 ]
	SubspaceRotationAdjust: set factor to 0.115
ElecMinimize: Iter:   1  F: -1409.435638354085540  |grad|_K:  3.046e-05  alpha:  2.783e-01  linmin:  2.058e-02  t[s]:   4475.84
	FillingsUpdate:  mu: +0.142808787  nElectrons: 310.000000  magneticMoment: [ Abs: 46.02344  Tot: -0.00000 ]
	SubspaceRotationAdjust: set factor to 0.0797
ElecMinimize: Iter:   2  F: -1409.467480527169073  |grad|_K:  1.810e-05  alpha:  2.069e-01  linmin: -9.898e-04  t[s]:   4553.52
	FillingsUpdate:  mu: +0.149470621  nElectrons: 310.000000  magneticMoment: [ Abs: 45.99144  Tot: -0.00000 ]
	SubspaceRotationAdjust: set factor to 0.0685
ElecMinimize: Iter:   3  F: -1409.480633083960129  |grad|_K:  9.993e-06  alpha:  2.201e-01  linmin:  3.288e-03  t[s]:   4631.30
	FillingsUpdate:  mu: +0.149617963  nElectrons: 310.000000  magneticMoment: [ Abs: 45.98828  Tot: -0.00000 ]
	SubspaceRotationAdjust: set factor to 0.0968
ElecMinimize: Iter:   4  F: -1409.491497707635062  |grad|_K:  9.394e-06  alpha:  6.339e-01  linmin: -1.670e-05  t[s]:   4709.49
	FillingsUpdate:  mu: +0.142298210  nElectrons: 310.000000  magneticMoment: [ Abs: 46.00108  Tot: -0.00000 ]
	SubspaceRotationAdjust: set factor to 0.0925
ElecMinimize: Iter:   5  F: -1409.501726746724444  |grad|_K:  1.197e-05  alpha:  6.367e-01  linmin: -2.989e-05  t[s]:   4787.04
	FillingsUpdate:  mu: +0.147064319  nElectrons: 310.000000  magneticMoment: [ Abs: 45.97141  Tot: -0.00000 ]
	SubspaceRotationAdjust: set factor to 0.069
ElecMinimize: Iter:   6  F: -1409.513399180844544  |grad|_K:  1.266e-05  alpha:  4.511e-01  linmin:  3.362e-06  t[s]:   4862.84
	FillingsUpdate:  mu: +0.139783459  nElectrons: 310.000000  magneticMoment: [ Abs: 45.98127  Tot: +0.00000 ]
	SubspaceRotationAdjust: set factor to 0.0587
ElecMinimize: Iter:   7  F: -1409.524160952345937  |grad|_K:  8.242e-06  alpha:  3.687e-01  linmin:  7.206e-05  t[s]:   4940.81
	FillingsUpdate:  mu: +0.140486500  nElectrons: 310.000000  magneticMoment: [ Abs: 45.97410  Tot: +0.00000 ]
	SubspaceRotationAdjust: set factor to 0.0687
ElecMinimize: Iter:   8  F: -1409.530067953577600  |grad|_K:  5.172e-06  alpha:  4.799e-01  linmin: -6.272e-05  t[s]:   5018.74
	FillingsUpdate:  mu: +0.143746401  nElectrons: 310.000000  magneticMoment: [ Abs: 45.96525  Tot: +0.00000 ]
	SubspaceRotationAdjust: set factor to 0.0618
ElecMinimize: Iter:   9  F: -1409.532262511085491  |grad|_K:  3.701e-06  alpha:  4.495e-01  linmin:  2.676e-06  t[s]:   5094.48
	FillingsUpdate:  mu: +0.140696706  nElectrons: 310.000000  magneticMoment: [ Abs: 45.96533  Tot: -0.00000 ]
	SubspaceRotationAdjust: set factor to 0.0531
ElecMinimize: Iter:  10  F: -1409.533225930465278  |grad|_K:  2.270e-06  alpha:  3.869e-01  linmin: -3.942e-05  t[s]:   5170.11
	FillingsUpdate:  mu: +0.141408950  nElectrons: 310.000000  magneticMoment: [ Abs: 45.96273  Tot: +0.00000 ]
	SubspaceRotationAdjust: set factor to 0.0589
ElecMinimize: Iter:  11  F: -1409.533665485601887  |grad|_K:  1.481e-06  alpha:  4.683e-01  linmin:  6.409e-06  t[s]:   5247.56
	FillingsUpdate:  mu: +0.141722937  nElectrons: 310.000000  magneticMoment: [ Abs: 45.96088  Tot: -0.00000 ]
	SubspaceRotationAdjust: set factor to 0.0668
ElecMinimize: Iter:  12  F: -1409.533856593911196  |grad|_K:  1.102e-06  alpha:  4.788e-01  linmin:  6.684e-06  t[s]:   5324.34
	FillingsUpdate:  mu: +0.141432807  nElectrons: 310.000000  magneticMoment: [ Abs: 45.95954  Tot: +0.00000 ]
	SubspaceRotationAdjust: set factor to 0.0763
ElecMinimize: Iter:  13  F: -1409.533959906610562  |grad|_K:  8.844e-07  alpha:  4.673e-01  linmin:  2.784e-07  t[s]:   5401.99
	FillingsUpdate:  mu: +0.141813710  nElectrons: 310.000000  magneticMoment: [ Abs: 45.95629  Tot: -0.00000 ]
	SubspaceRotationAdjust: set factor to 0.0898
ElecMinimize: Iter:  14  F: -1409.534043703928319  |grad|_K:  7.925e-07  alpha:  5.888e-01  linmin: -1.278e-06  t[s]:   5482.70
	FillingsUpdate:  mu: +0.141748434  nElectrons: 310.000000  magneticMoment: [ Abs: 45.95211  Tot: +0.00000 ]
	SubspaceRotationAdjust: set factor to 0.102
ElecMinimize: Iter:  15  F: -1409.534116965301337  |grad|_K:  8.320e-07  alpha:  6.412e-01  linmin: -3.800e-07  t[s]:   5559.22
	FillingsUpdate:  mu: +0.142160028  nElectrons: 310.000000  magneticMoment: [ Abs: 45.94583  Tot: -0.00000 ]
	SubspaceRotationAdjust: set factor to 0.114
ElecMinimize: Iter:  16  F: -1409.534186443919225  |grad|_K:  7.588e-07  alpha:  5.517e-01  linmin: -2.417e-06  t[s]:   5636.99
	FillingsUpdate:  mu: +0.141899273  nElectrons: 310.000000  magneticMoment: [ Abs: 45.93838  Tot: +0.00000 ]
	SubspaceRotationAdjust: set factor to 0.119
ElecMinimize: Iter:  17  F: -1409.534249647072102  |grad|_K:  7.046e-07  alpha:  6.032e-01  linmin: -3.176e-06  t[s]:   5714.74
	FillingsUpdate:  mu: +0.142588454  nElectrons: 310.000000  magneticMoment: [ Abs: 45.93140  Tot: +0.00000 ]
	SubspaceRotationAdjust: set factor to 0.103
ElecMinimize: Iter:  18  F: -1409.534287477316866  |grad|_K:  6.622e-07  alpha:  4.188e-01  linmin: -7.138e-07  t[s]:   5793.68
	FillingsUpdate:  mu: +0.141968503  nElectrons: 310.000000  magneticMoment: [ Abs: 45.92694  Tot: -0.00000 ]
	SubspaceRotationAdjust: set factor to 0.0757
ElecMinimize: Iter:  19  F: -1409.534311579111318  |grad|_K:  5.349e-07  alpha:  3.028e-01  linmin: -6.482e-06  t[s]:   5871.48
	FillingsUpdate:  mu: +0.142209096  nElectrons: 310.000000  magneticMoment: [ Abs: 45.92088  Tot: +0.00000 ]
	SubspaceRotationAdjust: set factor to 0.0818
ElecMinimize: Iter:  20  F: -1409.534332648279587  |grad|_K:  4.013e-07  alpha:  4.044e-01  linmin: -3.732e-06  t[s]:   5949.07
	FillingsUpdate:  mu: +0.142252599  nElectrons: 310.000000  magneticMoment: [ Abs: 45.91601  Tot: -0.00000 ]
	SubspaceRotationAdjust: set factor to 0.094
ElecMinimize: Iter:  21  F: -1409.534346295031810  |grad|_K:  3.306e-07  alpha:  4.656e-01  linmin: -1.699e-06  t[s]:   6026.82
	FillingsUpdate:  mu: +0.141973069  nElectrons: 310.000000  magneticMoment: [ Abs: 45.91219  Tot: +0.00000 ]
	SubspaceRotationAdjust: set factor to 0.0911
ElecMinimize: Iter:  22  F: -1409.534355177894668  |grad|_K:  2.977e-07  alpha:  4.467e-01  linmin: -8.303e-06  t[s]:   6104.12
	FillingsUpdate:  mu: +0.142191261  nElectrons: 310.000000  magneticMoment: [ Abs: 45.90799  Tot: +0.00000 ]
	SubspaceRotationAdjust: set factor to 0.0863
ElecMinimize: Iter:  23  F: -1409.534361712197551  |grad|_K:  2.686e-07  alpha:  4.049e-01  linmin: -1.021e-06  t[s]:   6182.13
	FillingsUpdate:  mu: +0.142003606  nElectrons: 310.000000  magneticMoment: [ Abs: 45.90313  Tot: -0.00000 ]
	SubspaceRotationAdjust: set factor to 0.0987
ElecMinimize: Iter:  24  F: -1409.534368233612895  |grad|_K:  2.335e-07  alpha:  4.967e-01  linmin: -2.657e-06  t[s]:   6260.74
	FillingsUpdate:  mu: +0.141922086  nElectrons: 310.000000  magneticMoment: [ Abs: 45.89787  Tot: +0.00000 ]
	SubspaceRotationAdjust: set factor to 0.115
ElecMinimize: Iter:  25  F: -1409.534373885870991  |grad|_K:  2.307e-07  alpha:  5.697e-01  linmin: -1.015e-06  t[s]:   6338.01
	FillingsUpdate:  mu: +0.142098912  nElectrons: 310.000000  magneticMoment: [ Abs: 45.89256  Tot: +0.00000 ]
	SubspaceRotationAdjust: set factor to 0.108
ElecMinimize: Iter:  26  F: -1409.534378490506015  |grad|_K:  2.495e-07  alpha:  4.757e-01  linmin: -1.612e-06  t[s]:   6413.64
	FillingsUpdate:  mu: +0.141831463  nElectrons: 310.000000  magneticMoment: [ Abs: 45.88771  Tot: +0.00000 ]
	SubspaceRotationAdjust: set factor to 0.0887
ElecMinimize: Iter:  27  F: -1409.534382536867952  |grad|_K:  2.313e-07  alpha:  3.572e-01  linmin: -4.790e-07  t[s]:   6493.75
	FillingsUpdate:  mu: +0.141933650  nElectrons: 310.000000  magneticMoment: [ Abs: 45.88117  Tot: +0.00000 ]
	SubspaceRotationAdjust: set factor to 0.0934
ElecMinimize: Iter:  28  F: -1409.534387161269933  |grad|_K:  1.964e-07  alpha:  4.752e-01  linmin: -2.014e-06  t[s]:   6571.23
	FillingsUpdate:  mu: +0.141969903  nElectrons: 310.000000  magneticMoment: [ Abs: 45.87570  Tot: +0.00000 ]
	SubspaceRotationAdjust: set factor to 0.106
ElecMinimize: Iter:  29  F: -1409.534390793983448  |grad|_K:  1.744e-07  alpha:  5.172e-01  linmin:  2.659e-07  t[s]:   6647.20
	FillingsUpdate:  mu: +0.141819041  nElectrons: 310.000000  magneticMoment: [ Abs: 45.87171  Tot: +0.00000 ]
	SubspaceRotationAdjust: set factor to 0.1
ElecMinimize: Iter:  30  F: -1409.534393358636862  |grad|_K:  1.703e-07  alpha:  4.636e-01  linmin: -6.940e-07  t[s]:   6725.00
	FillingsUpdate:  mu: +0.141972380  nElectrons: 310.000000  magneticMoment: [ Abs: 45.86849  Tot: -0.00000 ]
	SubspaceRotationAdjust: set factor to 0.0815
ElecMinimize: Iter:  31  F: -1409.534395176331145  |grad|_K:  1.439e-07  alpha:  3.442e-01  linmin:  9.589e-07  t[s]:   6803.49
	FillingsUpdate:  mu: +0.141907657  nElectrons: 310.000000  magneticMoment: [ Abs: 45.86546  Tot: -0.00000 ]
	SubspaceRotationAdjust: set factor to 0.0908
ElecMinimize: Iter:  32  F: -1409.534396923875647  |grad|_K:  1.171e-07  alpha:  4.643e-01  linmin:  1.449e-06  t[s]:   6883.09
	FillingsUpdate:  mu: +0.141890546  nElectrons: 310.000000  magneticMoment: [ Abs: 45.86329  Tot: -0.00000 ]
	SubspaceRotationAdjust: set factor to 0.105
ElecMinimize: Iter:  33  F: -1409.534398114779151  |grad|_K:  1.015e-07  alpha:  4.774e-01  linmin:  8.324e-07  t[s]:   6962.32
	FillingsUpdate:  mu: +0.141974378  nElectrons: 310.000000  magneticMoment: [ Abs: 45.86151  Tot: +0.00000 ]
	SubspaceRotationAdjust: set factor to 0.101
ElecMinimize: Iter:  34  F: -1409.534398981992808  |grad|_K:  9.669e-08  alpha:  4.627e-01  linmin: -7.477e-07  t[s]:   7039.82
	FillingsUpdate:  mu: +0.141889003  nElectrons: 310.000000  magneticMoment: [ Abs: 45.86028  Tot: -0.00000 ]
	SubspaceRotationAdjust: set factor to 0.0885
ElecMinimize: Iter:  35  F: -1409.534399612825155  |grad|_K:  8.750e-08  alpha:  3.709e-01  linmin: -3.592e-07  t[s]:   7117.65
	FillingsUpdate:  mu: +0.141940522  nElectrons: 310.000000  magneticMoment: [ Abs: 45.85882  Tot: +0.00000 ]
	SubspaceRotationAdjust: set factor to 0.0974
ElecMinimize: Iter:  36  F: -1409.534400264735496  |grad|_K:  7.346e-08  alpha:  4.681e-01  linmin:  8.904e-07  t[s]:   7194.35
	FillingsUpdate:  mu: +0.141948401  nElectrons: 310.000000  magneticMoment: [ Abs: 45.85760  Tot: +0.00000 ]
	SubspaceRotationAdjust: set factor to 0.113
ElecMinimize: Iter:  37  F: -1409.534400780585884  |grad|_K:  6.705e-08  alpha:  5.257e-01  linmin:  2.936e-06  t[s]:   7270.95
	FillingsUpdate:  mu: +0.141898744  nElectrons: 310.000000  magneticMoment: [ Abs: 45.85665  Tot: -0.00000 ]
	SubspaceRotationAdjust: set factor to 0.112
ElecMinimize: Iter:  38  F: -1409.534401174281584  |grad|_K:  6.659e-08  alpha:  4.817e-01  linmin:  3.352e-07  t[s]:   7349.68
ElecMinimize: Converged (|Delta F|<1.000000e-06 for 5 iters).
Setting wave functions to eigenvectors of Hamiltonian

# Ionic positions in lattice coordinates:
ion V   0.000008502741855   0.000013026127733   0.152081056063502 1
ion V   0.499639647533976  -0.000000030134445   0.150397388392940 1
ion V  -0.000293547921990   0.500000258209576   0.150537661637136 1
ion V   0.499646356538349   0.499999409704822   0.150220176976875 1
ion V   0.249898299752918   0.249961176854823   0.050175507987218 1
ion V   0.249901192052514   0.750036611780992   0.050174480559601 1
ion V  -0.249985931952238   0.250127148273668   0.050131054882961 1
ion V  -0.249991880915533   0.749867135227179   0.050128573606093 1
ion V   0.000000000000000   0.000000000000000  -0.050000000000000 0
ion V   0.500000000000000   0.000000000000000  -0.050000000000000 0
ion V   0.000000000000000   0.500000000000000  -0.050000000000000 0
ion V   0.500000000000000   0.500000000000000  -0.050000000000000 0
ion V   0.250000000000000   0.250000000000000  -0.150000000000000 0
ion V   0.250000000000000   0.750000000000000  -0.150000000000000 0
ion V  -0.250000000000000   0.250000000000000  -0.150000000000000 0
ion V  -0.250000000000000   0.750000000000000  -0.150000000000000 0
ion O   0.250753974774947   0.250137427933928   0.149643830455033 1
ion O   0.250769569309280   0.749847874237846   0.149647432870035 1
ion O  -0.251042265548169   0.250075111876637   0.149597850395413 1
ion O  -0.251023955333215   0.749941683617842   0.149593901649691 1
ion O  -0.000338187291496  -0.000003604134523   0.049872036339997 1
ion O   0.500204903115981   0.000001096785119   0.050161611625961 1
ion O  -0.000171077934069   0.499998778032219   0.049984645349393 1
ion O   0.500193397295078   0.499998589149855   0.050168425351760 1
ion O   0.250000000000000   0.250000000000000  -0.050000000000000 0
ion O   0.250000000000000   0.750000000000000  -0.050000000000000 0
ion O  -0.250000000000000   0.250000000000000  -0.050000000000000 0
ion O  -0.250000000000000   0.750000000000000  -0.050000000000000 0
ion O   0.000000000000000   0.000000000000000  -0.150000000000000 0
ion O   0.500000000000000   0.000000000000000  -0.150000000000000 0
ion O   0.000000000000000   0.500000000000000  -0.150000000000000 0
ion O   0.500000000000000   0.500000000000000  -0.150000000000000 0
ion O  -0.000053307748757  -0.000001966647837   0.229388801598269 1

# Forces in Lattice coordinates:
force V   0.002985977673401   0.001330333183052   2.293993108241436 1
force V  -0.042979598868251  -0.000041950870167   0.550086376187763 1
force V  -0.033915807800005   0.000113678771783   0.752305215203946 1
force V  -0.044337158958572  -0.000035462527674   0.329463549046996 1
force V  -0.017095802635033  -0.011846281552656   0.244950078472979 1
force V  -0.016762421775902   0.011567350947611   0.244738256606669 1
force V   0.002643971485076   0.007785444965774   0.170703638036010 1
force V   0.001960840107893  -0.008435172449892   0.166820794041879 1
force V  -0.005182214837424   0.000034219058883  -0.188120643796947 0
force V   0.008829282439572   0.000011320226778  -0.225686558473726 0
force V  -0.007595107118818   0.000003150889030  -0.215742083245926 0
force V   0.008499609350698  -0.000045098000400  -0.232224599551315 0
force V   0.044661785991513  -0.000540395915553  -0.394958368116956 0
force V   0.044675561185258   0.000535188155024  -0.394759867573214 0
force V   0.036390464777193  -0.000168743975629  -0.739497796986742 0
force V   0.036382730010765   0.000169679366238  -0.739578148259723 0
force O   0.065299010483587   0.008116810254448  -0.440734388367826 1
force O   0.067591852882114  -0.010294170399886  -0.435138568194368 1
force O  -0.107432587070537  -0.001251744800657  -0.531902327647428 1
force O  -0.104825735976457   0.003720880644350  -0.538619565818390 1
force O  -0.050250182260439  -0.000363925236120  -0.097675503769562 1
force O   0.030664847137099   0.000139931231185   0.247235443434505 1
force O  -0.027842430842389  -0.000152810348553   0.019088844409730 1
force O   0.028593617183268  -0.000209304470268   0.252495502462930 1
force O  -0.031037624070516   0.001353449375085  -0.235022118964404 0
force O  -0.031067763363055  -0.001338496775197  -0.236172366312123 0
force O   0.027846577388024   0.000381752064060   0.035675368684802 0
force O   0.027876918772217  -0.000358572964834   0.036126964896932 0
force O   0.098781682536657   0.000001351194349   0.115039654783033 0
force O  -0.051451153227799   0.000005651968701   0.062963533603547 0
force O   0.098673828030824  -0.000007048934753   0.127660930260220 0
force O  -0.051171979490059   0.000007974776310   0.064861360051365 0
force O  -0.006250809773428  -0.000208732114934  -0.222450628747573 1

# Energy components:
   Eewald =     4418.0377258579856061
       EH =     5679.5232943989567502
     Eloc =   -11763.9887379698084260
      Enl =     -217.0221489098100278
   Epulay =       -0.0003062098084384
      Exc =     -198.5853918982066375
       KE =      671.5156232422045832
        U =        0.9873223625565180
-------------------------------------
     Etot =    -1409.5326191259302959
       TS =        0.0017820483512297
-------------------------------------
        F =    -1409.5344011742815837

IonicMinimize: Iter:   1  F: -1409.534401174281584  |grad|_K:  9.644e-03  alpha:  1.000e+00  linmin: -8.700e-01  t[s]:   7359.18

#--- Lowdin population analysis ---
# oxidation-state V +1.176 +1.182 +1.104 +1.151 +0.985 +0.985 +1.012 +1.012 +1.012 +0.986 +1.013 +0.985 +1.109 +1.109 +1.022 +1.022
# magnetic-moments V +1.918 -2.788 +2.981 -2.783 +2.919 +2.919 -2.843 -2.843 -2.848 +2.932 -2.850 +2.932 -2.812 -2.812 +3.048 +3.048
# oxidation-state O -0.931 -0.931 -0.929 -0.929 -0.933 -0.919 -0.922 -0.917 -0.919 -0.919 -0.923 -0.923 -0.961 -0.963 -0.961 -0.963 -0.585
# magnetic-moments O +0.001 +0.002 +0.023 +0.023 +0.005 +0.015 +0.004 +0.015 +0.016 +0.016 +0.004 +0.003 +0.023 +0.005 +0.023 +0.005 -0.376


-------- Electronic minimization -----------
	FillingsUpdate:  mu: +0.183022365  nElectrons: 310.000000  magneticMoment: [ Abs: 45.85313  Tot: -0.00000 ]
ElecMinimize: Iter:   0  F: -1408.652686831930396  |grad|_K:  1.239e-04  alpha:  1.000e+00
	FillingsUpdate:  mu: +0.159117881  nElectrons: 310.000000  magneticMoment: [ Abs: 45.80324  Tot: -0.00000 ]
	SubspaceRotationAdjust: set factor to 0.112
ElecMinimize: Iter:   1  F: -1409.381259362389528  |grad|_K:  3.617e-05  alpha:  2.812e-01  linmin:  2.336e-02  t[s]:   7458.87
	FillingsUpdate:  mu: +0.149128709  nElectrons: 310.000000  magneticMoment: [ Abs: 45.81830  Tot: +0.00000 ]
	SubspaceRotationAdjust: set factor to 0.0863
ElecMinimize: Iter:   2  F: -1409.438182571813513  |grad|_K:  1.891e-05  alpha:  2.561e-01  linmin:  8.188e-05  t[s]:   7535.24
	FillingsUpdate:  mu: +0.153056552  nElectrons: 310.000000  magneticMoment: [ Abs: 45.78891  Tot: -0.00000 ]
	SubspaceRotationAdjust: set factor to 0.0643
ElecMinimize: Iter:   3  F: -1409.453851348634316  |grad|_K:  1.386e-05  alpha:  2.380e-01  linmin:  3.494e-03  t[s]:   7613.35
	FillingsUpdate:  mu: +0.153583495  nElectrons: 310.000000  magneticMoment: [ Abs: 45.78550  Tot: +0.00000 ]
	SubspaceRotationAdjust: set factor to 0.0897
ElecMinimize: Iter:   4  F: -1409.472640890971661  |grad|_K:  1.264e-05  alpha:  5.821e-01  linmin:  1.483e-04  t[s]:   7691.94
	FillingsUpdate:  mu: +0.146327064  nElectrons: 310.000000  magneticMoment: [ Abs: 45.79511  Tot: +0.00000 ]
	SubspaceRotationAdjust: set factor to 0.0905
ElecMinimize: Iter:   5  F: -1409.490078078277975  |grad|_K:  1.538e-05  alpha:  6.037e-01  linmin:  5.504e-05  t[s]:   7767.83
	FillingsUpdate:  mu: +0.148368479  nElectrons: 310.000000  magneticMoment: [ Abs: 45.77251  Tot: -0.00000 ]
	SubspaceRotationAdjust: set factor to 0.0691
ElecMinimize: Iter:   6  F: -1409.508375110860698  |grad|_K:  1.558e-05  alpha:  4.318e-01  linmin: -5.224e-06  t[s]:   7846.03
	FillingsUpdate:  mu: +0.140499046  nElectrons: 310.000000  magneticMoment: [ Abs: 45.78640  Tot: -0.00000 ]
	SubspaceRotationAdjust: set factor to 0.0626
ElecMinimize: Iter:   7  F: -1409.524930185450330  |grad|_K:  1.042e-05  alpha:  3.743e-01  linmin:  6.619e-05  t[s]:   7922.85
	FillingsUpdate:  mu: +0.142718038  nElectrons: 310.000000  magneticMoment: [ Abs: 45.78452  Tot: -0.00000 ]
	SubspaceRotationAdjust: set factor to 0.0726
ElecMinimize: Iter:   8  F: -1409.534215981979060  |grad|_K:  6.743e-06  alpha:  4.717e-01  linmin: -5.171e-05  t[s]:   8000.65
	FillingsUpdate:  mu: +0.147289725  nElectrons: 310.000000  magneticMoment: [ Abs: 45.77820  Tot: -0.00000 ]
	SubspaceRotationAdjust: set factor to 0.0634
ElecMinimize: Iter:   9  F: -1409.537899359846733  |grad|_K:  4.979e-06  alpha:  4.441e-01  linmin:  6.265e-06  t[s]:   8077.47
	FillingsUpdate:  mu: +0.142530438  nElectrons: 310.000000  magneticMoment: [ Abs: 45.78050  Tot: +0.00000 ]
	SubspaceRotationAdjust: set factor to 0.0536
ElecMinimize: Iter:  10  F: -1409.539550018170303  |grad|_K:  3.069e-06  alpha:  3.666e-01  linmin: -6.603e-05  t[s]:   8153.30
	FillingsUpdate:  mu: +0.143555871  nElectrons: 310.000000  magneticMoment: [ Abs: 45.78037  Tot: +0.00000 ]
	SubspaceRotationAdjust: set factor to 0.0619
ElecMinimize: Iter:  11  F: -1409.540372231254423  |grad|_K:  2.108e-06  alpha:  4.789e-01  linmin:  1.124e-06  t[s]:   8232.10
	FillingsUpdate:  mu: +0.144489248  nElectrons: 310.000000  magneticMoment: [ Abs: 45.78009  Tot: -0.00000 ]
	SubspaceRotationAdjust: set factor to 0.0686
ElecMinimize: Iter:  12  F: -1409.540743615039673  |grad|_K:  1.582e-06  alpha:  4.596e-01  linmin:  3.946e-06  t[s]:   8310.00
	FillingsUpdate:  mu: +0.143734360  nElectrons: 310.000000  magneticMoment: [ Abs: 45.78049  Tot: -0.00000 ]
	SubspaceRotationAdjust: set factor to 0.0763
ElecMinimize: Iter:  13  F: -1409.540952865683948  |grad|_K:  1.252e-06  alpha:  4.598e-01  linmin: -7.429e-06  t[s]:   8387.41
	FillingsUpdate:  mu: +0.144383096  nElectrons: 310.000000  magneticMoment: [ Abs: 45.77952  Tot: +0.00000 ]
	SubspaceRotationAdjust: set factor to 0.0881
ElecMinimize: Iter:  14  F: -1409.541117773945189  |grad|_K:  1.108e-06  alpha:  5.784e-01  linmin: -3.749e-06  t[s]:   8465.35
	FillingsUpdate:  mu: +0.144266174  nElectrons: 310.000000  magneticMoment: [ Abs: 45.77834  Tot: -0.00000 ]
	SubspaceRotationAdjust: set factor to 0.0997
ElecMinimize: Iter:  15  F: -1409.541249542990727  |grad|_K:  1.112e-06  alpha:  5.902e-01  linmin: -1.468e-06  t[s]:   8543.44
	FillingsUpdate:  mu: +0.144571788  nElectrons: 310.000000  magneticMoment: [ Abs: 45.77611  Tot: -0.00000 ]
	SubspaceRotationAdjust: set factor to 0.113
ElecMinimize: Iter:  16  F: -1409.541371184641093  |grad|_K:  9.417e-07  alpha:  5.405e-01  linmin: -5.891e-07  t[s]:   8621.37
	FillingsUpdate:  mu: +0.144815311  nElectrons: 310.000000  magneticMoment: [ Abs: 45.77292  Tot: +0.00000 ]
	SubspaceRotationAdjust: set factor to 0.124
ElecMinimize: Iter:  17  F: -1409.541464970762036  |grad|_K:  8.243e-07  alpha:  5.813e-01  linmin: -1.085e-06  t[s]:   8699.96
	FillingsUpdate:  mu: +0.144595726  nElectrons: 310.000000  magneticMoment: [ Abs: 45.76992  Tot: -0.00000 ]
	SubspaceRotationAdjust: set factor to 0.129
ElecMinimize: Iter:  18  F: -1409.541521656466330  |grad|_K:  6.907e-07  alpha:  4.586e-01  linmin: -1.106e-06  t[s]:   8778.97
	FillingsUpdate:  mu: +0.145357309  nElectrons: 310.000000  magneticMoment: [ Abs: 45.76652  Tot: +0.00000 ]
	SubspaceRotationAdjust: set factor to 0.11
ElecMinimize: Iter:  19  F: -1409.541554075765134  |grad|_K:  6.577e-07  alpha:  3.735e-01  linmin: -5.723e-08  t[s]:   8857.77
	FillingsUpdate:  mu: +0.144680090  nElectrons: 310.000000  magneticMoment: [ Abs: 45.76408  Tot: -0.00000 ]
	SubspaceRotationAdjust: set factor to 0.0831
ElecMinimize: Iter:  20  F: -1409.541575639679650  |grad|_K:  4.904e-07  alpha:  2.744e-01  linmin: -6.447e-06  t[s]:   8934.29
	FillingsUpdate:  mu: +0.144793711  nElectrons: 310.000000  magneticMoment: [ Abs: 45.76049  Tot: -0.00000 ]
	SubspaceRotationAdjust: set factor to 0.0961
ElecMinimize: Iter:  21  F: -1409.541594325170308  |grad|_K:  3.643e-07  alpha:  4.268e-01  linmin: -2.785e-06  t[s]:   9011.05
	FillingsUpdate:  mu: +0.144932442  nElectrons: 310.000000  magneticMoment: [ Abs: 45.75754  Tot: +0.00000 ]
	SubspaceRotationAdjust: set factor to 0.106
ElecMinimize: Iter:  22  F: -1409.541605652521639  |grad|_K:  3.010e-07  alpha:  4.689e-01  linmin: -1.790e-06  t[s]:   9088.50
	FillingsUpdate:  mu: +0.144626166  nElectrons: 310.000000  magneticMoment: [ Abs: 45.75538  Tot: -0.00000 ]
	SubspaceRotationAdjust: set factor to 0.0933
ElecMinimize: Iter:  23  F: -1409.541612125528445  |grad|_K:  2.758e-07  alpha:  3.927e-01  linmin: -4.250e-06  t[s]:   9166.37
	FillingsUpdate:  mu: +0.144824330  nElectrons: 310.000000  magneticMoment: [ Abs: 45.75276  Tot: -0.00000 ]
	SubspaceRotationAdjust: set factor to 0.0856
ElecMinimize: Iter:  24  F: -1409.541617210067898  |grad|_K:  2.192e-07  alpha:  3.673e-01  linmin: -2.174e-06  t[s]:   9244.97
	FillingsUpdate:  mu: +0.144731759  nElectrons: 310.000000  magneticMoment: [ Abs: 45.75012  Tot: +0.00000 ]
	SubspaceRotationAdjust: set factor to 0.0999
ElecMinimize: Iter:  25  F: -1409.541621359923965  |grad|_K:  1.847e-07  alpha:  4.747e-01  linmin: -8.619e-08  t[s]:   9325.91
	FillingsUpdate:  mu: +0.144649792  nElectrons: 310.000000  magneticMoment: [ Abs: 45.74759  Tot: -0.00000 ]
	SubspaceRotationAdjust: set factor to 0.111
ElecMinimize: Iter:  26  F: -1409.541624487655326  |grad|_K:  1.680e-07  alpha:  5.037e-01  linmin: -6.880e-07  t[s]:   9403.33
	FillingsUpdate:  mu: +0.144806350  nElectrons: 310.000000  magneticMoment: [ Abs: 45.74520  Tot: +0.00000 ]
	SubspaceRotationAdjust: set factor to 0.101
ElecMinimize: Iter:  27  F: -1409.541626714589256  |grad|_K:  1.706e-07  alpha:  4.335e-01  linmin: -8.012e-07  t[s]:   9481.12
	FillingsUpdate:  mu: +0.144641935  nElectrons: 310.000000  magneticMoment: [ Abs: 45.74284  Tot: +0.00000 ]
	SubspaceRotationAdjust: set factor to 0.09
ElecMinimize: Iter:  28  F: -1409.541628693672919  |grad|_K:  1.484e-07  alpha:  3.738e-01  linmin: -1.193e-06  t[s]:   9560.65
	FillingsUpdate:  mu: +0.144708937  nElectrons: 310.000000  magneticMoment: [ Abs: 45.73994  Tot: -0.00000 ]
	SubspaceRotationAdjust: set factor to 0.101
ElecMinimize: Iter:  29  F: -1409.541630677295871  |grad|_K:  1.281e-07  alpha:  4.948e-01  linmin: -2.361e-06  t[s]:   9636.60
	FillingsUpdate:  mu: +0.144740416  nElectrons: 310.000000  magneticMoment: [ Abs: 45.73724  Tot: -0.00000 ]
	SubspaceRotationAdjust: set factor to 0.114
ElecMinimize: Iter:  30  F: -1409.541632304513996  |grad|_K:  1.220e-07  alpha:  5.448e-01  linmin: -1.273e-07  t[s]:   9714.94
	FillingsUpdate:  mu: +0.144627731  nElectrons: 310.000000  magneticMoment: [ Abs: 45.73514  Tot: +0.00000 ]
	SubspaceRotationAdjust: set factor to 0.106
ElecMinimize: Iter:  31  F: -1409.541633474492073  |grad|_K:  1.202e-07  alpha:  4.320e-01  linmin: -7.060e-07  t[s]:   9793.59
	FillingsUpdate:  mu: +0.144749228  nElectrons: 310.000000  magneticMoment: [ Abs: 45.73314  Tot: +0.00000 ]
	SubspaceRotationAdjust: set factor to 0.0879
ElecMinimize: Iter:  32  F: -1409.541634429055875  |grad|_K:  1.077e-07  alpha:  3.631e-01  linmin: -2.573e-07  t[s]:   9869.45
	FillingsUpdate:  mu: +0.144693788  nElectrons: 310.000000  magneticMoment: [ Abs: 45.73111  Tot: -0.00000 ]
	SubspaceRotationAdjust: set factor to 0.0952
ElecMinimize: Iter:  33  F: -1409.541635358925078  |grad|_K:  8.699e-08  alpha:  4.409e-01  linmin: -2.251e-06  t[s]:   9946.19
	FillingsUpdate:  mu: +0.144672100  nElectrons: 310.000000  magneticMoment: [ Abs: 45.72934  Tot: -0.00000 ]
	SubspaceRotationAdjust: set factor to 0.109
ElecMinimize: Iter:  34  F: -1409.541636089232725  |grad|_K:  7.814e-08  alpha:  5.304e-01  linmin:  1.800e-06  t[s]:  10024.96
	FillingsUpdate:  mu: +0.144744132  nElectrons: 310.000000  magneticMoment: [ Abs: 45.72802  Tot: -0.00000 ]
	SubspaceRotationAdjust: set factor to 0.103
ElecMinimize: Iter:  35  F: -1409.541636562917120  |grad|_K:  7.512e-08  alpha:  4.265e-01  linmin: -1.053e-06  t[s]:  10101.08
	FillingsUpdate:  mu: +0.144674882  nElectrons: 310.000000  magneticMoment: [ Abs: 45.72686  Tot: -0.00000 ]
	SubspaceRotationAdjust: set factor to 0.0906
ElecMinimize: Iter:  36  F: -1409.541636960870164  |grad|_K:  6.814e-08  alpha:  3.877e-01  linmin: -1.089e-06  t[s]:  10179.24
ElecMinimize: Converged (|Delta F|<1.000000e-06 for 5 iters).
Setting wave functions to eigenvectors of Hamiltonian

# Ionic positions in lattice coordinates:
ion V   0.000081542173743   0.000033310043509   0.154502268640539 1
ion V   0.498904070384923  -0.000001174802733   0.151112835620349 1
ion V  -0.000861810423474   0.500003125787712   0.151523827787576 1
ion V   0.498863541551567   0.499999191496059   0.150672338914774 1
ion V   0.249550469460099   0.249678160994751   0.050496011644933 1
ion V   0.249558938533509   0.750314685007077   0.050495868902325 1
ion V  -0.249929934624912   0.250178298130363   0.050342808287021 1
ion V  -0.249947281316590   0.749805222496102   0.050334847413216 1
ion V   0.000000000000000   0.000000000000000  -0.050000000000000 0
ion V   0.500000000000000   0.000000000000000  -0.050000000000000 0
ion V   0.000000000000000   0.500000000000000  -0.050000000000000 0
ion V   0.500000000000000   0.500000000000000  -0.050000000000000 0
ion V   0.250000000000000   0.250000000000000  -0.150000000000000 0
ion V   0.250000000000000   0.750000000000000  -0.150000000000000 0
ion V  -0.250000000000000   0.250000000000000  -0.150000000000000 0
ion V  -0.250000000000000   0.750000000000000  -0.150000000000000 0
ion O   0.251597562406172   0.250184295914082   0.149120732469578 1
ion O   0.251657213346842   0.749759021185063   0.149132196749075 1
ion O  -0.252693152723477   0.249940103538158   0.148929800436407 1
ion O  -0.252625522036845   0.750124133252992   0.148915915926826 1
ion O  -0.001308487883189  -0.000009098971409   0.049821160853808 1
ion O   0.500798977796449   0.000003593064205   0.050505716236220 1
ion O  -0.000730330434528   0.499996084154943   0.050048142298113 1
ion O   0.500744248681229   0.499994550547797   0.050515372454794 1
ion O   0.250000000000000   0.250000000000000  -0.050000000000000 0
ion O   0.250000000000000   0.750000000000000  -0.050000000000000 0
ion O  -0.250000000000000   0.250000000000000  -0.050000000000000 0
ion O  -0.250000000000000   0.750000000000000  -0.050000000000000 0
ion O   0.000000000000000   0.000000000000000  -0.150000000000000 0
ion O   0.500000000000000   0.000000000000000  -0.150000000000000 0
ion O   0.000000000000000   0.500000000000000  -0.150000000000000 0
ion O   0.500000000000000   0.500000000000000  -0.150000000000000 0
ion O  -0.000159094445887  -0.000005251641034   0.229697211736416 1

# Forces in Lattice coordinates:
force V  -0.001640221547568   0.000864088303033   0.887769113786454 1
force V  -0.030871707621317  -0.000079492791444   0.409828047102068 1
force V  -0.027256480653267   0.000221899526361   0.572278733003751 1
force V  -0.034391743015509   0.000015110462625   0.275514867710347 1
force V  -0.017341534985437  -0.011800387141245   0.170523063660855 1
force V  -0.017063004502007   0.011538151313042   0.171776230145737 1
force V   0.000388662455176  -0.000182930610269   0.124041846017814 1
force V  -0.000044726601922  -0.000230488919821   0.120807957941734 1
force V  -0.006091922180675   0.000026539121597  -0.169649828076984 0
force V   0.007533748436383   0.000025156738512  -0.193970390745755 0
force V  -0.007606110300674  -0.000015965289693  -0.206018674925178 0
force V   0.006659514987594  -0.000064632217664  -0.199050387034544 0
force V   0.044613489726539  -0.000717110819005  -0.396135746622364 0
force V   0.044618789408249   0.000713715279500  -0.395961347680819 0
force V   0.036715800687521  -0.000241521035149  -0.745117052761556 0
force V   0.036712331988055   0.000239850810100  -0.745214098693439 0
force O   0.017406111857223  -0.004533181796672  -0.209032499059628 1
force O   0.019630526734134   0.002394189980214  -0.204949190404966 1
force O  -0.065717322804058  -0.014073948659810  -0.315494898050979 1
force O  -0.063468013496891   0.016516590043574  -0.321166646894792 1
force O  -0.050041650559827  -0.000252282576078  -0.004173986155409 1
force O   0.030066339224676   0.000099876749036   0.193695860497034 1
force O  -0.030832755812696  -0.000142393170727   0.076779981358435 1
force O   0.026928482440405  -0.000232466260139   0.192005674618998 1
force O  -0.031581692639626   0.001620738101725  -0.219720479336960 0
force O  -0.031619581453258  -0.001600822508356  -0.220590327722110 0
force O   0.027553135811750   0.000958435922981   0.054329933577928 0
force O   0.027568651710782  -0.000960457469836   0.054387417746463 0
force O   0.100841735383725   0.000001332741972   0.116293496276523 0
force O  -0.053352376140023  -0.000002789208178   0.069799275753351 0
force O   0.100545903527208  -0.000003712573744   0.132406452005542 0
force O  -0.053034705702694   0.000013102585219   0.071982896490105 0
force O  -0.006298755299101  -0.000184425689140   0.819544510010310 1

# Energy components:
   Eewald =     4405.1955587147012920
       EH =     5667.2956348326097213
     Eloc =   -11738.9529193498310633
      Enl =     -217.0276846515728266
   Epulay =       -0.0003062098084384
      Exc =     -198.5930923756497180
       KE =      671.5544855740207595
        U =        0.9884613971718686
-------------------------------------
     Etot =    -1409.5398620683592981
       TS =        0.0017748925107657
-------------------------------------
        F =    -1409.5416369608701643

IonicMinimize: Iter:   2  F: -1409.541636960870164  |grad|_K:  5.590e-03  alpha:  5.298e-01  linmin: -6.644e-01  t[s]:  10188.92

#--- Lowdin population analysis ---
# oxidation-state V +1.179 +1.167 +1.101 +1.136 +0.987 +0.986 +1.023 +1.023 +1.014 +0.986 +1.014 +0.986 +1.108 +1.108 +1.021 +1.021
# magnetic-moments V +1.824 -2.817 +2.994 -2.808 +2.920 +2.920 -2.820 -2.821 -2.844 +2.932 -2.847 +2.933 -2.811 -2.811 +3.049 +3.049
# oxidation-state O -0.935 -0.935 -0.933 -0.933 -0.935 -0.920 -0.923 -0.918 -0.920 -0.920 -0.924 -0.924 -0.961 -0.963 -0.961 -0.963 -0.562
# magnetic-moments O -0.002 -0.001 +0.020 +0.020 +0.009 +0.017 +0.005 +0.017 +0.016 +0.016 +0.004 +0.004 +0.024 +0.005 +0.023 +0.005 -0.302


-------- Electronic minimization -----------
	FillingsUpdate:  mu: +0.207344371  nElectrons: 310.000000  magneticMoment: [ Abs: 45.72307  Tot: -0.00000 ]
ElecMinimize: Iter:   0  F: -1408.254166000998794  |grad|_K:  1.510e-04  alpha:  1.000e+00
	FillingsUpdate:  mu: +0.167571942  nElectrons: 310.000000  magneticMoment: [ Abs: 45.69394  Tot: +0.00000 ]
	SubspaceRotationAdjust: set factor to 0.096
ElecMinimize: Iter:   1  F: -1409.326509729216468  |grad|_K:  4.186e-05  alpha:  2.745e-01  linmin:  2.261e-02  t[s]:  10293.66
	FillingsUpdate:  mu: +0.150389260  nElectrons: 310.000000  magneticMoment: [ Abs: 45.69299  Tot: +0.00000 ]
	SubspaceRotationAdjust: set factor to 0.124
ElecMinimize: Iter:   2  F: -1409.412739939059747  |grad|_K:  1.653e-05  alpha:  2.860e-01  linmin: -3.418e-04  t[s]:  10374.25
	FillingsUpdate:  mu: +0.157467261  nElectrons: 310.000000  magneticMoment: [ Abs: 45.66804  Tot: +0.00000 ]
	SubspaceRotationAdjust: set factor to 0.088
ElecMinimize: Iter:   3  F: -1409.437622784735822  |grad|_K:  1.881e-05  alpha:  5.159e-01  linmin:  2.552e-03  t[s]:  10451.98
	FillingsUpdate:  mu: +0.152675071  nElectrons: 310.000000  magneticMoment: [ Abs: 45.67944  Tot: -0.00000 ]
	SubspaceRotationAdjust: set factor to 0.0746
ElecMinimize: Iter:   4  F: -1409.454131742761547  |grad|_K:  1.688e-05  alpha:  2.808e-01  linmin:  4.750e-04  t[s]:  10529.41
	FillingsUpdate:  mu: +0.146871045  nElectrons: 310.000000  magneticMoment: [ Abs: 45.67088  Tot: -0.00000 ]
	SubspaceRotationAdjust: set factor to 0.0953
ElecMinimize: Iter:   5  F: -1409.482282840217522  |grad|_K:  1.727e-05  alpha:  5.539e-01  linmin: -1.175e-04  t[s]:  10606.17
	FillingsUpdate:  mu: +0.148799128  nElectrons: 310.000000  magneticMoment: [ Abs: 45.66215  Tot: +0.00000 ]
	SubspaceRotationAdjust: set factor to 0.0869
ElecMinimize: Iter:   6  F: -1409.512082381844493  |grad|_K:  1.728e-05  alpha:  5.443e-01  linmin: -3.123e-04  t[s]:  10684.46
	FillingsUpdate:  mu: +0.137908550  nElectrons: 310.000000  magneticMoment: [ Abs: 45.68161  Tot: +0.00000 ]
	SubspaceRotationAdjust: set factor to 0.0597
ElecMinimize: Iter:   7  F: -1409.526444378745737  |grad|_K:  1.280e-05  alpha:  2.781e-01  linmin:  7.641e-04  t[s]:  10761.69
	FillingsUpdate:  mu: +0.143072036  nElectrons: 310.000000  magneticMoment: [ Abs: 45.67942  Tot: +0.00000 ]
	SubspaceRotationAdjust: set factor to 0.0771
ElecMinimize: Iter:   8  F: -1409.537731305224952  |grad|_K:  7.928e-06  alpha:  3.966e-01  linmin: -1.344e-04  t[s]:  10838.54
	FillingsUpdate:  mu: +0.148423050  nElectrons: 310.000000  magneticMoment: [ Abs: 45.67689  Tot: -0.00000 ]
	SubspaceRotationAdjust: set factor to 0.0723
ElecMinimize: Iter:   9  F: -1409.542094675592807  |grad|_K:  6.026e-06  alpha:  3.789e-01  linmin: -1.134e-05  t[s]:  10916.75
	FillingsUpdate:  mu: +0.143006272  nElectrons: 310.000000  magneticMoment: [ Abs: 45.68202  Tot: +0.00000 ]
	SubspaceRotationAdjust: set factor to 0.0609
ElecMinimize: Iter:  10  F: -1409.544419729549645  |grad|_K:  3.866e-06  alpha:  3.520e-01  linmin: -8.795e-05  t[s]:  10992.74
	FillingsUpdate:  mu: +0.144878687  nElectrons: 310.000000  magneticMoment: [ Abs: 45.68383  Tot: +0.00000 ]
	SubspaceRotationAdjust: set factor to 0.0686
ElecMinimize: Iter:  11  F: -1409.545541109967871  |grad|_K:  2.783e-06  alpha:  4.114e-01  linmin:  7.937e-06  t[s]:  11067.76
	FillingsUpdate:  mu: +0.146275010  nElectrons: 310.000000  magneticMoment: [ Abs: 45.68566  Tot: -0.00000 ]
	SubspaceRotationAdjust: set factor to 0.0763
ElecMinimize: Iter:  12  F: -1409.546083945560440  |grad|_K:  2.059e-06  alpha:  3.853e-01  linmin:  2.136e-06  t[s]:  11143.63
	FillingsUpdate:  mu: +0.144984201  nElectrons: 310.000000  magneticMoment: [ Abs: 45.68853  Tot: +0.00000 ]
	SubspaceRotationAdjust: set factor to 0.0789
ElecMinimize: Iter:  13  F: -1409.546416759872500  |grad|_K:  1.595e-06  alpha:  4.313e-01  linmin: -9.376e-06  t[s]:  11221.85
	FillingsUpdate:  mu: +0.146046154  nElectrons: 310.000000  magneticMoment: [ Abs: 45.68966  Tot: -0.00000 ]
	SubspaceRotationAdjust: set factor to 0.0842
ElecMinimize: Iter:  14  F: -1409.546611835941349  |grad|_K:  1.343e-06  alpha:  4.216e-01  linmin: -4.759e-06  t[s]:  11297.80
	FillingsUpdate:  mu: +0.145987305  nElectrons: 310.000000  magneticMoment: [ Abs: 45.69164  Tot: +0.00000 ]
	SubspaceRotationAdjust: set factor to 0.0993
ElecMinimize: Iter:  15  F: -1409.546770394435953  |grad|_K:  1.128e-06  alpha:  4.829e-01  linmin:  3.279e-06  t[s]:  11378.10
	FillingsUpdate:  mu: +0.145823204  nElectrons: 310.000000  magneticMoment: [ Abs: 45.69346  Tot: +0.00000 ]
	SubspaceRotationAdjust: set factor to 0.107
ElecMinimize: Iter:  16  F: -1409.546888495512803  |grad|_K:  1.085e-06  alpha:  5.101e-01  linmin:  2.506e-06  t[s]:  11455.12
	FillingsUpdate:  mu: +0.146912088  nElectrons: 310.000000  magneticMoment: [ Abs: 45.69388  Tot: -0.00000 ]
	SubspaceRotationAdjust: set factor to 0.0957
ElecMinimize: Iter:  17  F: -1409.546967771664185  |grad|_K:  9.231e-07  alpha:  3.707e-01  linmin: -1.480e-06  t[s]:  11534.17
	FillingsUpdate:  mu: +0.146228302  nElectrons: 310.000000  magneticMoment: [ Abs: 45.69498  Tot: +0.00000 ]
	SubspaceRotationAdjust: set factor to 0.0833
ElecMinimize: Iter:  18  F: -1409.547025427965991  |grad|_K:  7.803e-07  alpha:  3.718e-01  linmin: -6.480e-06  t[s]:  11612.92
	FillingsUpdate:  mu: +0.146605524  nElectrons: 310.000000  magneticMoment: [ Abs: 45.69494  Tot: -0.00000 ]
	SubspaceRotationAdjust: set factor to 0.092
ElecMinimize: Iter:  19  F: -1409.547068972848137  |grad|_K:  5.788e-07  alpha:  3.928e-01  linmin: -1.073e-06  t[s]:  11690.49
	FillingsUpdate:  mu: +0.146859708  nElectrons: 310.000000  magneticMoment: [ Abs: 45.69452  Tot: -0.00000 ]
	SubspaceRotationAdjust: set factor to 0.105
ElecMinimize: Iter:  20  F: -1409.547098414434913  |grad|_K:  5.177e-07  alpha:  4.829e-01  linmin: -6.455e-07  t[s]:  11766.86
	FillingsUpdate:  mu: +0.146534885  nElectrons: 310.000000  magneticMoment: [ Abs: 45.69416  Tot: -0.00000 ]
	SubspaceRotationAdjust: set factor to 0.102
ElecMinimize: Iter:  21  F: -1409.547117884758563  |grad|_K:  4.602e-07  alpha:  3.994e-01  linmin: -1.076e-06  t[s]:  11843.24
	FillingsUpdate:  mu: +0.146902758  nElectrons: 310.000000  magneticMoment: [ Abs: 45.69307  Tot: +0.00000 ]
	SubspaceRotationAdjust: set factor to 0.0925
ElecMinimize: Iter:  22  F: -1409.547132813489270  |grad|_K:  4.114e-07  alpha:  3.875e-01  linmin:  1.206e-06  t[s]:  11921.46
	FillingsUpdate:  mu: +0.146609499  nElectrons: 310.000000  magneticMoment: [ Abs: 45.69225  Tot: -0.00000 ]
	SubspaceRotationAdjust: set factor to 0.0961
ElecMinimize: Iter:  23  F: -1409.547144859056516  |grad|_K:  3.310e-07  alpha:  3.912e-01  linmin:  5.109e-07  t[s]:  11995.80
	FillingsUpdate:  mu: +0.146595150  nElectrons: 310.000000  magneticMoment: [ Abs: 45.69116  Tot: +0.00000 ]
	SubspaceRotationAdjust: set factor to 0.11
ElecMinimize: Iter:  24  F: -1409.547154405074480  |grad|_K:  2.689e-07  alpha:  4.789e-01  linmin: -1.445e-07  t[s]:  12075.21
[...]
	SubspaceRotationAdjust: set factor to 0.374
ElecMinimize: Iter:  21  F: -1410.204871985630689  |grad|_K:  8.917e-08  alpha:  3.881e-01  linmin:  2.334e-07  t[s]:  56563.00
	FillingsUpdate:  mu: +0.149560511  nElectrons: 311.000000  magneticMoment: [ Abs: 46.54170  Tot: -0.00000 ]
	SubspaceRotationAdjust: set factor to 0.331
ElecMinimize: Iter:  22  F: -1410.204872430108935  |grad|_K:  7.080e-08  alpha:  3.064e-01  linmin: -1.648e-05  t[s]:  56641.32
	FillingsUpdate:  mu: +0.149555096  nElectrons: 311.000000  magneticMoment: [ Abs: 46.54152  Tot: +0.00000 ]
	SubspaceRotationAdjust: set factor to 0.402
ElecMinimize: Iter:  23  F: -1410.204872860445221  |grad|_K:  5.821e-08  alpha:  4.689e-01  linmin: -1.154e-06  t[s]:  56718.59
	FillingsUpdate:  mu: +0.149590707  nElectrons: 311.000000  magneticMoment: [ Abs: 46.54140  Tot: -0.00000 ]
	SubspaceRotationAdjust: set factor to 0.456
ElecMinimize: Iter:  24  F: -1410.204873155962787  |grad|_K:  5.155e-08  alpha:  4.771e-01  linmin: -5.784e-06  t[s]:  56797.15
ElecMinimize: Converged (|Delta F|<1.000000e-06 for 5 iters).
Setting wave functions to eigenvectors of Hamiltonian

# Ionic positions in lattice coordinates:
ion V  -0.024866274625906   0.003034862043392   0.169655308711592 1
ion V   0.471735378175440   0.000799822455413   0.157497924366623 1
ion V  -0.030186534050432   0.501963237135463   0.157761311259467 1
ion V   0.470282847319472   0.501709970013806   0.156900850176680 1
ion V   0.234612071105714   0.248015878694962   0.055222170842378 1
ion V   0.233089100279076   0.751331387518252   0.054934592705821 1
ion V  -0.262540496181474   0.247607866073815   0.054541274439107 1
ion V  -0.263389582161066   0.750698042077810   0.055113728159747 1
ion V   0.000000000000000   0.000000000000000  -0.050000000000000 0
ion V   0.500000000000000   0.000000000000000  -0.050000000000000 0
ion V   0.000000000000000   0.500000000000000  -0.050000000000000 0
ion V   0.500000000000000   0.500000000000000  -0.050000000000000 0
ion V   0.250000000000000   0.250000000000000  -0.150000000000000 0
ion V   0.250000000000000   0.750000000000000  -0.150000000000000 0
ion V  -0.250000000000000   0.250000000000000  -0.150000000000000 0
ion V  -0.250000000000000   0.750000000000000  -0.150000000000000 0
ion O   0.224832257907684   0.252838052479678   0.155430090505788 1
ion O   0.218838970806130   0.754412057174834   0.154454543014791 1
ion O  -0.274190606395708   0.246699851322349   0.153349341388537 1
ion O  -0.279049544484274   0.750701312305413   0.154199664115286 1
ion O  -0.019575082499450  -0.001543558956199   0.053702781269919 1
ion O   0.489041644843900  -0.000709961970725   0.054703039207513 1
ion O  -0.017042589416039   0.499302966607398   0.054625034059067 1
ion O   0.489185788922751   0.498829016078189   0.054820226412319 1
ion O   0.250000000000000   0.250000000000000  -0.050000000000000 0
ion O   0.250000000000000   0.750000000000000  -0.050000000000000 0
ion O  -0.250000000000000   0.250000000000000  -0.050000000000000 0
ion O  -0.250000000000000   0.750000000000000  -0.050000000000000 0
ion O   0.000000000000000   0.000000000000000  -0.150000000000000 0
ion O   0.500000000000000   0.000000000000000  -0.150000000000000 0
ion O   0.000000000000000   0.500000000000000  -0.150000000000000 0
ion O   0.500000000000000   0.500000000000000  -0.150000000000000 0
ion O  -0.030811914286596   0.001747925815955   0.259165266130205 1
ion H   0.077417220196445   0.088356937997122   0.279159343056635 1

# Forces in Lattice coordinates:
force V  -0.001253455927790  -0.014776005796629   0.036262854310314 1
force V   0.010075118464887  -0.003089916460763   0.027770551431790 1
force V   0.002500727070749   0.001665441488815   0.042705196077371 1
force V   0.011836376186822  -0.002295724652423   0.023962853527547 1
force V  -0.013623007409260   0.001812674531754   0.030681772982329 1
force V  -0.000444390449109   0.002710550129938  -0.004270780439649 1
force V  -0.001177176355215   0.004367669297375   0.021350566091649 1
force V   0.005002999436365  -0.000309578037490  -0.000734716833577 1
force V  -0.035264595987492  -0.003571795237750   0.355471061304254 0
force V  -0.037649287554621  -0.002361790306421   0.288963082405814 0
force V  -0.035782577899022   0.000189964515707   0.308114309561879 0
force V  -0.038700860674160  -0.000386684816502   0.314783138624632 0
force V   0.037126697450452  -0.001268521519528  -0.224992598966792 0
force V   0.037041796807302   0.001174845863568  -0.225470063473375 0
force V   0.035838166604177  -0.001502278800513  -0.242757892288262 0
force V   0.035818683369204   0.001437628106734  -0.240296515432794 0
force O  -0.015247414614012   0.003238400484877   0.001712208719590 1
force O   0.004343950183984  -0.000241318144246   0.030296576002384 1
force O  -0.012458471446248  -0.001267050324232  -0.012373496849975 1
force O  -0.005529204306942   0.003466082873302   0.009656503766680 1
force O  -0.000293222361350   0.009879347204193   0.008734446708425 1
force O   0.002081049352906   0.000827517483025   0.013947645057631 1
force O  -0.003238477552337  -0.002581983056019   0.003813335355358 1
force O   0.001749110292910   0.005622279871247   0.027642822844271 1
force O  -0.025351963253961   0.001003160895084   0.033834820068031 0
force O  -0.023811530500487  -0.004061923476112   0.021312756711074 0
force O  -0.008556260613317   0.002213687426024   0.039466036019189 0
force O  -0.009640939768188  -0.003687589016880   0.051520478305532 0
force O   0.033241299768930   0.000567526977020  -0.152471585667052 0
force O   0.027230675821823   0.000328998003974  -0.134789787511798 0
force O   0.033167032836898  -0.000085389859653  -0.113992450989924 0
force O   0.027502384952430   0.000017997075870  -0.134714631436724 0
force O  -0.045625020336878  -0.034442606919504  -0.125642986143507 1
force H   0.030610951188276   0.027029229016994   0.081142073826552 1

# Energy components:
   Eewald =     4175.9108340735356251
       EH =     5445.3605229145487101
     Eloc =   -11288.4015812247125723
      Enl =     -217.4802005599824781
   Epulay =       -0.0003063872762097
      Exc =     -198.9957704487193837
       KE =      672.4803218151831743
        U =        0.9226499426471857
-------------------------------------
     Etot =    -1410.2035298747764500
       TS =        0.0013432811862239
-------------------------------------
        F =    -1410.2048731559627868

IonicMinimize: Iter:  23  F: -1410.204873155962787  |grad|_K:  1.088e-03  alpha:  1.000e+00  linmin:  2.019e-02  t[s]:  56806.91

#--- Lowdin population analysis ---
# oxidation-state V +1.212 +1.114 +1.107 +1.098 +1.008 +1.007 +1.059 +1.060 +1.002 +0.997 +1.006 +0.997 +1.070 +1.070 +1.068 +1.068
# magnetic-moments V +2.594 -2.928 +2.956 -2.925 +2.932 +2.927 -2.787 -2.788 -2.902 +2.929 -2.905 +2.930 -2.951 -2.951 +2.956 +2.957
# oxidation-state O -0.961 -0.951 -0.948 -0.956 -0.938 -0.928 -0.930 -0.933 -0.927 -0.927 -0.926 -0.927 -0.973 -0.973 -0.972 -0.973 -0.821
# magnetic-moments O -0.014 -0.026 +0.001 +0.016 +0.014 +0.017 +0.006 +0.015 +0.009 +0.009 -0.005 -0.005 +0.009 -0.008 +0.010 -0.008 -0.101
# oxidation-state H +0.378
# magnetic-moments H +0.008


-------- Electronic minimization -----------
	FillingsUpdate:  mu: +0.149616618  nElectrons: 311.000000  magneticMoment: [ Abs: 46.54191  Tot: -0.00000 ]
ElecMinimize: Iter:   0  F: -1410.204712532784697  |grad|_K:  2.123e-06  alpha:  1.000e+00
	FillingsUpdate:  mu: +0.150323580  nElectrons: 311.000000  magneticMoment: [ Abs: 46.54204  Tot: -0.00000 ]
	SubspaceRotationAdjust: set factor to 0.388
ElecMinimize: Iter:   1  F: -1410.204913154206452  |grad|_K:  7.461e-07  alpha:  2.426e-01  linmin: -7.581e-04  t[s]:  56932.83
	FillingsUpdate:  mu: +0.149500711  nElectrons: 311.000000  magneticMoment: [ Abs: 46.54217  Tot: +0.00000 ]
	SubspaceRotationAdjust: set factor to 0.245
ElecMinimize: Iter:   2  F: -1410.204933534811289  |grad|_K:  4.278e-07  alpha:  2.002e-01  linmin: -1.765e-04  t[s]:  57011.45
	FillingsUpdate:  mu: +0.149826457  nElectrons: 311.000000  magneticMoment: [ Abs: 46.54229  Tot: +0.00000 ]
	SubspaceRotationAdjust: set factor to 0.297
ElecMinimize: Iter:   3  F: -1410.204941942983851  |grad|_K:  2.364e-07  alpha:  2.507e-01  linmin:  9.134e-05  t[s]:  57090.02
	FillingsUpdate:  mu: +0.149889181  nElectrons: 311.000000  magneticMoment: [ Abs: 46.54250  Tot: +0.00000 ]
	SubspaceRotationAdjust: set factor to 0.3
ElecMinimize: Iter:   4  F: -1410.204947890287258  |grad|_K:  2.025e-07  alpha:  5.839e-01  linmin:  1.720e-05  t[s]:  57167.90
	FillingsUpdate:  mu: +0.149618502  nElectrons: 311.000000  magneticMoment: [ Abs: 46.54266  Tot: +0.00000 ]
	SubspaceRotationAdjust: set factor to 0.244
ElecMinimize: Iter:   5  F: -1410.204950315263659  |grad|_K:  1.685e-07  alpha:  3.248e-01  linmin:  2.911e-05  t[s]:  57243.38
	FillingsUpdate:  mu: +0.149732870  nElectrons: 311.000000  magneticMoment: [ Abs: 46.54286  Tot: -0.00000 ]
	SubspaceRotationAdjust: set factor to 0.307
ElecMinimize: Iter:   6  F: -1410.204952507194093  |grad|_K:  1.118e-07  alpha:  4.230e-01  linmin:  7.674e-06  t[s]:  57323.31
	FillingsUpdate:  mu: +0.149766345  nElectrons: 311.000000  magneticMoment: [ Abs: 46.54298  Tot: -0.00000 ]
	SubspaceRotationAdjust: set factor to 0.33
ElecMinimize: Iter:   7  F: -1410.204953436605592  |grad|_K:  8.430e-08  alpha:  4.068e-01  linmin:  6.015e-06  t[s]:  57399.89
	FillingsUpdate:  mu: +0.149697952  nElectrons: 311.000000  magneticMoment: [ Abs: 46.54306  Tot: +0.00000 ]
	SubspaceRotationAdjust: set factor to 0.263
ElecMinimize: Iter:   8  F: -1410.204953890554407  |grad|_K:  6.688e-08  alpha:  3.497e-01  linmin: -2.309e-05  t[s]:  57477.27
	FillingsUpdate:  mu: +0.149748439  nElectrons: 311.000000  magneticMoment: [ Abs: 46.54313  Tot: -0.00000 ]
	SubspaceRotationAdjust: set factor to 0.274
ElecMinimize: Iter:   9  F: -1410.204954165372328  |grad|_K:  4.254e-08  alpha:  3.358e-01  linmin: -1.400e-06  t[s]:  57557.16
	FillingsUpdate:  mu: +0.149738737  nElectrons: 311.000000  magneticMoment: [ Abs: 46.54319  Tot: -0.00000 ]
	SubspaceRotationAdjust: set factor to 0.328
ElecMinimize: Iter:  10  F: -1410.204954319975286  |grad|_K:  3.246e-08  alpha:  4.673e-01  linmin: -8.485e-06  t[s]:  57637.94
	FillingsUpdate:  mu: +0.149732222  nElectrons: 311.000000  magneticMoment: [ Abs: 46.54323  Tot: +0.00000 ]
	SubspaceRotationAdjust: set factor to 0.301
ElecMinimize: Iter:  11  F: -1410.204954401887790  |grad|_K:  3.067e-08  alpha:  4.262e-01  linmin:  8.863e-06  t[s]:  57715.20
ElecMinimize: Converged (|Delta F|<1.000000e-06 for 5 iters).
Setting wave functions to eigenvectors of Hamiltonian

# Ionic positions in lattice coordinates:
ion V  -0.024876108272687   0.002733336138356   0.169772509525274 1
ion V   0.471897725778363   0.000794425822818   0.157612360367967 1
ion V  -0.030078232514631   0.501908730101946   0.157916700205796 1
ion V   0.470535529871419   0.501641868905323   0.157011950667837 1
ion V   0.234150397012134   0.248085370264866   0.055301067140846 1
ion V   0.232969662124800   0.751471021640468   0.055092171084497 1
ion V  -0.262659477468095   0.247726800045288   0.054608715633664 1
ion V  -0.263230189914254   0.750759481359386   0.055164676005952 1
ion V   0.000000000000000   0.000000000000000  -0.050000000000000 0
ion V   0.500000000000000   0.000000000000000  -0.050000000000000 0
ion V   0.000000000000000   0.500000000000000  -0.050000000000000 0
ion V   0.500000000000000   0.500000000000000  -0.050000000000000 0
ion V   0.250000000000000   0.250000000000000  -0.150000000000000 0
ion V   0.250000000000000   0.750000000000000  -0.150000000000000 0
ion V  -0.250000000000000   0.250000000000000  -0.150000000000000 0
ion V  -0.250000000000000   0.750000000000000  -0.150000000000000 0
ion O   0.223932713406895   0.252950298659350   0.155590366066191 1
ion O   0.218820828804703   0.754373197716699   0.154604185636281 1
ion O  -0.274639028867437   0.246536244335115   0.153363378185009 1
ion O  -0.279173460292295   0.750776486439855   0.154263668135154 1
ion O  -0.019777456159124  -0.001265342108346   0.053775410230775 1
ion O   0.488801800869672  -0.000756924141419   0.054769362707288 1
ion O  -0.017242812845860   0.499266654649405   0.054723240070238 1
ion O   0.488973633310338   0.499140532169411   0.054944617000048 1
ion O   0.250000000000000   0.250000000000000  -0.050000000000000 0
ion O   0.250000000000000   0.750000000000000  -0.050000000000000 0
ion O  -0.250000000000000   0.250000000000000  -0.050000000000000 0
ion O  -0.250000000000000   0.750000000000000  -0.050000000000000 0
ion O   0.000000000000000   0.000000000000000  -0.150000000000000 0
ion O   0.500000000000000   0.000000000000000  -0.150000000000000 0
ion O   0.000000000000000   0.500000000000000  -0.150000000000000 0
ion O   0.500000000000000   0.500000000000000  -0.150000000000000 0
ion O  -0.031554480811123   0.001444091842116   0.259190654058265 1
ion H   0.077152899177183   0.088282412627700   0.279367486006787 1

# Forces in Lattice coordinates:
force V  -0.004647114787137  -0.009355320065768   0.017813624156399 1
force V   0.001760871067188  -0.000447465938911   0.027082680873273 1
force V  -0.002726009715472   0.002433228118838   0.043493120635575 1
force V   0.003139892135486  -0.002054472042031   0.025683688032520 1
force V  -0.008072991176904   0.002524736698569   0.033726640183687 1
force V  -0.001776179520281   0.001934811789323  -0.009716073593164 1
force V  -0.006614881141660   0.003853581879491   0.018136191201437 1
force V  -0.002084941661345   0.000438623626351   0.005275803206835 1
force V  -0.034553491503739  -0.003437398818040   0.351747831803266 0
force V  -0.039346931639631  -0.002397717011197   0.288985040472168 0
force V  -0.034921611600463   0.000450118419057   0.304834208259976 0
force V  -0.040511527244837   0.000010158916364   0.315940271883077 0
force V   0.036973850426931  -0.001303027752470  -0.228787697921231 0
force V   0.036933134826958   0.001219524435670  -0.228706797759516 0
force V   0.035956322810632  -0.001514428398596  -0.246948298266350 0
force V   0.035947782535195   0.001461979786430  -0.244611028979107 0
force O  -0.000457209892700   0.001431108330542  -0.010695807773322 1
force O   0.005848207307915  -0.000952364194782   0.023555888931109 1
force O  -0.005838727212651   0.001668306913568  -0.001579380837021 1
force O  -0.004163364986586   0.001419646646132   0.009426693784382 1
force O   0.002445557139286   0.008130063414178  -0.000723662071848 1
force O   0.004863214579503   0.002403181973579   0.009293943378553 1
force O  -0.001688197512689  -0.001234339874152  -0.009301431149065 1
force O   0.004029727571985   0.002813828402702   0.014465189745417 1
force O  -0.025609480503421   0.001213722858785   0.034689106565224 0
force O  -0.024275961354386  -0.004099352878891   0.024429962112948 0
force O  -0.008489059428340   0.002494795371992   0.038270339042146 0
force O  -0.009392447415449  -0.003786179646096   0.051242429571243 0
force O   0.033313107880132   0.000495531188848  -0.152400186027278 0
force O   0.027248715984895   0.000336232220472  -0.135506917952828 0
force O   0.033230299335418  -0.000080199358050  -0.113780539851678 0
force O   0.027533875727670  -0.000051615050545  -0.134570482434120 0
force O  -0.006443591228020  -0.005188900010427  -0.022023546858893 1
force H  -0.004792070798168  -0.001499221602178  -0.002681872756390 1

# Energy components:
   Eewald =     4173.1303421153334057
       EH =     5442.6070596250137896
     Eloc =   -11282.8595497890473780
      Enl =     -217.4767817494741848
   Epulay =       -0.0003063872762097
      Exc =     -198.9916832610204835
       KE =      672.4648446835045661
        U =        0.9224609536029429
-------------------------------------
     Etot =    -1410.2036138093637874
       TS =        0.0013405925240376
-------------------------------------
        F =    -1410.2049544018877896

IonicMinimize: Iter:  24  F: -1410.204954401887790  |grad|_K:  3.942e-04  alpha:  1.000e+00  linmin: -6.441e-02  t[s]:  57724.88
IonicMinimize: Converged (|Delta F|<1.000000e-04 for 3 iters).

#--- Lowdin population analysis ---
# oxidation-state V +1.212 +1.116 +1.107 +1.100 +1.009 +1.008 +1.058 +1.058 +1.002 +0.997 +1.006 +0.997 +1.070 +1.070 +1.068 +1.068
# magnetic-moments V +2.594 -2.927 +2.956 -2.924 +2.932 +2.928 -2.788 -2.790 -2.902 +2.929 -2.905 +2.930 -2.951 -2.951 +2.956 +2.957
# oxidation-state O -0.961 -0.951 -0.948 -0.956 -0.938 -0.929 -0.930 -0.934 -0.927 -0.927 -0.927 -0.927 -0.973 -0.973 -0.972 -0.973 -0.819
# magnetic-moments O -0.014 -0.026 +0.001 +0.016 +0.015 +0.017 +0.006 +0.015 +0.009 +0.009 -0.005 -0.005 +0.009 -0.008 +0.010 -0.008 -0.101
# oxidation-state H +0.377
# magnetic-moments H +0.009


Dumping 'OH.ionpos' ... done
Dumping 'OH.lattice' ... done
Dumping 'OH.Ecomponents' ... done
End date and time: Sun May 18 05:34:34 2025  (Duration: 0-16:02:08.17)
Done!
File 'min_progress.txt' has been deleted.
File 'min_details.txt' has been deleted.
File 'O_pos.txt' does not exist, so it cannot be deleted.
File 'OH_pos.txt' does not exist, so it cannot be deleted.
Directory 'runs' has been deleted.
File '/data2/jt577/May_2025/Relax_Mag_litU/pure_VO/runs/wavefunctions/O.wfns' does not exist and cannot be copied.
File '/data2/jt577/May_2025/Relax_Mag_litU/pure_VO/runs/wavefunctions/OH.wfns' does not exist and cannot be copied.
File '/data2/jt577/May_2025/Relax_Mag_litU/pure_VO/runs/calc_20250516-211239/O/O.wfns' does not exist and cannot be copied.
File '/data2/jt577/May_2025/Relax_Mag_litU/pure_VO/runs/calc_20250516-211239/OH/OH.wfns' does not exist and cannot be copied.
File '/data2/jt577/May_2025/Relax_Mag_litU/pure_VO/runs/calc_20250516-211239/O/O.ionpos' has been copied to '/data2/jt577/May_2025/Relax_Mag_litU/pure_VO/runs/positions/O.ionpos'.
File '/data2/jt577/May_2025/Relax_Mag_litU/pure_VO/runs/calc_20250516-211239/O/O.lattice' has been copied to '/data2/jt577/May_2025/Relax_Mag_litU/pure_VO/runs/positions/O.lattice'.
File '/data2/jt577/May_2025/Relax_Mag_litU/pure_VO/runs/calc_20250516-211239/OH/OH.ionpos' has been copied to '/data2/jt577/May_2025/Relax_Mag_litU/pure_VO/runs/positions/OH.ionpos'.
File '/data2/jt577/May_2025/Relax_Mag_litU/pure_VO/runs/calc_20250516-211239/OH/OH.lattice' has been copied to '/data2/jt577/May_2025/Relax_Mag_litU/pure_VO/runs/positions/OH.lattice'.
File '/data2/jt577/May_2025/Relax_Mag_litU/pure_VO/runs/wavefunctions/O.wfns' does not exist and cannot be copied.
File '/data2/jt577/May_2025/Relax_Mag_litU/pure_VO/runs/wavefunctions/OH.wfns' does not exist and cannot be copied.
Traceback (most recent call last):
  File "/data2/jt577/May_2025/Relax_Mag_litU/pure_VO/main.py", line 246, in <module>
    x, _, unique_folder = mn.PBFGS(fun=cost, x0=x, jac=grad_cost, args=(elements, target, eta, q, first_iteration, generic_inputs, lattice, positions_ordered, ads_O_pos, ads_OH_pos), S=num_species, B=quasi_Hessian, folder=unique_folder, progress_file_path=progress_file_path, details_file_path=details_file_path, maxit=maxit, tol=1e-2, callback=callback_func)
  File "/data2/jt577/May_2025/Relax_Mag_litU/pure_VO/modules/minimize.py", line 162, in PBFGS
    unique_folder = bs.perform_calc(x, *args)
  File "/data2/jt577/May_2025/Relax_Mag_litU/pure_VO/modules/bsruncalc.py", line 152, in perform_calc
    energy_surface(w, adsorbate='O', elements=elements, folder=unique_folder, first_iteration=first_iteration, generic_inputs=generic_inputs, lattice=lattice, positions_ordered=positions_ordered, ads_O_pos=ads_O_pos, ads_OH_pos=ads_OH_pos)
  File "/data2/jt577/May_2025/Relax_Mag_litU/pure_VO/modules/bsruncalc.py", line 128, in energy_surface
    write_input_surface(weights, adsorbate, elements, folder, first_iteration, generic_inputs, lattice, positions_ordered, ads_O_pos, ads_OH_pos)
  File "/data2/jt577/May_2025/Relax_Mag_litU/pure_VO/modules/bsruncalc.py", line 82, in write_input_surface
    curr_line = mixed_lines[i]
IndexError: list index out of range
