/var/spool/slurmd/job44097/slurm_script: line 9: module: command not found
/var/spool/slurmd/job44097/slurm_script: line 10: module: command not found

*************** JDFTx 1.7.0  ***************

Start date and time: Tue May  6 14:54:57 2025
Executable /data2/jt577/jdftx_eat_withLibXC/build/jdftx with command-line: -i /data2/jt577/May_2025/Relax_Mag/rel6+1_6/OH/runs/calc_/run.in
Running on hosts (process indices):  node3223 (0-8)
Divided in process groups (process indices):  0 (0)  1 (1)  2 (2)  3 (3)  4 (4)  5 (5)  6 (6)  7 (7)  8 (8)
Resource initialization completed at t[s]:      0.00
Run totals: 9 processes, 36 threads, 0 GPUs


Input parsed successfully to the following command list (including defaults):

add-mix 
add-U 	Ni d 0.22 \
	Co d 0.2 \
	V d 0.12 \
	Cr d 0.16
basis kpoint-dependent
coords-type Lattice
core-overlap-check vector
coulomb-interaction Periodic
davidson-band-ratio 1.1
dump End IonicPositions Lattice Ecomponents
dump-name run.$VAR
elec-cutoff 30
elec-eigen-algo Davidson
elec-ex-corr gga-x-rpbe gga-c-pbe
elec-smearing Fermi 0.001
electronic-minimize  \
	dirUpdateScheme      FletcherReeves \
	linminMethod         DirUpdateRecommended \
	nIterations          1000 \
	history              15 \
	knormThreshold       0 \
	energyDiffThreshold  1e-06 \
	nEnergyDiff          5 \
	alphaTstart          1 \
	alphaTmin            1e-10 \
	updateTestStepSize   yes \
	alphaTreduceFactor   0.1 \
	alphaTincreaseFactor 3 \
	nAlphaAdjustMax      3 \
	wolfeEnergy          0.0001 \
	wolfeGradient        0.9 \
	fdTest               no
exchange-regularization WignerSeitzTruncated
fluid None
fluid-ex-corr (null) lda-PZ
fluid-gummel-loop 10 1.000000e-05
fluid-minimize  \
	dirUpdateScheme      PolakRibiere \
	linminMethod         DirUpdateRecommended \
	nIterations          100 \
	history              15 \
	knormThreshold       0 \
	energyDiffThreshold  0 \
	nEnergyDiff          2 \
	alphaTstart          1 \
	alphaTmin            1e-10 \
	updateTestStepSize   yes \
	alphaTreduceFactor   0.1 \
	alphaTincreaseFactor 3 \
	nAlphaAdjustMax      3 \
	wolfeEnergy          0.0001 \
	wolfeGradient        0.9 \
	fdTest               no
fluid-solvent H2O 55.338 ScalarEOS \
	epsBulk 78.4 \
	pMol 0.92466 \
	epsInf 1.77 \
	Pvap 1.06736e-10 \
	sigmaBulk 4.62e-05 \
	Rvdw 2.61727 \
	Res 1.42 \
	tauNuc 343133 \
	poleEl 15 7 1
forces-output-coords Positions
initial-magnetic-moments  \
	Ni 1 -1 1 1 -1 \
	Co -1 1 \
	V -1 -1 1 -1 1 -1 1 \
	Cr -1 1
initial-state run.$VAR
ion Ni  0.000000000000000   0.000000000000000   0.150000000000000 1
ion Ni  0.500000000000000   0.000000000000000   0.150000000000000 1
ion Ni  0.000000000000000   0.500000000000000   0.150000000000000 1
ion Ni  0.250000000000000   0.750000000000000   0.050000000000000 1
ion Ni -0.250000000000000   0.750000000000000   0.050000000000000 1
ion Co  0.500000000000000   0.500000000000000   0.150000000000000 1
ion Co  0.250000000000000   0.250000000000000   0.050000000000000 1
ion V -0.250000000000000   0.250000000000000   0.050000000000000 1
ion V  0.000000000000000   0.000000000000000  -0.050000000000000 0
ion V  0.500000000000000   0.000000000000000  -0.050000000000000 0
ion V  0.000000000000000   0.500000000000000  -0.050000000000000 0
ion V  0.500000000000000   0.500000000000000  -0.050000000000000 0
ion V  0.250000000000000   0.250000000000000  -0.150000000000000 0
ion V -0.250000000000000   0.750000000000000  -0.150000000000000 0
ion Cr  0.250000000000000   0.750000000000000  -0.150000000000000 0
ion Cr -0.250000000000000   0.250000000000000  -0.150000000000000 0
ion O  0.250000000000000   0.250000000000000   0.150000000000000 1
ion O  0.250000000000000   0.750000000000000   0.150000000000000 1
ion O -0.250000000000000   0.250000000000000   0.150000000000000 1
ion O -0.250000000000000   0.750000000000000   0.150000000000000 1
ion O  0.000000000000000   0.000000000000000   0.050000000000000 1
ion O  0.500000000000000   0.000000000000000   0.050000000000000 1
ion O  0.000000000000000   0.500000000000000   0.050000000000000 1
ion O  0.500000000000000   0.500000000000000   0.050000000000000 1
ion O  0.250000000000000   0.250000000000000  -0.050000000000000 0
ion O  0.250000000000000   0.750000000000000  -0.050000000000000 0
ion O -0.250000000000000   0.250000000000000  -0.050000000000000 0
ion O -0.250000000000000   0.750000000000000  -0.050000000000000 0
ion O  0.000000000000000   0.000000000000000  -0.150000000000000 0
ion O  0.500000000000000   0.000000000000000  -0.150000000000000 0
ion O  0.000000000000000   0.500000000000000  -0.150000000000000 0
ion O  0.500000000000000   0.500000000000000  -0.150000000000000 0
ion O -0.008040138212305  -0.008269777577920   0.235000196603227 1
ion H  0.095742872057713   0.094897636790041   0.252810710255288 1
ion-species SG15/$ID_ONCV_PBE.upf
ion-width 0
ionic-minimize  \
	dirUpdateScheme      L-BFGS \
	linminMethod         DirUpdateRecommended \
	nIterations          1000 \
	history              15 \
	knormThreshold       0.0001 \
	energyDiffThreshold  0.0001 \
	nEnergyDiff          3 \
	alphaTstart          1 \
	alphaTmin            1e-10 \
	updateTestStepSize   yes \
	alphaTreduceFactor   0.1 \
	alphaTincreaseFactor 3 \
	nAlphaAdjustMax      3 \
	wolfeEnergy          0.0001 \
	wolfeGradient        0.9 \
	fdTest               no
kpoint   0.500000000000   0.500000000000   0.500000000000  1.00000000000000
kpoint-folding 3 3 1 
latt-move-scale 1 1 1
latt-scale 1 1 1 
lattice  \
	   8.140000000000001    8.140000000000001    0.000000000000000  \
	   8.140000000000001   -8.140000000000001    0.000000000000000  \
	   0.000000000000000    0.000000000000000   40.700000000000003 
lattice-minimize  \
	dirUpdateScheme      L-BFGS \
	linminMethod         DirUpdateRecommended \
	nIterations          0 \
	history              15 \
	knormThreshold       0 \
	energyDiffThreshold  1e-06 \
	nEnergyDiff          2 \
	alphaTstart          1 \
	alphaTmin            1e-10 \
	updateTestStepSize   yes \
	alphaTreduceFactor   0.1 \
	alphaTincreaseFactor 3 \
	nAlphaAdjustMax      3 \
	wolfeEnergy          0.0001 \
	wolfeGradient        0.9 \
	fdTest               no
lcao-params -1 1e-06 0.001
pcm-variant GLSSA13
spintype z-spin
subspace-rotation-factor 1 yes
symmetries none
symmetry-threshold 0.0001


Applied RMS atom displacement 0 bohrs to make symmetries exact.

---------- Initializing the Grid ----------
R = 
[         8.14         8.14            0  ]
[         8.14        -8.14            0  ]
[            0            0         40.7  ]
unit cell volume = 5393.53
G =
[   0.385945   0.385945         -0  ]
[   0.385945  -0.385945         -0  ]
[         -0         -0   0.154378  ]
Minimum fftbox size, Smin = [  60  60  204  ]
Chosen fftbox size, S = [  60  60  210  ]

---------- Exchange Correlation functional ----------
Initialized LibXC exchange functional 'Hammer, Hansen, and Norskov'
Initialized LibXC correlation functional 'Perdew, Burke & Ernzerhof'

---------- Setting up pseudopotentials ----------
Width of ionic core gaussian charges (only for fluid interactions / plotting) set to 0

Reading pseudopotential file '/data2/jt577/jdftx_eat_withLibXC/build/pseudopotentials/SG15/Ni_ONCV_PBE.upf':
  'Ni' pseudopotential, 'PBE' functional
  Generated using ONCVPSP code by D. R. Hamann
  Author: Martin Schlipf and Francois Gygi  Date: 150915.
  18 valence electrons, 4 orbitals, 6 projectors, 1292 radial grid points, with lMax = 2
  Transforming local potential to a uniform radial grid of dG=0.02 with 1419 points.
  Transforming nonlocal projectors to a uniform radial grid of dG=0.02 with 528 points.
    3S    l: 0   occupation:  2.0   eigenvalue: -4.081355
    3P    l: 1   occupation:  6.0   eigenvalue: -2.623460
    4S    l: 0   occupation:  2.0   eigenvalue: -0.207378
    3D    l: 2   occupation:  8.0   eigenvalue: -0.326118
  Transforming atomic orbitals to a uniform radial grid of dG=0.02 with 528 points.
  WARNING: large normalization error in atomic orbital 1s (integral: 0.000006).
  Core radius for overlap checks: 1.99 bohrs.
  Reading pulay file /data2/jt577/jdftx_eat_withLibXC/build/pseudopotentials/SG15/Ni_ONCV_PBE.pulay ... using dE_dnG = -7.250568e-04 computed for Ecut = 30.

Reading pseudopotential file '/data2/jt577/jdftx_eat_withLibXC/build/pseudopotentials/SG15/Co_ONCV_PBE.upf':
  'Co' pseudopotential, 'PBE' functional
  Generated using ONCVPSP code by D. R. Hamann
  Author: Martin Schlipf and Francois Gygi  Date: 150915.
  17 valence electrons, 4 orbitals, 6 projectors, 1388 radial grid points, with lMax = 2
  Transforming local potential to a uniform radial grid of dG=0.02 with 1419 points.
  Transforming nonlocal projectors to a uniform radial grid of dG=0.02 with 528 points.
    3S    l: 0   occupation:  2.0   eigenvalue: -3.763303
    3P    l: 1   occupation:  6.0   eigenvalue: -2.412101
    4S    l: 0   occupation:  2.0   eigenvalue: -0.201022
    3D    l: 2   occupation:  7.0   eigenvalue: -0.301498
  Transforming atomic orbitals to a uniform radial grid of dG=0.02 with 528 points.
  Core radius for overlap checks: 1.94 bohrs.
  Reading pulay file /data2/jt577/jdftx_eat_withLibXC/build/pseudopotentials/SG15/Co_ONCV_PBE.pulay ... using dE_dnG = -9.787391e-05 computed for Ecut = 30.

Reading pseudopotential file '/data2/jt577/jdftx_eat_withLibXC/build/pseudopotentials/SG15/V_ONCV_PBE.upf':
  'V' pseudopotential, 'PBE' functional
  Generated using ONCVPSP code by D. R. Hamann
  Author: Martin Schlipf and Francois Gygi  Date: 150915.
  13 valence electrons, 4 orbitals, 6 projectors, 1536 radial grid points, with lMax = 2
  Transforming local potential to a uniform radial grid of dG=0.02 with 1419 points.
  Transforming nonlocal projectors to a uniform radial grid of dG=0.02 with 528 points.
    3S    l: 0   occupation:  2.0   eigenvalue: -2.581105
    3P    l: 1   occupation:  6.0   eigenvalue: -1.618486
    4S    l: 0   occupation:  2.0   eigenvalue: -0.172804
    3D    l: 2   occupation:  3.0   eigenvalue: -0.189795
  Transforming atomic orbitals to a uniform radial grid of dG=0.02 with 528 points.
  Core radius for overlap checks: 1.80 bohrs.
  Reading pulay file /data2/jt577/jdftx_eat_withLibXC/build/pseudopotentials/SG15/V_ONCV_PBE.pulay ... using dE_dnG = -1.698632e-04 computed for Ecut = 30.

Reading pseudopotential file '/data2/jt577/jdftx_eat_withLibXC/build/pseudopotentials/SG15/Cr_ONCV_PBE.upf':
  'Cr' pseudopotential, 'PBE' functional
  Generated using ONCVPSP code by D. R. Hamann
  Author: Martin Schlipf and Francois Gygi  Date: 150915.
  14 valence electrons, 4 orbitals, 6 projectors, 1160 radial grid points, with lMax = 2
  Transforming local potential to a uniform radial grid of dG=0.02 with 1419 points.
  Transforming nonlocal projectors to a uniform radial grid of dG=0.02 with 528 points.
    3S    l: 0   occupation:  2.0   eigenvalue: -2.865131
    3P    l: 1   occupation:  6.0   eigenvalue: -1.810600
    4S    l: 0   occupation:  2.0   eigenvalue: -0.180525
    3D    l: 2   occupation:  4.0   eigenvalue: -0.220312
  Transforming atomic orbitals to a uniform radial grid of dG=0.02 with 528 points.
  WARNING: large normalization error in atomic orbital 1s (integral: 0.000001).
  Core radius for overlap checks: 2.10 bohrs.
  Reading pulay file /data2/jt577/jdftx_eat_withLibXC/build/pseudopotentials/SG15/Cr_ONCV_PBE.pulay ... using dE_dnG = -9.817895e-06 computed for Ecut = 30.

Reading pseudopotential file '/data2/jt577/jdftx_eat_withLibXC/build/pseudopotentials/SG15/O_ONCV_PBE.upf':
  'O' pseudopotential, 'PBE' functional
  Generated using ONCVPSP code by D. R. Hamann
  Author: Martin Schlipf and Francois Gygi  Date: 150915.
  6 valence electrons, 2 orbitals, 4 projectors, 936 radial grid points, with lMax = 1
  Transforming local potential to a uniform radial grid of dG=0.02 with 1419 points.
  Transforming nonlocal projectors to a uniform radial grid of dG=0.02 with 528 points.
    2S    l: 0   occupation:  2.0   eigenvalue: -0.880572
    2P    l: 1   occupation:  4.0   eigenvalue: -0.331869
  Transforming atomic orbitals to a uniform radial grid of dG=0.02 with 528 points.
  Core radius for overlap checks: 1.29 bohrs.
  Reading pulay file /data2/jt577/jdftx_eat_withLibXC/build/pseudopotentials/SG15/O_ONCV_PBE.pulay ... using dE_dnG = -8.209514e-03 computed for Ecut = 30.

Reading pseudopotential file '/data2/jt577/jdftx_eat_withLibXC/build/pseudopotentials/SG15/H_ONCV_PBE.upf':
  'H' pseudopotential, 'PBE' functional
  Generated using ONCVPSP code by D. R. Hamann
  Author: Martin Schlipf and Francois Gygi  Date: 150915.
  1 valence electrons, 1 orbitals, 2 projectors, 1166 radial grid points, with lMax = 0
  Transforming local potential to a uniform radial grid of dG=0.02 with 1419 points.
  Transforming nonlocal projectors to a uniform radial grid of dG=0.02 with 528 points.
    1S    l: 0   occupation:  1.0   eigenvalue: -0.238602
  Transforming atomic orbitals to a uniform radial grid of dG=0.02 with 528 points.
  Core radius for overlap checks: 1.01 bohrs.
  Reading pulay file /data2/jt577/jdftx_eat_withLibXC/build/pseudopotentials/SG15/H_ONCV_PBE.pulay ... using dE_dnG = -8.245991e-05 computed for Ecut = 30.

Initialized 6 species with 34 total atoms.

Folded 1 k-points by 3x3x1 to 9 k-points.

---------- Setting up k-points, bands, fillings ----------
No reducable k-points. 
Computing the number of bands and number of electrons
Calculating initial fillings.
nElectrons: 346.000000   nBands: 229   nStates: 18

----- Setting up reduced wavefunction bases (one per k-point) -----
average nbasis = 42312.000 , ideal nbasis = 42330.081

---------- Setting up ewald sum ----------
Optimum gaussian width for ewald sums = 3.887061 bohr.
Real space sum over 605 unit cells with max indices [  5  5  2  ]
Reciprocal space sum over 5915 terms with max indices [  6  6  17  ]

---------- Allocating electronic variables ----------
Initializing wave functions:  linear combination of atomic orbitals
Ni (M=1) pseudo-atom majority spin occupations:   s ( 1 0.5 )  p ( 3 )  d ( 5 )
Ni (M=1) pseudo-atom minority spin occupations:   s ( 1 0 )  p ( 3 )  d ( 4.5 )
Co (M=1) pseudo-atom majority spin occupations:   s ( 1 0 )  p ( 3 )  d ( 5 )
Co (M=1) pseudo-atom minority spin occupations:   s ( 1 0 )  p ( 3 )  d ( 4 )
V (M=1) pseudo-atom majority spin occupations:   s ( 1 0 )  p ( 3 )  d ( 3 )
V (M=1) pseudo-atom minority spin occupations:   s ( 1 0 )  p ( 3 )  d ( 2 )
Cr (M=1) pseudo-atom majority spin occupations:   s ( 1 0 )  p ( 3 )  d ( 3.5 )
Cr (M=1) pseudo-atom minority spin occupations:   s ( 1 0 )  p ( 3 )  d ( 2.5 )
O pseudo-atom occupations:   s ( 2 )  p ( 4 )
H pseudo-atom occupations:   s ( 1 )
	FillingsUpdate:  mu: -0.310771985  nElectrons: 346.000000  magneticMoment: [ Abs: 0.38150  Tot: -0.00000 ]
LCAOMinimize: Iter:   0  F: -1831.5256538221760820  |grad|_K:  1.077e-02  alpha:  1.000e+00
	FillingsUpdate:  mu: +0.097896732  nElectrons: 346.000000  magneticMoment: [ Abs: 0.38775  Tot: +0.00000 ]
LCAOMinimize: Iter:   1  F: -1857.8071019790406808  |grad|_K:  8.728e-03  alpha:  1.095e-01  linmin: -7.704e-02  cgtest: -4.649e-03  t[s]:     89.80
	FillingsUpdate:  mu: +0.112604645  nElectrons: 346.000000  magneticMoment: [ Abs: 0.42719  Tot: -0.00000 ]
LCAOMinimize: Iter:   2  F: -1858.3772139886050354  |grad|_K:  9.831e-03  alpha:  4.373e-03  linmin: -1.046e-01  cgtest:  8.739e-01  t[s]:    121.78
LCAOMinimize: 	Wrong curvature in test step, increasing alphaT to 1.311924e-02.
	FillingsUpdate:  mu: +0.135991315  nElectrons: 346.000000  magneticMoment: [ Abs: 1.66035  Tot: +0.00000 ]
LCAOMinimize: Iter:   3  F: -1860.8276538974678260  |grad|_K:  2.166e-02  alpha: -6.983e-04  linmin: -7.265e-02  cgtest:  4.155e-01  t[s]:    151.18
LCAOMinimize: 	Step increased F by 6.361826e+02, reducing alpha to 4.051652e-02.
LCAOMinimize: 	Step increased F by 1.432391e+02, reducing alpha to 4.051652e-03.
	FillingsUpdate:  mu: +0.927492262  nElectrons: 346.000000  magneticMoment: [ Abs: 3.01569  Tot: -0.00000 ]
LCAOMinimize: Iter:   4  F: -1863.2879903367459065  |grad|_K:  3.151e-02  alpha:  4.052e-03  linmin:  2.282e-02  cgtest: -6.741e-01  t[s]:    229.92
LCAOMinimize: 	Bad step direction: g.d > 0.
LCAOMinimize: 	Undoing step.
LCAOMinimize: 	Step failed: resetting search direction.
	FillingsUpdate:  mu: +0.927492262  nElectrons: 346.000000  magneticMoment: [ Abs: 3.01569  Tot: -0.00000 ]
LCAOMinimize: Iter:   5  F: -1863.2879903367459065  |grad|_K:  3.151e-02  alpha:  0.000e+00
LCAOMinimize: 	Predicted alpha/alphaT>3.000000, increasing alphaT to 1.215496e-02.
	FillingsUpdate:  mu: +0.136893545  nElectrons: 346.000000  magneticMoment: [ Abs: 4.67310  Tot: -0.00000 ]
LCAOMinimize: Iter:   6  F: -1873.0987757913696896  |grad|_K:  1.122e-02  alpha:  2.178e-02  linmin:  1.022e-02  cgtest:  7.605e-02  t[s]:    293.74
LCAOMinimize: 	Wrong curvature in test step, increasing alphaT to 6.534753e-02.
	FillingsUpdate:  mu: +0.040696821  nElectrons: 346.000000  magneticMoment: [ Abs: 5.49048  Tot: +0.00000 ]
LCAOMinimize: Iter:   7  F: -1876.4536712055376029  |grad|_K:  1.288e-02  alpha: -3.399e-02  linmin: -6.078e-02  cgtest:  7.459e-01  t[s]:    323.47
LCAOMinimize: 	Step increased F by 1.791973e+02, reducing alpha to 1.720120e-02.
	FillingsUpdate:  mu: +0.032064521  nElectrons: 346.000000  magneticMoment: [ Abs: 7.42081  Tot: -0.00000 ]
LCAOMinimize: Iter:   8  F: -1880.7360932821875394  |grad|_K:  1.110e-02  alpha:  1.720e-02  linmin: -9.410e-02  cgtest:  8.332e-01  t[s]:    376.92
LCAOMinimize: 	Predicted alpha/alphaT>3.000000, increasing alphaT to 5.160360e-02.
LCAOMinimize: 	Step increased F by 9.271591e+00, reducing alpha to 8.935966e-03.
	FillingsUpdate:  mu: +0.048979860  nElectrons: 346.000000  magneticMoment: [ Abs: 7.66803  Tot: -0.00000 ]
LCAOMinimize: Iter:   9  F: -1881.8223619759726262  |grad|_K:  1.069e-02  alpha:  8.936e-03  linmin: -8.199e-02  cgtest:  9.115e-01  t[s]:    436.95
LCAOMinimize: 	Predicted alpha/alphaT>3.000000, increasing alphaT to 2.680790e-02.
LCAOMinimize: 	Predicted alpha/alphaT>3.000000, increasing alphaT to 8.042370e-02.
	FillingsUpdate:  mu: +0.224379045  nElectrons: 346.000000  magneticMoment: [ Abs: 8.99149  Tot: +0.00000 ]
LCAOMinimize: Iter:  10  F: -1885.2482749098280692  |grad|_K:  9.071e-03  alpha:  3.374e-02  linmin: -9.366e-02  cgtest:  6.263e-01  t[s]:    482.99
	FillingsUpdate:  mu: +0.498066892  nElectrons: 346.000000  magneticMoment: [ Abs: 8.95741  Tot: +0.00000 ]
LCAOMinimize: Iter:  11  F: -1887.3112569881948275  |grad|_K:  1.336e-02  alpha:  7.599e-02  linmin:  3.733e-02  cgtest: -3.008e-01  t[s]:    512.89
	FillingsUpdate:  mu: +0.498278035  nElectrons: 346.000000  magneticMoment: [ Abs: 8.95976  Tot: -0.00000 ]
LCAOMinimize: Iter:  12  F: -1887.3113258268397203  |grad|_K:  1.338e-02  alpha:  5.483e-05  linmin: -2.134e-04  cgtest:  9.999e-01  t[s]:    542.77
LCAOMinimize: 	Predicted alpha/alphaT>3.000000, increasing alphaT to 1.644959e-04.
LCAOMinimize: 	Predicted alpha/alphaT>3.000000, increasing alphaT to 4.934876e-04.
LCAOMinimize: 	Predicted alpha/alphaT>3.000000, increasing alphaT to 1.480463e-03.
	FillingsUpdate:  mu: -0.079155320  nElectrons: 346.000000  magneticMoment: [ Abs: 8.62017  Tot: -0.00000 ]
LCAOMinimize: Iter:  13  F: -1888.4137224030644120  |grad|_K:  2.218e-02  alpha:  5.056e-02  linmin:  3.355e-02  cgtest: -5.050e-01  t[s]:    589.17
	FillingsUpdate:  mu: -0.175122996  nElectrons: 346.000000  magneticMoment: [ Abs: 9.12181  Tot: +0.00000 ]
LCAOMinimize: Iter:  14  F: -1889.1614772209106832  |grad|_K:  1.974e-02  alpha:  3.578e-03  linmin: -2.639e-02  cgtest:  1.021e+00  t[s]:    619.21
LCAOMinimize: Encountered beta<0, resetting CG.
LCAOMinimize: 	Predicted alpha/alphaT>3.000000, increasing alphaT to 1.073341e-02.
	FillingsUpdate:  mu: +0.343325448  nElectrons: 346.000000  magneticMoment: [ Abs: 10.87397  Tot: -0.00000 ]
LCAOMinimize: Iter:  15  F: -1892.0052438621839883  |grad|_K:  1.160e-02  alpha:  1.969e-02  linmin:  9.059e-02  cgtest: -7.326e-01  t[s]:    657.34
	FillingsUpdate:  mu: +0.349868736  nElectrons: 346.000000  magneticMoment: [ Abs: 10.86705  Tot: +0.00000 ]
LCAOMinimize: Iter:  16  F: -1892.0060912196179288  |grad|_K:  1.181e-02  alpha:  3.547e-04  linmin: -1.091e-04  cgtest:  9.966e-01  t[s]:    687.54
LCAOMinimize: 	Predicted alpha/alphaT>3.000000, increasing alphaT to 1.064111e-03.
LCAOMinimize: 	Predicted alpha/alphaT>3.000000, increasing alphaT to 3.192334e-03.
LCAOMinimize: 	Predicted alpha/alphaT>3.000000, increasing alphaT to 9.577003e-03.
	FillingsUpdate:  mu: +0.088776953  nElectrons: 346.000000  magneticMoment: [ Abs: 10.35820  Tot: +0.00000 ]
LCAOMinimize: Iter:  17  F: -1893.1483916938793755  |grad|_K:  6.292e-03  alpha:  1.601e-02  linmin: -9.244e-03  cgtest: -1.963e-01  t[s]:    733.79
LCAOMinimize: 	Predicted alpha/alphaT>3.000000, increasing alphaT to 4.803750e-02.
	FillingsUpdate:  mu: +0.027261480  nElectrons: 346.000000  magneticMoment: [ Abs: 10.76919  Tot: -0.00000 ]
LCAOMinimize: Iter:  18  F: -1894.0072015376754280  |grad|_K:  4.497e-03  alpha:  4.046e-02  linmin:  2.048e-02  cgtest:  1.433e-01  t[s]:    772.32
	FillingsUpdate:  mu: +0.087780285  nElectrons: 346.000000  magneticMoment: [ Abs: 11.48021  Tot: +0.00000 ]
LCAOMinimize: Iter:  19  F: -1894.1787252187791637  |grad|_K:  4.012e-03  alpha:  1.440e-02  linmin: -2.047e-02  cgtest:  5.847e-01  t[s]:    802.22
	FillingsUpdate:  mu: +0.142805338  nElectrons: 346.000000  magneticMoment: [ Abs: 12.25901  Tot: -0.00000 ]
LCAOMinimize: Iter:  20  F: -1894.4091498898712871  |grad|_K:  3.180e-03  alpha:  3.096e-02  linmin:  2.019e-02  cgtest: -2.474e-01  t[s]:    832.23
	FillingsUpdate:  mu: +0.141682192  nElectrons: 346.000000  magneticMoment: [ Abs: 13.24041  Tot: -0.00000 ]
LCAOMinimize: Iter:  21  F: -1894.5454924175060114  |grad|_K:  3.130e-03  alpha:  3.712e-02  linmin: -1.097e-03  cgtest:  5.344e-01  t[s]:    862.36
	FillingsUpdate:  mu: +0.058452170  nElectrons: 346.000000  magneticMoment: [ Abs: 13.53552  Tot: +0.00000 ]
LCAOMinimize: Iter:  22  F: -1894.6750778271803028  |grad|_K:  1.916e-03  alpha:  2.706e-02  linmin:  7.469e-04  cgtest: -7.025e-02  t[s]:    892.24
	FillingsUpdate:  mu: +0.074407988  nElectrons: 346.000000  magneticMoment: [ Abs: 14.04529  Tot: -0.00000 ]
LCAOMinimize: Iter:  23  F: -1894.7138065027647826  |grad|_K:  1.748e-03  alpha:  2.133e-02  linmin:  1.576e-03  cgtest:  5.504e-02  t[s]:    922.05
	FillingsUpdate:  mu: +0.079679022  nElectrons: 346.000000  magneticMoment: [ Abs: 14.86216  Tot: +0.00000 ]
LCAOMinimize: Iter:  24  F: -1894.7632377914001154  |grad|_K:  1.423e-03  alpha:  3.448e-02  linmin: -2.292e-03  cgtest:  3.197e-01  t[s]:    952.19
	FillingsUpdate:  mu: +0.077297694  nElectrons: 346.000000  magneticMoment: [ Abs: 16.18148  Tot: +0.00000 ]
LCAOMinimize: Iter:  25  F: -1894.8264896915761710  |grad|_K:  1.616e-03  alpha:  6.097e-02  linmin: -2.204e-03  cgtest: -2.634e-02  t[s]:    981.91
	FillingsUpdate:  mu: +0.084247636  nElectrons: 346.000000  magneticMoment: [ Abs: 17.26314  Tot: +0.00000 ]
LCAOMinimize: Iter:  26  F: -1894.8559223792774446  |grad|_K:  1.860e-03  alpha:  2.754e-02  linmin:  2.482e-03  cgtest: -3.240e-01  t[s]:   1011.78
	FillingsUpdate:  mu: +0.086093612  nElectrons: 346.000000  magneticMoment: [ Abs: 19.39058  Tot: -0.00000 ]
LCAOMinimize: Iter:  27  F: -1894.9222624148433169  |grad|_K:  1.658e-03  alpha:  4.692e-02  linmin: -1.773e-03  cgtest:  1.077e+00  t[s]:   1042.34
LCAOMinimize: Encountered beta<0, resetting CG.
	FillingsUpdate:  mu: +0.077937643  nElectrons: 346.000000  magneticMoment: [ Abs: 19.29359  Tot: -0.00000 ]
LCAOMinimize: Iter:  28  F: -1894.9460385456231961  |grad|_K:  8.403e-04  alpha:  1.538e-02  linmin: -5.439e-02  cgtest:  3.402e-01  t[s]:   1072.24
LCAOMinimize: 	Predicted alpha/alphaT>3.000000, increasing alphaT to 4.614479e-02.
	FillingsUpdate:  mu: +0.071251082  nElectrons: 346.000000  magneticMoment: [ Abs: 19.64154  Tot: +0.00000 ]
LCAOMinimize: Iter:  29  F: -1894.9784100394465440  |grad|_K:  8.719e-04  alpha:  8.908e-02  linmin: -5.023e-03  cgtest: -1.856e-02  t[s]:   1109.99
	FillingsUpdate:  mu: +0.062904076  nElectrons: 346.000000  magneticMoment: [ Abs: 19.80532  Tot: +0.00000 ]
LCAOMinimize: Iter:  30  F: -1894.9910589840660577  |grad|_K:  8.021e-04  alpha:  3.110e-02  linmin: -1.381e-03  cgtest: -3.944e-02  t[s]:   1140.37
LCAOMinimize: None of the convergence criteria satisfied after 30 iterations.


---- Citations for features of the code used in this run ----

   Software package:
      R. Sundararaman, K. Letchworth-Weaver, K.A. Schwarz, D. Gunceler, Y. Ozhabes and T.A. Arias, 'JDFTx: software for joint density-functional theory', SoftwareX 6, 278 (2017)

   Simplified rotationally-invariant DFT+U:
      S. L. Dudarev et al., Phys. Rev. B 57, 1505 (1998)

   LibXC library of exchange-correlation functions:
      M. A. L. Marques, M. J. T. Oliveira and T. Burnus, Comput. Phys. Commun. 183, 2272 (2012)

   Hammer, Hansen, and Norskov exchange functional:
      B. Hammer, L. B. Hansen, and J. K. Nørskov, Phys. Rev. B 59, 7413 (1999)

   Perdew, Burke & Ernzerhof correlation functional:
      J. P. Perdew, K. Burke, and M. Ernzerhof, Phys. Rev. Lett. 77, 3865 (1996)

   Pseudopotentials:
      M Schlipf and F Gygi, Comput. Phys. Commun. 196, 36 (2015)

   Total energy minimization with Auxiliary Hamiltonian:
      C. Freysoldt, S. Boeck, and J. Neugebauer, Phys. Rev. B 79, 241103(R) (2009)

This list may not be complete. Please suggest additional citations or
report any other bugs at https://github.com/shankar1729/jdftx/issues

Initialization completed successfully at t[s]:   1152.33


-------- Electronic minimization -----------
	FillingsUpdate:  mu: +0.062904093  nElectrons: 346.000000  magneticMoment: [ Abs: 19.80532  Tot: +0.00000 ]
ElecMinimize: Iter:   0  F: -1894.991058984062420  |grad|_K:  9.528e-04  alpha:  1.000e+00
	FillingsUpdate:  mu: +0.598121983  nElectrons: 346.000000  magneticMoment: [ Abs: 23.52873  Tot: -0.00000 ]
	SubspaceRotationAdjust: set factor to 0.987
ElecMinimize: Iter:   1  F: -1938.513590786320037  |grad|_K:  1.385e-03  alpha:  4.703e-01  linmin:  1.773e-02  t[s]:   1258.03
ElecMinimize: 	Step increased F by 3.338740e+01, reducing alpha to 1.015763e-02.
	FillingsUpdate:  mu: +0.380296183  nElectrons: 346.000000  magneticMoment: [ Abs: 22.67611  Tot: -0.00000 ]
	SubspaceRotationAdjust: set factor to 1.38
ElecMinimize: Iter:   2  F: -1941.400866826110587  |grad|_K:  8.014e-04  alpha:  1.016e-02  linmin: -2.907e-03  t[s]:   1377.67
	FillingsUpdate:  mu: +0.424452591  nElectrons: 346.000000  magneticMoment: [ Abs: 21.20796  Tot: -0.00000 ]
	SubspaceRotationAdjust: set factor to 1.23
ElecMinimize: Iter:   3  F: -1945.999119811526270  |grad|_K:  9.746e-04  alpha:  2.869e-02  linmin: -1.605e-03  t[s]:   1450.96
ElecMinimize: 	Predicted alpha/alphaT>3.000000, increasing alphaT to 8.606373e-02.
	FillingsUpdate:  mu: +0.701710178  nElectrons: 346.000000  magneticMoment: [ Abs: 23.65947  Tot: +0.00000 ]
	SubspaceRotationAdjust: set factor to 0.696
ElecMinimize: Iter:   4  F: -1963.687383977892523  |grad|_K:  1.312e-03  alpha:  8.138e-02  linmin: -2.562e-04  t[s]:   1543.79
	FillingsUpdate:  mu: +0.413632765  nElectrons: 346.000000  magneticMoment: [ Abs: 24.29197  Tot: -0.00000 ]
	SubspaceRotationAdjust: set factor to 0.565
ElecMinimize: Iter:   5  F: -1965.624476159087862  |grad|_K:  6.760e-04  alpha:  3.868e-03  linmin: -1.272e-03  t[s]:   1616.62
ElecMinimize: 	Predicted alpha/alphaT>3.000000, increasing alphaT to 1.160448e-02.
	FillingsUpdate:  mu: +0.295410862  nElectrons: 346.000000  magneticMoment: [ Abs: 24.92911  Tot: +0.00000 ]
	SubspaceRotationAdjust: set factor to 0.387
ElecMinimize: Iter:   6  F: -1967.008074995082097  |grad|_K:  7.689e-04  alpha:  1.435e-02  linmin:  1.834e-03  t[s]:   1709.78
	FillingsUpdate:  mu: +0.316474952  nElectrons: 346.000000  magneticMoment: [ Abs: 24.94690  Tot: +0.00000 ]
	SubspaceRotationAdjust: set factor to 0.278
ElecMinimize: Iter:   7  F: -1967.049149652953474  |grad|_K:  7.188e-04  alpha:  1.261e-03  linmin: -8.452e-05  t[s]:   1782.90
ElecMinimize: 	Predicted alpha/alphaT>3.000000, increasing alphaT to 3.782929e-03.
	FillingsUpdate:  mu: +0.418650738  nElectrons: 346.000000  magneticMoment: [ Abs: 24.98062  Tot: -0.00000 ]
	SubspaceRotationAdjust: set factor to 0.182
ElecMinimize: Iter:   8  F: -1967.670218096863437  |grad|_K:  7.669e-04  alpha:  6.983e-03  linmin:  7.732e-05  t[s]:   1877.69
	FillingsUpdate:  mu: +0.439212738  nElectrons: 346.000000  magneticMoment: [ Abs: 25.05943  Tot: +0.00000 ]
	SubspaceRotationAdjust: set factor to 0.125
	SubspaceRotationAdjust: resetting CG because factor has changed by 0.125056
ElecMinimize: 	State modified externally: resetting search direction.
ElecMinimize: Iter:   9  F: -1968.301185675924671  |grad|_K:  5.764e-04  alpha:  6.342e-03
ElecMinimize: 	Predicted alpha/alphaT>3.000000, increasing alphaT to 1.902718e-02.
ElecMinimize: 	Predicted alpha/alphaT>3.000000, increasing alphaT to 5.708153e-02.
	FillingsUpdate:  mu: +0.206536908  nElectrons: 346.000000  magneticMoment: [ Abs: 24.62132  Tot: -0.00000 ]
	SubspaceRotationAdjust: set factor to 0.0526
ElecMinimize: Iter:  10  F: -1973.942095973396817  |grad|_K:  2.439e-04  alpha:  9.599e-02  linmin:  3.128e-03  t[s]:   2102.28
	FillingsUpdate:  mu: +0.177230195  nElectrons: 346.000000  magneticMoment: [ Abs: 24.61223  Tot: +0.00000 ]
	SubspaceRotationAdjust: set factor to 0.0422
ElecMinimize: Iter:  11  F: -1975.907792326185245  |grad|_K:  1.061e-04  alpha:  1.965e-01  linmin:  4.157e-05  t[s]:   2176.86
	FillingsUpdate:  mu: +0.133061316  nElectrons: 346.000000  magneticMoment: [ Abs: 24.65970  Tot: -0.00000 ]
	SubspaceRotationAdjust: set factor to 0.0524
ElecMinimize: Iter:  12  F: -1976.499070887620519  |grad|_K:  5.782e-05  alpha:  3.013e-01  linmin: -3.566e-04  t[s]:   2251.13
	FillingsUpdate:  mu: +0.154739989  nElectrons: 346.000000  magneticMoment: [ Abs: 24.77273  Tot: +0.00000 ]
	SubspaceRotationAdjust: set factor to 0.0551
ElecMinimize: Iter:  13  F: -1976.722596086529848  |grad|_K:  4.763e-05  alpha:  3.752e-01  linmin: -9.428e-04  t[s]:   2324.95
	FillingsUpdate:  mu: +0.129731655  nElectrons: 346.000000  magneticMoment: [ Abs: 25.03784  Tot: +0.00000 ]
	SubspaceRotationAdjust: set factor to 0.0628
ElecMinimize: Iter:  14  F: -1976.881358616553825  |grad|_K:  3.635e-05  alpha:  3.647e-01  linmin: -7.580e-04  t[s]:   2398.08
	FillingsUpdate:  mu: +0.140377105  nElectrons: 346.000000  magneticMoment: [ Abs: 25.37638  Tot: -0.00000 ]
	SubspaceRotationAdjust: set factor to 0.0775
ElecMinimize: Iter:  15  F: -1976.996899971281209  |grad|_K:  3.429e-05  alpha:  4.398e-01  linmin: -3.569e-04  t[s]:   2471.12
	FillingsUpdate:  mu: +0.142913383  nElectrons: 346.000000  magneticMoment: [ Abs: 25.90544  Tot: -0.00000 ]
	SubspaceRotationAdjust: set factor to 0.0943
ElecMinimize: Iter:  16  F: -1977.103600349624230  |grad|_K:  3.486e-05  alpha:  4.650e-01  linmin: -2.524e-04  t[s]:   2544.76
	FillingsUpdate:  mu: +0.129458875  nElectrons: 346.000000  magneticMoment: [ Abs: 26.79135  Tot: +0.00000 ]
	SubspaceRotationAdjust: set factor to 0.106
ElecMinimize: Iter:  17  F: -1977.215042682799549  |grad|_K:  4.302e-05  alpha:  4.636e-01  linmin: -1.920e-04  t[s]:   2617.44
	FillingsUpdate:  mu: +0.156057598  nElectrons: 346.000000  magneticMoment: [ Abs: 28.11730  Tot: +0.00000 ]
	SubspaceRotationAdjust: set factor to 0.106
ElecMinimize: Iter:  18  F: -1977.355985264197216  |grad|_K:  4.992e-05  alpha:  3.894e-01  linmin: -2.029e-04  t[s]:   2690.51
	FillingsUpdate:  mu: +0.149940941  nElectrons: 346.000000  magneticMoment: [ Abs: 29.07503  Tot: -0.00000 ]
	SubspaceRotationAdjust: set factor to 0.0983
ElecMinimize: Iter:  19  F: -1977.474328619228345  |grad|_K:  5.489e-05  alpha:  2.038e-01  linmin: -1.537e-04  t[s]:   2763.38
	FillingsUpdate:  mu: +0.163022286  nElectrons: 346.000000  magneticMoment: [ Abs: 30.02966  Tot: +0.00000 ]
	SubspaceRotationAdjust: set factor to 0.0821
ElecMinimize: Iter:  20  F: -1977.606673803499461  |grad|_K:  7.459e-05  alpha:  2.124e-01  linmin: -2.268e-05  t[s]:   2836.73
	FillingsUpdate:  mu: +0.156383388  nElectrons: 346.000000  magneticMoment: [ Abs: 30.20423  Tot: +0.00000 ]
	SubspaceRotationAdjust: set factor to 0.077
ElecMinimize: Iter:  21  F: -1977.622260983613614  |grad|_K:  7.155e-05  alpha:  2.872e-02  linmin: -3.813e-04  t[s]:   2909.95
ElecMinimize: 	Predicted alpha/alphaT>3.000000, increasing alphaT to 8.616895e-02.
	FillingsUpdate:  mu: +0.124151008  nElectrons: 346.000000  magneticMoment: [ Abs: 30.55062  Tot: -0.00000 ]
	SubspaceRotationAdjust: set factor to 0.0852
ElecMinimize: Iter:  22  F: -1977.742498026854037  |grad|_K:  6.714e-05  alpha:  7.728e-02  linmin:  6.634e-05  t[s]:   3003.75
	FillingsUpdate:  mu: +0.112677559  nElectrons: 346.000000  magneticMoment: [ Abs: 30.66821  Tot: -0.00000 ]
	SubspaceRotationAdjust: set factor to 0.0863
ElecMinimize: Iter:  23  F: -1977.761461288559985  |grad|_K:  6.994e-05  alpha:  2.271e-02  linmin: -1.031e-04  t[s]:   3077.75
	FillingsUpdate:  mu: +0.104349124  nElectrons: 346.000000  magneticMoment: [ Abs: 30.87916  Tot: -0.00000 ]
	SubspaceRotationAdjust: set factor to 0.0792
ElecMinimize: Iter:  24  F: -1977.788320930699228  |grad|_K:  7.195e-05  alpha:  2.699e-02  linmin:  3.666e-05  t[s]:   3151.08
	FillingsUpdate:  mu: +0.103472138  nElectrons: 346.000000  magneticMoment: [ Abs: 31.06086  Tot: +0.00000 ]
	SubspaceRotationAdjust: set factor to 0.0706
ElecMinimize: Iter:  25  F: -1977.802989804503341  |grad|_K:  7.171e-05  alpha:  1.676e-02  linmin: -5.980e-06  t[s]:   3224.11
	FillingsUpdate:  mu: +0.104204751  nElectrons: 346.000000  magneticMoment: [ Abs: 31.25809  Tot: -0.00000 ]
	SubspaceRotationAdjust: set factor to 0.062
ElecMinimize: Iter:  26  F: -1977.817838493814634  |grad|_K:  7.025e-05  alpha:  1.633e-02  linmin:  2.043e-05  t[s]:   3297.58
	FillingsUpdate:  mu: +0.106310914  nElectrons: 346.000000  magneticMoment: [ Abs: 31.41568  Tot: +0.00000 ]
	SubspaceRotationAdjust: set factor to 0.0551
ElecMinimize: Iter:  27  F: -1977.828930326036698  |grad|_K:  6.747e-05  alpha:  1.296e-02  linmin:  1.370e-05  t[s]:   3371.12
	FillingsUpdate:  mu: +0.108560862  nElectrons: 346.000000  magneticMoment: [ Abs: 31.53120  Tot: +0.00000 ]
	SubspaceRotationAdjust: set factor to 0.0504
ElecMinimize: Iter:  28  F: -1977.837050257928922  |grad|_K:  6.392e-05  alpha:  9.959e-03  linmin:  1.631e-05  t[s]:   3444.95
	FillingsUpdate:  mu: +0.110021527  nElectrons: 346.000000  magneticMoment: [ Abs: 31.60309  Tot: -0.00000 ]
	SubspaceRotationAdjust: set factor to 0.0475
ElecMinimize: Iter:  29  F: -1977.842029088579693  |grad|_K:  6.065e-05  alpha:  6.600e-03  linmin: -6.068e-06  t[s]:   3518.68
	FillingsUpdate:  mu: +0.111187203  nElectrons: 346.000000  magneticMoment: [ Abs: 31.65348  Tot: -0.00000 ]
	SubspaceRotationAdjust: set factor to 0.0457
ElecMinimize: Iter:  30  F: -1977.845345450279410  |grad|_K:  5.789e-05  alpha:  4.861e-03  linmin:  1.200e-05  t[s]:   3591.81
	FillingsUpdate:  mu: +0.111805055  nElectrons: 346.000000  magneticMoment: [ Abs: 31.68799  Tot: +0.00000 ]
	SubspaceRotationAdjust: set factor to 0.0445
ElecMinimize: Iter:  31  F: -1977.847415528455258  |grad|_K:  5.571e-05  alpha:  3.441e-03  linmin:  5.477e-06  t[s]:   3664.87
	FillingsUpdate:  mu: +0.111733729  nElectrons: 346.000000  magneticMoment: [ Abs: 31.71481  Tot: +0.00000 ]
	SubspaceRotationAdjust: set factor to 0.0436
ElecMinimize: Iter:  32  F: -1977.848922526207616  |grad|_K:  5.385e-05  alpha:  2.735e-03  linmin:  1.557e-05  t[s]:   3737.57
	FillingsUpdate:  mu: +0.111381869  nElectrons: 346.000000  magneticMoment: [ Abs: 31.73560  Tot: -0.00000 ]
	SubspaceRotationAdjust: set factor to 0.0429
ElecMinimize: Iter:  33  F: -1977.850022918708873  |grad|_K:  5.225e-05  alpha:  2.176e-03  linmin:  1.318e-05  t[s]:   3811.17
	FillingsUpdate:  mu: +0.111043710  nElectrons: 346.000000  magneticMoment: [ Abs: 31.75256  Tot: -0.00000 ]
	SubspaceRotationAdjust: set factor to 0.0423
ElecMinimize: Iter:  34  F: -1977.850891130223545  |grad|_K:  5.080e-05  alpha:  1.829e-03  linmin:  1.515e-05  t[s]:   3886.12
	FillingsUpdate:  mu: +0.110752779  nElectrons: 346.000000  magneticMoment: [ Abs: 31.76649  Tot: -0.00000 ]
	SubspaceRotationAdjust: set factor to 0.0417
ElecMinimize: Iter:  35  F: -1977.851586889316650  |grad|_K:  4.948e-05  alpha:  1.558e-03  linmin:  1.442e-05  t[s]:   3959.41
	FillingsUpdate:  mu: +0.110467855  nElectrons: 346.000000  magneticMoment: [ Abs: 31.77811  Tot: +0.00000 ]
	SubspaceRotationAdjust: set factor to 0.0412
ElecMinimize: Iter:  36  F: -1977.852160409044245  |grad|_K:  4.826e-05  alpha:  1.354e-03  linmin:  1.451e-05  t[s]:   4032.93
	FillingsUpdate:  mu: +0.110167957  nElectrons: 346.000000  magneticMoment: [ Abs: 31.78782  Tot: +0.00000 ]
	SubspaceRotationAdjust: set factor to 0.0406
ElecMinimize: Iter:  37  F: -1977.852639128059764  |grad|_K:  4.714e-05  alpha:  1.189e-03  linmin:  1.435e-05  t[s]:   4106.13
	FillingsUpdate:  mu: +0.109847824  nElectrons: 346.000000  magneticMoment: [ Abs: 31.79592  Tot: +0.00000 ]
	SubspaceRotationAdjust: set factor to 0.0401
ElecMinimize: Iter:  38  F: -1977.853043011359432  |grad|_K:  4.610e-05  alpha:  1.051e-03  linmin:  1.452e-05  t[s]:   4179.71
	FillingsUpdate:  mu: +0.109505147  nElectrons: 346.000000  magneticMoment: [ Abs: 31.80265  Tot: +0.00000 ]
	SubspaceRotationAdjust: set factor to 0.0396
ElecMinimize: Iter:  39  F: -1977.853385104208883  |grad|_K:  4.515e-05  alpha:  9.308e-04  linmin:  1.507e-05  t[s]:   4253.77
	FillingsUpdate:  mu: +0.109140906  nElectrons: 346.000000  magneticMoment: [ Abs: 31.80815  Tot: -0.00000 ]
	SubspaceRotationAdjust: set factor to 0.0391
ElecMinimize: Iter:  40  F: -1977.853673999391503  |grad|_K:  4.429e-05  alpha:  8.189e-04  linmin:  1.619e-05  t[s]:   4327.25
	FillingsUpdate:  mu: +0.108762309  nElectrons: 346.000000  magneticMoment: [ Abs: 31.81255  Tot: -0.00000 ]
	SubspaceRotationAdjust: set factor to 0.0386
ElecMinimize: Iter:  41  F: -1977.853915078885393  |grad|_K:  4.353e-05  alpha:  7.094e-04  linmin:  1.763e-05  t[s]:   4400.99
	FillingsUpdate:  mu: +0.108380933  nElectrons: 346.000000  magneticMoment: [ Abs: 31.81596  Tot: +0.00000 ]
	SubspaceRotationAdjust: set factor to 0.0381
ElecMinimize: Iter:  42  F: -1977.854112701371150  |grad|_K:  4.287e-05  alpha:  6.011e-04  linmin:  1.859e-05  t[s]:   4475.05
	FillingsUpdate:  mu: +0.108007294  nElectrons: 346.000000  magneticMoment: [ Abs: 31.81856  Tot: +0.00000 ]
	SubspaceRotationAdjust: set factor to 0.0375
ElecMinimize: Iter:  43  F: -1977.854272345407708  |grad|_K:  4.230e-05  alpha:  4.998e-04  linmin:  1.869e-05  t[s]:   4549.10
	FillingsUpdate:  mu: +0.107647000  nElectrons: 346.000000  magneticMoment: [ Abs: 31.82052  Tot: +0.00000 ]
	SubspaceRotationAdjust: set factor to 0.037
ElecMinimize: Iter:  44  F: -1977.854400859899215  |grad|_K:  4.183e-05  alpha:  4.129e-04  linmin:  1.842e-05  t[s]:   4622.95
	FillingsUpdate:  mu: +0.107301151  nElectrons: 346.000000  magneticMoment: [ Abs: 31.82204  Tot: -0.00000 ]
	SubspaceRotationAdjust: set factor to 0.0365
ElecMinimize: Iter:  45  F: -1977.854505163414615  |grad|_K:  4.142e-05  alpha:  3.431e-04  linmin:  1.811e-05  t[s]:   4696.42
	FillingsUpdate:  mu: +0.106968331  nElectrons: 346.000000  magneticMoment: [ Abs: 31.82323  Tot: -0.00000 ]
	SubspaceRotationAdjust: set factor to 0.0359
ElecMinimize: Iter:  46  F: -1977.854591208057400  |grad|_K:  4.106e-05  alpha:  2.891e-04  linmin:  1.770e-05  t[s]:   4770.20
	FillingsUpdate:  mu: +0.106646198  nElectrons: 346.000000  magneticMoment: [ Abs: 31.82421  Tot: +0.00000 ]
	SubspaceRotationAdjust: set factor to 0.0354
ElecMinimize: Iter:  47  F: -1977.854663635230281  |grad|_K:  4.075e-05  alpha:  2.480e-04  linmin:  1.709e-05  t[s]:   4845.19
	FillingsUpdate:  mu: +0.106332403  nElectrons: 346.000000  magneticMoment: [ Abs: 31.82505  Tot: +0.00000 ]
	SubspaceRotationAdjust: set factor to 0.0348
ElecMinimize: Iter:  48  F: -1977.854725860726830  |grad|_K:  4.046e-05  alpha:  2.167e-04  linmin:  1.627e-05  t[s]:   4919.06
	FillingsUpdate:  mu: +0.106024953  nElectrons: 346.000000  magneticMoment: [ Abs: 31.82578  Tot: +0.00000 ]
	SubspaceRotationAdjust: set factor to 0.0343
ElecMinimize: Iter:  49  F: -1977.854780342520826  |grad|_K:  4.020e-05  alpha:  1.925e-04  linmin:  1.531e-05  t[s]:   4992.14
	FillingsUpdate:  mu: +0.105722328  nElectrons: 346.000000  magneticMoment: [ Abs: 31.82643  Tot: +0.00000 ]
	SubspaceRotationAdjust: set factor to 0.0337
ElecMinimize: Iter:  50  F: -1977.854828844206395  |grad|_K:  3.996e-05  alpha:  1.736e-04  linmin:  1.429e-05  t[s]:   5065.35
	FillingsUpdate:  mu: +0.105423489  nElectrons: 346.000000  magneticMoment: [ Abs: 31.82703  Tot: -0.00000 ]
	SubspaceRotationAdjust: set factor to 0.0332
ElecMinimize: Iter:  51  F: -1977.854872644822080  |grad|_K:  3.973e-05  alpha:  1.587e-04  linmin:  1.325e-05  t[s]:   5139.94
	FillingsUpdate:  mu: +0.105127842  nElectrons: 346.000000  magneticMoment: [ Abs: 31.82759  Tot: +0.00000 ]
	SubspaceRotationAdjust: set factor to 0.0327
ElecMinimize: Iter:  52  F: -1977.854912690241463  |grad|_K:  3.951e-05  alpha:  1.467e-04  linmin:  1.225e-05  t[s]:   5214.50
	FillingsUpdate:  mu: +0.104835273  nElectrons: 346.000000  magneticMoment: [ Abs: 31.82812  Tot: +0.00000 ]
	SubspaceRotationAdjust: set factor to 0.0321
ElecMinimize: Iter:  53  F: -1977.854949689846762  |grad|_K:  3.930e-05  alpha:  1.369e-04  linmin:  1.130e-05  t[s]:   5288.28
	FillingsUpdate:  mu: +0.104546164  nElectrons: 346.000000  magneticMoment: [ Abs: 31.82863  Tot: +0.00000 ]
	SubspaceRotationAdjust: set factor to 0.0316
ElecMinimize: Iter:  54  F: -1977.854984188611979  |grad|_K:  3.910e-05  alpha:  1.290e-04  linmin:  1.039e-05  t[s]:   5361.96
	FillingsUpdate:  mu: +0.104261448  nElectrons: 346.000000  magneticMoment: [ Abs: 31.82912  Tot: +0.00000 ]
	SubspaceRotationAdjust: set factor to 0.0311
ElecMinimize: Iter:  55  F: -1977.855016611161545  |grad|_K:  3.891e-05  alpha:  1.224e-04  linmin:  9.546e-06  t[s]:   5435.16
	FillingsUpdate:  mu: +0.103982623  nElectrons: 346.000000  magneticMoment: [ Abs: 31.82961  Tot: +0.00000 ]
	SubspaceRotationAdjust: set factor to 0.0306
ElecMinimize: Iter:  56  F: -1977.855047293606049  |grad|_K:  3.871e-05  alpha:  1.169e-04  linmin:  8.747e-06  t[s]:   5509.10
	FillingsUpdate:  mu: +0.103711649  nElectrons: 346.000000  magneticMoment: [ Abs: 31.83009  Tot: -0.00000 ]
	SubspaceRotationAdjust: set factor to 0.03
ElecMinimize: Iter:  57  F: -1977.855076507875083  |grad|_K:  3.853e-05  alpha:  1.123e-04  linmin:  8.023e-06  t[s]:   5581.98
	FillingsUpdate:  mu: +0.103450751  nElectrons: 346.000000  magneticMoment: [ Abs: 31.83056  Tot: -0.00000 ]
	SubspaceRotationAdjust: set factor to 0.0295
ElecMinimize: Iter:  58  F: -1977.855104473916299  |grad|_K:  3.834e-05  alpha:  1.085e-04  linmin:  7.339e-06  t[s]:   5655.07
	FillingsUpdate:  mu: +0.103202028  nElectrons: 346.000000  magneticMoment: [ Abs: 31.83104  Tot: +0.00000 ]
	SubspaceRotationAdjust: set factor to 0.029
ElecMinimize: Iter:  59  F: -1977.855131374773009  |grad|_K:  3.816e-05  alpha:  1.053e-04  linmin:  6.702e-06  t[s]:   5728.47
	FillingsUpdate:  mu: +0.102967058  nElectrons: 346.000000  magneticMoment: [ Abs: 31.83151  Tot: -0.00000 ]
	SubspaceRotationAdjust: set factor to 0.0285
ElecMinimize: Iter:  60  F: -1977.855157363548187  |grad|_K:  3.798e-05  alpha:  1.027e-04  linmin:  6.120e-06  t[s]:   5802.18
	FillingsUpdate:  mu: +0.102746591  nElectrons: 346.000000  magneticMoment: [ Abs: 31.83199  Tot: +0.00000 ]
	SubspaceRotationAdjust: set factor to 0.028
ElecMinimize: Iter:  61  F: -1977.855182567791417  |grad|_K:  3.780e-05  alpha:  1.005e-04  linmin:  5.550e-06  t[s]:   5875.28
	FillingsUpdate:  mu: +0.102540439  nElectrons: 346.000000  magneticMoment: [ Abs: 31.83247  Tot: -0.00000 ]
	SubspaceRotationAdjust: set factor to 0.0275
ElecMinimize: Iter:  62  F: -1977.855207099758900  |grad|_K:  3.762e-05  alpha:  9.870e-05  linmin:  5.040e-06  t[s]:   5948.63
	FillingsUpdate:  mu: +0.102347698  nElectrons: 346.000000  magneticMoment: [ Abs: 31.83295  Tot: +0.00000 ]
	SubspaceRotationAdjust: set factor to 0.0271
ElecMinimize: Iter:  63  F: -1977.855231053066063  |grad|_K:  3.744e-05  alpha:  9.725e-05  linmin:  4.536e-06  t[s]:   6022.01
	FillingsUpdate:  mu: +0.102167077  nElectrons: 346.000000  magneticMoment: [ Abs: 31.83344  Tot: -0.00000 ]
	SubspaceRotationAdjust: set factor to 0.0266
ElecMinimize: Iter:  64  F: -1977.855254510759551  |grad|_K:  3.726e-05  alpha:  9.611e-05  linmin:  4.069e-06  t[s]:   6097.54
	FillingsUpdate:  mu: +0.101997253  nElectrons: 346.000000  magneticMoment: [ Abs: 31.83392  Tot: +0.00000 ]
	SubspaceRotationAdjust: set factor to 0.0261
ElecMinimize: Iter:  65  F: -1977.855277545451372  |grad|_K:  3.708e-05  alpha:  9.525e-05  linmin:  3.638e-06  t[s]:   6170.61
	FillingsUpdate:  mu: +0.101836974  nElectrons: 346.000000  magneticMoment: [ Abs: 31.83442  Tot: +0.00000 ]
	SubspaceRotationAdjust: set factor to 0.0256
ElecMinimize: Iter:  66  F: -1977.855300220972367  |grad|_K:  3.690e-05  alpha:  9.464e-05  linmin:  3.216e-06  t[s]:   6243.91
	FillingsUpdate:  mu: +0.101684858  nElectrons: 346.000000  magneticMoment: [ Abs: 31.83493  Tot: -0.00000 ]
	SubspaceRotationAdjust: set factor to 0.0252
ElecMinimize: Iter:  67  F: -1977.855322594901963  |grad|_K:  3.672e-05  alpha:  9.426e-05  linmin:  2.833e-06  t[s]:   6317.65
	FillingsUpdate:  mu: +0.101538886  nElectrons: 346.000000  magneticMoment: [ Abs: 31.83544  Tot: -0.00000 ]
	SubspaceRotationAdjust: set factor to 0.0247
ElecMinimize: Iter:  68  F: -1977.855344717483376  |grad|_K:  3.654e-05  alpha:  9.409e-05  linmin:  2.438e-06  t[s]:   6390.91
	FillingsUpdate:  mu: +0.101395421  nElectrons: 346.000000  magneticMoment: [ Abs: 31.83596  Tot: +0.00000 ]
	SubspaceRotationAdjust: set factor to 0.0243
ElecMinimize: Iter:  69  F: -1977.855366636999861  |grad|_K:  3.635e-05  alpha:  9.412e-05  linmin:  2.078e-06  t[s]:   6464.11
	FillingsUpdate:  mu: +0.101247574  nElectrons: 346.000000  magneticMoment: [ Abs: 31.83650  Tot: -0.00000 ]
	SubspaceRotationAdjust: set factor to 0.0238
ElecMinimize: Iter:  70  F: -1977.855388394845704  |grad|_K:  3.617e-05  alpha:  9.434e-05  linmin:  1.724e-06  t[s]:   6537.62
	FillingsUpdate:  mu: +0.101083034  nElectrons: 346.000000  magneticMoment: [ Abs: 31.83704  Tot: +0.00000 ]
	SubspaceRotationAdjust: set factor to 0.0234
ElecMinimize: Iter:  71  F: -1977.855410030723306  |grad|_K:  3.598e-05  alpha:  9.474e-05  linmin:  1.400e-06  t[s]:   6612.01
	FillingsUpdate:  mu: +0.100884694  nElectrons: 346.000000  magneticMoment: [ Abs: 31.83759  Tot: +0.00000 ]
	SubspaceRotationAdjust: set factor to 0.0229
ElecMinimize: Iter:  72  F: -1977.855431580238928  |grad|_K:  3.579e-05  alpha:  9.532e-05  linmin:  1.070e-06  t[s]:   6685.96
	FillingsUpdate:  mu: +0.100639272  nElectrons: 346.000000  magneticMoment: [ Abs: 31.83815  Tot: +0.00000 ]
	SubspaceRotationAdjust: set factor to 0.0225
ElecMinimize: Iter:  73  F: -1977.855453078003620  |grad|_K:  3.560e-05  alpha:  9.606e-05  linmin:  7.646e-07  t[s]:   6759.68
	FillingsUpdate:  mu: +0.100348029  nElectrons: 346.000000  magneticMoment: [ Abs: 31.83871  Tot: +0.00000 ]
	SubspaceRotationAdjust: set factor to 0.0221
ElecMinimize: Iter:  74  F: -1977.855474555141200  |grad|_K:  3.541e-05  alpha:  9.697e-05  linmin:  4.489e-07  t[s]:   6833.89
	FillingsUpdate:  mu: +0.100025108  nElectrons: 346.000000  magneticMoment: [ Abs: 31.83929  Tot: +0.00000 ]
	SubspaceRotationAdjust: set factor to 0.0216
ElecMinimize: Iter:  75  F: -1977.855496042481946  |grad|_K:  3.521e-05  alpha:  9.805e-05  linmin:  1.327e-07  t[s]:   6907.38
	FillingsUpdate:  mu: +0.099687417  nElectrons: 346.000000  magneticMoment: [ Abs: 31.83988  Tot: +0.00000 ]
	SubspaceRotationAdjust: set factor to 0.0212
ElecMinimize: Iter:  76  F: -1977.855517568907089  |grad|_K:  3.502e-05  alpha:  9.929e-05  linmin: -1.621e-07  t[s]:   6980.25
	FillingsUpdate:  mu: +0.099348727  nElectrons: 346.000000  magneticMoment: [ Abs: 31.84047  Tot: -0.00000 ]
	SubspaceRotationAdjust: set factor to 0.0208
ElecMinimize: Iter:  77  F: -1977.855539162490913  |grad|_K:  3.482e-05  alpha:  1.007e-04  linmin: -4.281e-07  t[s]:   7053.39
	FillingsUpdate:  mu: +0.099020007  nElectrons: 346.000000  magneticMoment: [ Abs: 31.84108  Tot: -0.00000 ]
	SubspaceRotationAdjust: set factor to 0.0204
ElecMinimize: Iter:  78  F: -1977.855560847664265  |grad|_K:  3.461e-05  alpha:  1.023e-04  linmin: -7.541e-07  t[s]:   7126.62
	FillingsUpdate:  mu: +0.098712237  nElectrons: 346.000000  magneticMoment: [ Abs: 31.84169  Tot: -0.00000 ]
	SubspaceRotationAdjust: set factor to 0.02
ElecMinimize: Iter:  79  F: -1977.855582654854970  |grad|_K:  3.441e-05  alpha:  1.040e-04  linmin: -1.010e-06  t[s]:   7200.02
	FillingsUpdate:  mu: +0.098437209  nElectrons: 346.000000  magneticMoment: [ Abs: 31.84231  Tot: -0.00000 ]
	SubspaceRotationAdjust: set factor to 0.0196
ElecMinimize: Iter:  80  F: -1977.855604605536882  |grad|_K:  3.420e-05  alpha:  1.059e-04  linmin: -1.312e-06  t[s]:   7274.20
	FillingsUpdate:  mu: +0.098198664  nElectrons: 346.000000  magneticMoment: [ Abs: 31.84293  Tot: -0.00000 ]
	SubspaceRotationAdjust: set factor to 0.0192
ElecMinimize: Iter:  81  F: -1977.855626728179232  |grad|_K:  3.399e-05  alpha:  1.080e-04  linmin: -1.589e-06  t[s]:   7347.25
	FillingsUpdate:  mu: +0.097981975  nElectrons: 346.000000  magneticMoment: [ Abs: 31.84357  Tot: +0.00000 ]
	SubspaceRotationAdjust: set factor to 0.0188
ElecMinimize: Iter:  82  F: -1977.855649046293365  |grad|_K:  3.378e-05  alpha:  1.103e-04  linmin: -1.875e-06  t[s]:   7420.47
	FillingsUpdate:  mu: +0.097764079  nElectrons: 346.000000  magneticMoment: [ Abs: 31.84421  Tot: -0.00000 ]
	SubspaceRotationAdjust: set factor to 0.0184
ElecMinimize: Iter:  83  F: -1977.855671586201197  |grad|_K:  3.356e-05  alpha:  1.128e-04  linmin: -2.154e-06  t[s]:   7494.95
	FillingsUpdate:  mu: +0.097528622  nElectrons: 346.000000  magneticMoment: [ Abs: 31.84485  Tot: +0.00000 ]
	SubspaceRotationAdjust: set factor to 0.018
ElecMinimize: Iter:  84  F: -1977.855694372249900  |grad|_K:  3.334e-05  alpha:  1.154e-04  linmin: -2.451e-06  t[s]:   7570.40
	FillingsUpdate:  mu: +0.097270463  nElectrons: 346.000000  magneticMoment: [ Abs: 31.84550  Tot: -0.00000 ]
	SubspaceRotationAdjust: set factor to 0.0176
ElecMinimize: Iter:  85  F: -1977.855717431507856  |grad|_K:  3.312e-05  alpha:  1.183e-04  linmin: -2.743e-06  t[s]:   7644.94
	FillingsUpdate:  mu: +0.096997234  nElectrons: 346.000000  magneticMoment: [ Abs: 31.84615  Tot: +0.00000 ]
	SubspaceRotationAdjust: set factor to 0.0173
ElecMinimize: Iter:  86  F: -1977.855740788947060  |grad|_K:  3.289e-05  alpha:  1.214e-04  linmin: -3.053e-06  t[s]:   7719.51
	FillingsUpdate:  mu: +0.096718861  nElectrons: 346.000000  magneticMoment: [ Abs: 31.84679  Tot: -0.00000 ]
	SubspaceRotationAdjust: set factor to 0.0169
	SubspaceRotationAdjust: resetting CG because factor has changed by 0.135008
ElecMinimize: 	State modified externally: resetting search direction.
ElecMinimize: Iter:  87  F: -1977.855764472245028  |grad|_K:  3.249e-05  alpha:  1.248e-04
ElecMinimize: 	Predicted alpha/alphaT>3.000000, increasing alphaT to 3.743169e-04.
ElecMinimize: 	Predicted alpha/alphaT>3.000000, increasing alphaT to 1.122951e-03.
ElecMinimize: 	Predicted alpha/alphaT>3.000000, increasing alphaT to 3.368852e-03.
	FillingsUpdate:  mu: +0.125706472  nElectrons: 346.000000  magneticMoment: [ Abs: 31.65231  Tot: -0.00000 ]
	SubspaceRotationAdjust: set factor to 0.0208
ElecMinimize: Iter:  88  F: -1978.008124924769618  |grad|_K:  2.367e-05  alpha:  7.770e-01  linmin: -2.917e-02  t[s]:   7946.21
	FillingsUpdate:  mu: +0.126082457  nElectrons: 346.000000  magneticMoment: [ Abs: 31.64023  Tot: +0.00000 ]
	SubspaceRotationAdjust: set factor to 0.0237
ElecMinimize: Iter:  89  F: -1978.064666597400446  |grad|_K:  2.449e-05  alpha:  5.192e-01  linmin: -8.520e-04  t[s]:   8023.53
	FillingsUpdate:  mu: +0.116639653  nElectrons: 346.000000  magneticMoment: [ Abs: 31.66755  Tot: -0.00000 ]
	SubspaceRotationAdjust: set factor to 0.0281
ElecMinimize: Iter:  90  F: -1978.116721387240204  |grad|_K:  2.057e-05  alpha:  4.930e-01  linmin: -1.624e-03  t[s]:   8100.03
	FillingsUpdate:  mu: +0.114734916  nElectrons: 346.000000  magneticMoment: [ Abs: 31.68279  Tot: +0.00000 ]
	SubspaceRotationAdjust: set factor to 0.0331
ElecMinimize: Iter:  91  F: -1978.147664479762170  |grad|_K:  1.989e-05  alpha:  4.127e-01  linmin: -1.137e-03  t[s]:   8174.41
	FillingsUpdate:  mu: +0.124337575  nElectrons: 346.000000  magneticMoment: [ Abs: 31.74150  Tot: +0.00000 ]
	SubspaceRotationAdjust: set factor to 0.038
ElecMinimize: Iter:  92  F: -1978.180425851053997  |grad|_K:  2.056e-05  alpha:  4.645e-01  linmin: -1.129e-03  t[s]:   8247.66
	FillingsUpdate:  mu: +0.124243150  nElectrons: 346.000000  magneticMoment: [ Abs: 31.89323  Tot: -0.00000 ]
	SubspaceRotationAdjust: set factor to 0.0439
ElecMinimize: Iter:  93  F: -1978.215439561720132  |grad|_K:  2.046e-05  alpha:  4.613e-01  linmin: -9.918e-04  t[s]:   8320.58
	FillingsUpdate:  mu: +0.119100698  nElectrons: 346.000000  magneticMoment: [ Abs: 32.10607  Tot: +0.00000 ]
	SubspaceRotationAdjust: set factor to 0.0503
ElecMinimize: Iter:  94  F: -1978.248830054796372  |grad|_K:  1.994e-05  alpha:  4.438e-01  linmin: -8.038e-04  t[s]:   8395.33
	FillingsUpdate:  mu: +0.112953736  nElectrons: 346.000000  magneticMoment: [ Abs: 32.41033  Tot: -0.00000 ]
	SubspaceRotationAdjust: set factor to 0.0555
ElecMinimize: Iter:  95  F: -1978.284383879557708  |grad|_K:  1.990e-05  alpha:  4.959e-01  linmin: -6.882e-04  t[s]:   8470.69
	FillingsUpdate:  mu: +0.115263193  nElectrons: 346.000000  magneticMoment: [ Abs: 32.75225  Tot: -0.00000 ]
	SubspaceRotationAdjust: set factor to 0.0612
ElecMinimize: Iter:  96  F: -1978.317036049546687  |grad|_K:  1.853e-05  alpha:  4.588e-01  linmin: -3.713e-04  t[s]:   8544.63
	FillingsUpdate:  mu: +0.115327298  nElectrons: 346.000000  magneticMoment: [ Abs: 33.05395  Tot: -0.00000 ]
	SubspaceRotationAdjust: set factor to 0.0692
ElecMinimize: Iter:  97  F: -1978.343545953530111  |grad|_K:  1.612e-05  alpha:  4.344e-01  linmin: -2.689e-04  t[s]:   8617.74
	FillingsUpdate:  mu: +0.115988702  nElectrons: 346.000000  magneticMoment: [ Abs: 33.28394  Tot: -0.00000 ]
	SubspaceRotationAdjust: set factor to 0.0791
ElecMinimize: Iter:  98  F: -1978.361987515903593  |grad|_K:  1.409e-05  alpha:  4.011e-01  linmin: -1.367e-04  t[s]:   8692.64
	FillingsUpdate:  mu: +0.117380365  nElectrons: 346.000000  magneticMoment: [ Abs: 33.50853  Tot: +0.00000 ]
	SubspaceRotationAdjust: set factor to 0.0898
ElecMinimize: Iter:  99  F: -1978.376431388485344  |grad|_K:  1.332e-05  alpha:  4.136e-01  linmin: -1.083e-04  t[s]:   8767.67
	FillingsUpdate:  mu: +0.117723576  nElectrons: 346.000000  magneticMoment: [ Abs: 33.74637  Tot: +0.00000 ]
	SubspaceRotationAdjust: set factor to 0.103
ElecMinimize: Iter: 100  F: -1978.389349706372968  |grad|_K:  1.194e-05  alpha:  4.141e-01  linmin: -6.361e-05  t[s]:   8842.48
	FillingsUpdate:  mu: +0.118021718  nElectrons: 346.000000  magneticMoment: [ Abs: 33.98893  Tot: -0.00000 ]
	SubspaceRotationAdjust: set factor to 0.12
ElecMinimize: Iter: 101  F: -1978.400010781985429  |grad|_K:  1.108e-05  alpha:  4.265e-01  linmin: -5.011e-05  t[s]:   8917.50
	FillingsUpdate:  mu: +0.120062516  nElectrons: 346.000000  magneticMoment: [ Abs: 34.26767  Tot: +0.00000 ]
	SubspaceRotationAdjust: set factor to 0.14
	SubspaceRotationAdjust: resetting CG because factor has changed by 8.31597
ElecMinimize: 	State modified externally: resetting search direction.
ElecMinimize: Iter: 102  F: -1978.409729355430727  |grad|_K:  1.054e-05  alpha:  4.513e-01
	FillingsUpdate:  mu: +0.118206499  nElectrons: 346.000000  magneticMoment: [ Abs: 34.32201  Tot: -0.00000 ]
	SubspaceRotationAdjust: set factor to 0.172
ElecMinimize: Iter: 103  F: -1978.415485875614877  |grad|_K:  8.818e-06  alpha:  2.964e-01  linmin: -4.339e-07  t[s]:   9097.88
	FillingsUpdate:  mu: +0.120711391  nElectrons: 346.000000  magneticMoment: [ Abs: 34.51098  Tot: -0.00000 ]
	SubspaceRotationAdjust: set factor to 0.198
ElecMinimize: Iter: 104  F: -1978.422600094010932  |grad|_K:  9.573e-06  alpha:  5.249e-01  linmin:  1.832e-04  t[s]:   9171.64
	FillingsUpdate:  mu: +0.122289114  nElectrons: 346.000000  magneticMoment: [ Abs: 34.74899  Tot: -0.00000 ]
	SubspaceRotationAdjust: set factor to 0.232
ElecMinimize: Iter: 105  F: -1978.429278919044691  |grad|_K:  8.204e-06  alpha:  4.201e-01  linmin: -2.816e-05  t[s]:   9244.89
	FillingsUpdate:  mu: +0.120502480  nElectrons: 346.000000  magneticMoment: [ Abs: 34.94326  Tot: -0.00000 ]
	SubspaceRotationAdjust: set factor to 0.278
ElecMinimize: Iter: 106  F: -1978.434087961472414  |grad|_K:  7.138e-06  alpha:  4.080e-01  linmin: -3.741e-05  t[s]:   9318.85
	FillingsUpdate:  mu: +0.119210985  nElectrons: 346.000000  magneticMoment: [ Abs: 35.11874  Tot: -0.00000 ]
	SubspaceRotationAdjust: set factor to 0.327
ElecMinimize: Iter: 107  F: -1978.437796109130886  |grad|_K:  6.908e-06  alpha:  4.152e-01  linmin: -4.289e-05  t[s]:   9392.63
	FillingsUpdate:  mu: +0.120453312  nElectrons: 346.000000  magneticMoment: [ Abs: 35.38349  Tot: +0.00000 ]
	SubspaceRotationAdjust: set factor to 0.387
ElecMinimize: Iter: 108  F: -1978.441813045883009  |grad|_K:  7.013e-06  alpha:  4.784e-01  linmin: -1.392e-04  t[s]:   9466.42
	FillingsUpdate:  mu: +0.120105323  nElectrons: 346.000000  magneticMoment: [ Abs: 35.74001  Tot: +0.00000 ]
	SubspaceRotationAdjust: set factor to 0.453
ElecMinimize: Iter: 109  F: -1978.445816576951302  |grad|_K:  7.546e-06  alpha:  4.593e-01  linmin: -1.015e-05  t[s]:   9540.10
	FillingsUpdate:  mu: +0.118844138  nElectrons: 346.000000  magneticMoment: [ Abs: 36.16201  Tot: +0.00000 ]
	SubspaceRotationAdjust: set factor to 0.464
ElecMinimize: Iter: 110  F: -1978.450228013347669  |grad|_K:  9.723e-06  alpha:  4.412e-01  linmin:  2.496e-04  t[s]:   9614.44
	FillingsUpdate:  mu: +0.120586383  nElectrons: 346.000000  magneticMoment: [ Abs: 36.56308  Tot: -0.00000 ]
	SubspaceRotationAdjust: set factor to 0.432
ElecMinimize: Iter: 111  F: -1978.453372185210128  |grad|_K:  9.936e-06  alpha:  2.091e-01  linmin:  6.998e-05  t[s]:   9688.56
	FillingsUpdate:  mu: +0.126431649  nElectrons: 346.000000  magneticMoment: [ Abs: 36.94441  Tot: +0.00000 ]
	SubspaceRotationAdjust: set factor to 0.488
ElecMinimize: Iter: 112  F: -1978.457163520254880  |grad|_K:  8.417e-06  alpha:  2.218e-01  linmin:  6.222e-05  t[s]:   9763.46
	FillingsUpdate:  mu: +0.126093321  nElectrons: 346.000000  magneticMoment: [ Abs: 37.30523  Tot: -0.00000 ]
	SubspaceRotationAdjust: set factor to 0.606
ElecMinimize: Iter: 113  F: -1978.460967987562299  |grad|_K:  8.465e-06  alpha:  3.073e-01  linmin: -1.364e-04  t[s]:   9836.88
	FillingsUpdate:  mu: +0.121091573  nElectrons: 346.000000  magneticMoment: [ Abs: 37.56499  Tot: -0.00000 ]
	SubspaceRotationAdjust: set factor to 0.491
ElecMinimize: Iter: 114  F: -1978.463910160480964  |grad|_K:  9.555e-06  alpha:  2.334e-01  linmin: -1.035e-04  t[s]:   9910.43
	FillingsUpdate:  mu: +0.123145822  nElectrons: 346.000000  magneticMoment: [ Abs: 37.68268  Tot: +0.00000 ]
	SubspaceRotationAdjust: set factor to 0.422
ElecMinimize: Iter: 115  F: -1978.466306520103444  |grad|_K:  8.456e-06  alpha:  1.515e-01  linmin:  8.643e-05  t[s]:   9983.86
	FillingsUpdate:  mu: +0.122739614  nElectrons: 346.000000  magneticMoment: [ Abs: 37.90427  Tot: -0.00000 ]
	SubspaceRotationAdjust: set factor to 0.472
ElecMinimize: Iter: 116  F: -1978.469538047448623  |grad|_K:  7.525e-06  alpha:  2.624e-01  linmin:  4.909e-05  t[s]:  10058.05
	FillingsUpdate:  mu: +0.125856361  nElectrons: 346.000000  magneticMoment: [ Abs: 38.14950  Tot: +0.00000 ]
	SubspaceRotationAdjust: set factor to 0.555
ElecMinimize: Iter: 117  F: -1978.473492237579421  |grad|_K:  8.297e-06  alpha:  4.041e-01  linmin:  4.556e-05  t[s]:  10133.04
	FillingsUpdate:  mu: +0.126618722  nElectrons: 346.000000  magneticMoment: [ Abs: 38.27309  Tot: -0.00000 ]
	SubspaceRotationAdjust: set factor to 0.495
ElecMinimize: Iter: 118  F: -1978.476666459369881  |grad|_K:  9.107e-06  alpha:  2.450e-01  linmin: -1.203e-04  t[s]:  10207.30
	FillingsUpdate:  mu: +0.127028717  nElectrons: 346.000000  magneticMoment: [ Abs: 38.40527  Tot: -0.00000 ]
	SubspaceRotationAdjust: set factor to 0.529
ElecMinimize: Iter: 119  F: -1978.479329112795995  |grad|_K:  8.842e-06  alpha:  1.728e-01  linmin:  4.837e-06  t[s]:  10280.97
	FillingsUpdate:  mu: +0.126335106  nElectrons: 346.000000  magneticMoment: [ Abs: 38.42804  Tot: -0.00000 ]
	SubspaceRotationAdjust: set factor to 0.445
ElecMinimize: Iter: 120  F: -1978.481618807503764  |grad|_K:  1.005e-05  alpha:  1.661e-01  linmin:  4.284e-04  t[s]:  10354.30
	FillingsUpdate:  mu: +0.127178797  nElectrons: 346.000000  magneticMoment: [ Abs: 38.42550  Tot: +0.00000 ]
	SubspaceRotationAdjust: set factor to 0.402
ElecMinimize: Iter: 121  F: -1978.482089410906838  |grad|_K:  9.381e-06  alpha:  1.680e-02  linmin: -3.034e-03  t[s]:  10429.05
ElecMinimize: 	Predicted alpha/alphaT>3.000000, increasing alphaT to 5.039751e-02.
	FillingsUpdate:  mu: +0.128908248  nElectrons: 346.000000  magneticMoment: [ Abs: 38.36485  Tot: +0.00000 ]
	SubspaceRotationAdjust: set factor to 0.289
ElecMinimize: Iter: 122  F: -1978.484045123996793  |grad|_K:  1.002e-05  alpha:  8.696e-02  linmin:  3.428e-03  t[s]:  10523.76
	FillingsUpdate:  mu: +0.129146934  nElectrons: 346.000000  magneticMoment: [ Abs: 38.35910  Tot: -0.00000 ]
	SubspaceRotationAdjust: set factor to 0.228
ElecMinimize: Iter: 123  F: -1978.484084834802843  |grad|_K:  9.174e-06  alpha:  4.419e-03  linmin: -8.516e-04  t[s]:  10597.78
ElecMinimize: 	Predicted alpha/alphaT>3.000000, increasing alphaT to 1.325820e-02.
	FillingsUpdate:  mu: +0.129642044  nElectrons: 346.000000  magneticMoment: [ Abs: 38.32916  Tot: +0.00000 ]
	SubspaceRotationAdjust: set factor to 0.173
ElecMinimize: Iter: 124  F: -1978.484586787290937  |grad|_K:  9.003e-06  alpha:  3.002e-02  linmin:  2.429e-04  t[s]:  10691.78
	FillingsUpdate:  mu: +0.129203535  nElectrons: 346.000000  magneticMoment: [ Abs: 38.30124  Tot: +0.00000 ]
	SubspaceRotationAdjust: set factor to 0.129
ElecMinimize: Iter: 125  F: -1978.484949553712568  |grad|_K:  8.556e-06  alpha:  2.667e-02  linmin: -1.523e-05  t[s]:  10765.19
	FillingsUpdate:  mu: +0.127977392  nElectrons: 346.000000  magneticMoment: [ Abs: 38.27250  Tot: -0.00000 ]
	SubspaceRotationAdjust: set factor to 0.098
ElecMinimize: Iter: 126  F: -1978.485393201400711  |grad|_K:  7.804e-06  alpha:  3.438e-02  linmin: -1.135e-04  t[s]:  10838.84
	FillingsUpdate:  mu: +0.127798551  nElectrons: 346.000000  magneticMoment: [ Abs: 38.24941  Tot: -0.00000 ]
	SubspaceRotationAdjust: set factor to 0.0819
ElecMinimize: Iter: 127  F: -1978.485876618439079  |grad|_K:  6.845e-06  alpha:  4.436e-02  linmin: -1.416e-04  t[s]:  10912.57
	FillingsUpdate:  mu: +0.125982033  nElectrons: 346.000000  magneticMoment: [ Abs: 38.23588  Tot: +0.00000 ]
	SubspaceRotationAdjust: set factor to 0.0856
ElecMinimize: Iter: 128  F: -1978.486347485310716  |grad|_K:  6.080e-06  alpha:  5.619e-02  linmin: -3.466e-05  t[s]:  10985.88
	FillingsUpdate:  mu: +0.122641561  nElectrons: 346.000000  magneticMoment: [ Abs: 38.23137  Tot: +0.00000 ]
	SubspaceRotationAdjust: set factor to 0.107
ElecMinimize: Iter: 129  F: -1978.486729916091463  |grad|_K:  5.737e-06  alpha:  5.903e-02  linmin:  2.369e-04  t[s]:  11059.42
	FillingsUpdate:  mu: +0.120850409  nElectrons: 346.000000  magneticMoment: [ Abs: 38.23215  Tot: -0.00000 ]
	SubspaceRotationAdjust: set factor to 0.125
ElecMinimize: Iter: 130  F: -1978.486999712380339  |grad|_K:  5.792e-06  alpha:  4.775e-02  linmin:  1.118e-04  t[s]:  11133.71
	FillingsUpdate:  mu: +0.119892203  nElectrons: 346.000000  magneticMoment: [ Abs: 38.23493  Tot: +0.00000 ]
	SubspaceRotationAdjust: set factor to 0.127
ElecMinimize: Iter: 131  F: -1978.487240085463327  |grad|_K:  6.030e-06  alpha:  4.136e-02  linmin:  8.738e-05  t[s]:  11207.14
	FillingsUpdate:  mu: +0.120113051  nElectrons: 346.000000  magneticMoment: [ Abs: 38.23693  Tot: +0.00000 ]
	SubspaceRotationAdjust: set factor to 0.122
ElecMinimize: Iter: 132  F: -1978.487485571977459  |grad|_K:  6.241e-06  alpha:  3.903e-02  linmin:  3.369e-05  t[s]:  11281.88
	FillingsUpdate:  mu: +0.121687582  nElectrons: 346.000000  magneticMoment: [ Abs: 38.23542  Tot: +0.00000 ]
	SubspaceRotationAdjust: set factor to 0.124
ElecMinimize: Iter: 133  F: -1978.487754626113883  |grad|_K:  6.287e-06  alpha:  3.969e-02  linmin:  2.204e-06  t[s]:  11357.30
	FillingsUpdate:  mu: +0.124422429  nElectrons: 346.000000  magneticMoment: [ Abs: 38.22923  Tot: -0.00000 ]
	SubspaceRotationAdjust: set factor to 0.148
ElecMinimize: Iter: 134  F: -1978.488033997069351  |grad|_K:  6.230e-06  alpha:  4.043e-02  linmin:  6.086e-07  t[s]:  11432.19
	FillingsUpdate:  mu: +0.126593327  nElectrons: 346.000000  magneticMoment: [ Abs: 38.21963  Tot: -0.00000 ]
	SubspaceRotationAdjust: set factor to 0.204
ElecMinimize: Iter: 135  F: -1978.488301133030973  |grad|_K:  6.205e-06  alpha:  3.937e-02  linmin: -6.977e-06  t[s]:  11507.50
	FillingsUpdate:  mu: +0.126823492  nElectrons: 346.000000  magneticMoment: [ Abs: 38.20922  Tot: -0.00000 ]
	SubspaceRotationAdjust: set factor to 0.264
ElecMinimize: Iter: 136  F: -1978.488549367882115  |grad|_K:  6.266e-06  alpha:  3.685e-02  linmin: -2.050e-05  t[s]:  11583.55
	FillingsUpdate:  mu: +0.127101124  nElectrons: 346.000000  magneticMoment: [ Abs: 38.20127  Tot: +0.00000 ]
	SubspaceRotationAdjust: set factor to 0.337
ElecMinimize: Iter: 137  F: -1978.488787797500436  |grad|_K:  6.410e-06  alpha:  3.462e-02  linmin: -3.080e-05  t[s]:  11659.41
	FillingsUpdate:  mu: +0.127861398  nElectrons: 346.000000  magneticMoment: [ Abs: 38.19973  Tot: +0.00000 ]
	SubspaceRotationAdjust: set factor to 0.42
ElecMinimize: Iter: 138  F: -1978.489035251813903  |grad|_K:  6.818e-06  alpha:  3.423e-02  linmin: -3.562e-05  t[s]:  11736.31
	FillingsUpdate:  mu: +0.128362513  nElectrons: 346.000000  magneticMoment: [ Abs: 38.20857  Tot: -0.00000 ]
	SubspaceRotationAdjust: set factor to 0.464
ElecMinimize: Iter: 139  F: -1978.489305213588977  |grad|_K:  7.336e-06  alpha:  3.298e-02  linmin: -2.780e-05  t[s]:  11812.88
	FillingsUpdate:  mu: +0.129231918  nElectrons: 346.000000  magneticMoment: [ Abs: 38.22819  Tot: +0.00000 ]
	SubspaceRotationAdjust: set factor to 0.553
ElecMinimize: Iter: 140  F: -1978.489589596427550  |grad|_K:  7.488e-06  alpha:  3.006e-02  linmin: -1.671e-05  t[s]:  11888.54
	FillingsUpdate:  mu: +0.129629635  nElectrons: 346.000000  magneticMoment: [ Abs: 38.25303  Tot: -0.00000 ]
	SubspaceRotationAdjust: set factor to 0.752
ElecMinimize: Iter: 141  F: -1978.489867063666907  |grad|_K:  7.544e-06  alpha:  2.819e-02  linmin: -1.210e-05  t[s]:  11963.63
	FillingsUpdate:  mu: +0.129522853  nElectrons: 346.000000  magneticMoment: [ Abs: 38.27799  Tot: -0.00000 ]
	SubspaceRotationAdjust: set factor to 0.961
ElecMinimize: Iter: 142  F: -1978.490134471176589  |grad|_K:  7.937e-06  alpha:  2.679e-02  linmin: -1.697e-05  t[s]:  12038.63
	FillingsUpdate:  mu: +0.128817015  nElectrons: 346.000000  magneticMoment: [ Abs: 38.30126  Tot: -0.00000 ]
	SubspaceRotationAdjust: set factor to 1.08
	SubspaceRotationAdjust: resetting CG because factor has changed by 7.68043
ElecMinimize: 	State modified externally: resetting search direction.
ElecMinimize: Iter: 143  F: -1978.490422380293239  |grad|_K:  8.999e-06  alpha:  2.601e-02
ElecMinimize: 	Predicted alpha/alphaT>3.000000, increasing alphaT to 7.804381e-02.
	FillingsUpdate:  mu: +0.126059557  nElectrons: 346.000000  magneticMoment: [ Abs: 38.26287  Tot: -0.00000 ]
	SubspaceRotationAdjust: set factor to 0.679
ElecMinimize: Iter: 144  F: -1978.492604527935327  |grad|_K:  9.304e-06  alpha:  1.460e-01  linmin: -2.435e-03  t[s]:  12240.56
	FillingsUpdate:  mu: +0.125578222  nElectrons: 346.000000  magneticMoment: [ Abs: 38.34765  Tot: -0.00000 ]
	SubspaceRotationAdjust: set factor to 0.551
ElecMinimize: Iter: 145  F: -1978.494683668504877  |grad|_K:  5.671e-06  alpha:  1.263e-01  linmin: -7.198e-04  t[s]:  12314.22
	FillingsUpdate:  mu: +0.124036275  nElectrons: 346.000000  magneticMoment: [ Abs: 38.38459  Tot: +0.00000 ]
	SubspaceRotationAdjust: set factor to 0.346
ElecMinimize: Iter: 146  F: -1978.495810480617365  |grad|_K:  6.201e-06  alpha:  1.949e-01  linmin:  1.963e-04  t[s]:  12387.70
	FillingsUpdate:  mu: +0.128964927  nElectrons: 346.000000  magneticMoment: [ Abs: 38.34687  Tot: -0.00000 ]
	SubspaceRotationAdjust: set factor to 0.276
ElecMinimize: Iter: 147  F: -1978.497031940570650  |grad|_K:  3.875e-06  alpha:  1.837e-01  linmin:  2.433e-04  t[s]:  12461.47
	FillingsUpdate:  mu: +0.127957844  nElectrons: 346.000000  magneticMoment: [ Abs: 38.35968  Tot: -0.00000 ]
	SubspaceRotationAdjust: set factor to 0.372
ElecMinimize: Iter: 148  F: -1978.497867619097406  |grad|_K:  2.733e-06  alpha:  3.191e-01  linmin: -4.848e-04  t[s]:  12534.62
	FillingsUpdate:  mu: +0.128044374  nElectrons: 346.000000  magneticMoment: [ Abs: 38.38292  Tot: +0.00000 ]
	SubspaceRotationAdjust: set factor to 0.357
ElecMinimize: Iter: 149  F: -1978.498358674868769  |grad|_K:  2.339e-06  alpha:  3.608e-01  linmin: -3.702e-04  t[s]:  12608.72
	FillingsUpdate:  mu: +0.128317355  nElectrons: 346.000000  magneticMoment: [ Abs: 38.37423  Tot: -0.00000 ]
	SubspaceRotationAdjust: set factor to 0.272
ElecMinimize: Iter: 150  F: -1978.498569512945778  |grad|_K:  2.060e-06  alpha:  2.123e-01  linmin: -8.666e-05  t[s]:  12683.88
	FillingsUpdate:  mu: +0.128230862  nElectrons: 346.000000  magneticMoment: [ Abs: 38.38004  Tot: +0.00000 ]
	SubspaceRotationAdjust: set factor to 0.297
ElecMinimize: Iter: 151  F: -1978.498797246091726  |grad|_K:  1.564e-06  alpha:  3.041e-01  linmin: -2.733e-04  t[s]:  12758.70
	FillingsUpdate:  mu: +0.127854030  nElectrons: 346.000000  magneticMoment: [ Abs: 38.37862  Tot: +0.00000 ]
	SubspaceRotationAdjust: set factor to 0.348
ElecMinimize: Iter: 152  F: -1978.498978185431497  |grad|_K:  1.568e-06  alpha:  4.158e-01  linmin: -2.261e-04  t[s]:  12834.49
	FillingsUpdate:  mu: +0.127712400  nElectrons: 346.000000  magneticMoment: [ Abs: 38.36263  Tot: -0.00000 ]
	SubspaceRotationAdjust: set factor to 0.319
ElecMinimize: Iter: 153  F: -1978.499122441456166  |grad|_K:  1.691e-06  alpha:  3.321e-01  linmin:  1.100e-05  t[s]:  12908.83
	FillingsUpdate:  mu: +0.127972707  nElectrons: 346.000000  magneticMoment: [ Abs: 38.35542  Tot: -0.00000 ]
	SubspaceRotationAdjust: set factor to 0.276
ElecMinimize: Iter: 154  F: -1978.499275209520420  |grad|_K:  1.617e-06  alpha:  3.063e-01  linmin: -1.366e-04  t[s]:  12982.21
	FillingsUpdate:  mu: +0.128171321  nElectrons: 346.000000  magneticMoment: [ Abs: 38.32712  Tot: +0.00000 ]
	SubspaceRotationAdjust: set factor to 0.295
ElecMinimize: Iter: 155  F: -1978.499446694432436  |grad|_K:  1.586e-06  alpha:  3.728e-01  linmin:  2.044e-04  t[s]:  13056.30
	FillingsUpdate:  mu: +0.127921163  nElectrons: 346.000000  magneticMoment: [ Abs: 38.29572  Tot: -0.00000 ]
	SubspaceRotationAdjust: set factor to 0.335
ElecMinimize: Iter: 156  F: -1978.499621815926503  |grad|_K:  1.635e-06  alpha:  4.077e-01  linmin:  2.454e-04  t[s]:  13130.42
	FillingsUpdate:  mu: +0.127547779  nElectrons: 346.000000  magneticMoment: [ Abs: 38.27020  Tot: -0.00000 ]
	SubspaceRotationAdjust: set factor to 0.354
ElecMinimize: Iter: 157  F: -1978.499801029164018  |grad|_K:  1.650e-06  alpha:  3.939e-01  linmin: -3.641e-04  t[s]:  13204.68
	FillingsUpdate:  mu: +0.126739064  nElectrons: 346.000000  magneticMoment: [ Abs: 38.23312  Tot: +0.00000 ]
	SubspaceRotationAdjust: set factor to 0.378
ElecMinimize: Iter: 158  F: -1978.499979156723612  |grad|_K:  1.662e-06  alpha:  3.608e-01  linmin: -2.802e-05  t[s]:  13279.31
	FillingsUpdate:  mu: +0.126283202  nElectrons: 346.000000  magneticMoment: [ Abs: 38.19442  Tot: +0.00000 ]
	SubspaceRotationAdjust: set factor to 0.451
ElecMinimize: Iter: 159  F: -1978.500180580057304  |grad|_K:  1.688e-06  alpha:  4.148e-01  linmin: -8.287e-05  t[s]:  13353.11
	FillingsUpdate:  mu: +0.126134178  nElectrons: 346.000000  magneticMoment: [ Abs: 38.15968  Tot: -0.00000 ]
	SubspaceRotationAdjust: set factor to 0.504
ElecMinimize: Iter: 160  F: -1978.500389011131801  |grad|_K:  1.892e-06  alpha:  4.143e-01  linmin:  8.922e-05  t[s]:  13427.19
	FillingsUpdate:  mu: +0.125645120  nElectrons: 346.000000  magneticMoment: [ Abs: 38.11137  Tot: +0.00000 ]
	SubspaceRotationAdjust: set factor to 0.537
ElecMinimize: Iter: 161  F: -1978.500618798128016  |grad|_K:  2.089e-06  alpha:  3.715e-01  linmin: -5.190e-05  t[s]:  13501.18
	FillingsUpdate:  mu: +0.125547347  nElectrons: 346.000000  magneticMoment: [ Abs: 38.07684  Tot: +0.00000 ]
	SubspaceRotationAdjust: set factor to 0.564
ElecMinimize: Iter: 162  F: -1978.500892782241863  |grad|_K:  2.377e-06  alpha:  3.555e-01  linmin:  2.195e-04  t[s]:  13575.32
	FillingsUpdate:  mu: +0.124374051  nElectrons: 346.000000  magneticMoment: [ Abs: 38.00688  Tot: -0.00000 ]
	SubspaceRotationAdjust: set factor to 0.62
ElecMinimize: Iter: 163  F: -1978.501248093309869  |grad|_K:  2.782e-06  alpha:  3.733e-01  linmin:  7.764e-05  t[s]:  13648.85
	FillingsUpdate:  mu: +0.121198675  nElectrons: 346.000000  magneticMoment: [ Abs: 37.96623  Tot: +0.00000 ]
	SubspaceRotationAdjust: set factor to 0.458
ElecMinimize: Iter: 164  F: -1978.501791963097503  |grad|_K:  5.457e-06  alpha:  4.365e-01  linmin:  1.191e-03  t[s]:  13722.35
	FillingsUpdate:  mu: +0.121128605  nElectrons: 346.000000  magneticMoment: [ Abs: 37.96588  Tot: +0.00000 ]
	SubspaceRotationAdjust: set factor to 0.377
ElecMinimize: Iter: 165  F: -1978.501814537715063  |grad|_K:  4.992e-06  alpha:  3.410e-03  linmin: -2.174e-03  t[s]:  13796.06
ElecMinimize: 	Predicted alpha/alphaT>3.000000, increasing alphaT to 1.023098e-02.
ElecMinimize: 	Predicted alpha/alphaT>3.000000, increasing alphaT to 3.069293e-02.
ElecMinimize: 	Predicted alpha/alphaT>3.000000, increasing alphaT to 9.207879e-02.
ElecMinimize: 	Step increased F by 1.311407e-03, reducing alpha to 1.481650e-02.
	FillingsUpdate:  mu: +0.121443784  nElectrons: 346.000000  magneticMoment: [ Abs: 37.96188  Tot: +0.00000 ]
	SubspaceRotationAdjust: set factor to 0.356
ElecMinimize: Iter: 166  F: -1978.502013391251012  |grad|_K:  4.376e-06  alpha:  1.482e-02  linmin: -5.362e-03  t[s]:  13956.91
ElecMinimize: 	Predicted alpha/alphaT>3.000000, increasing alphaT to 4.444949e-02.
	FillingsUpdate:  mu: +0.121193766  nElectrons: 346.000000  magneticMoment: [ Abs: 37.98298  Tot: -0.00000 ]
	SubspaceRotationAdjust: set factor to 0.238
ElecMinimize: Iter: 167  F: -1978.503129288840228  |grad|_K:  6.185e-06  alpha:  1.279e-01  linmin:  6.067e-04  t[s]:  14052.23
	FillingsUpdate:  mu: +0.121127091  nElectrons: 346.000000  magneticMoment: [ Abs: 37.99047  Tot: +0.00000 ]
	SubspaceRotationAdjust: set factor to 0.179
ElecMinimize: Iter: 168  F: -1978.503169584924080  |grad|_K:  5.650e-06  alpha:  4.325e-03  linmin: -1.926e-03  t[s]:  14125.89
ElecMinimize: 	Predicted alpha/alphaT>3.000000, increasing alphaT to 1.297614e-02.
	FillingsUpdate:  mu: +0.120032598  nElectrons: 346.000000  magneticMoment: [ Abs: 38.04128  Tot: +0.00000 ]
	SubspaceRotationAdjust: set factor to 0.133
	SubspaceRotationAdjust: resetting CG because factor has changed by 0.123773
ElecMinimize: 	State modified externally: resetting search direction.
ElecMinimize: Iter: 169  F: -1978.503346441423446  |grad|_K:  6.169e-06  alpha:  2.486e-02
ElecMinimize: 	Predicted alpha/alphaT>3.000000, increasing alphaT to 7.456904e-02.
ElecMinimize: 	Predicted alpha/alphaT>3.000000, increasing alphaT to 2.237071e-01.
	FillingsUpdate:  mu: +0.122086546  nElectrons: 346.000000  magneticMoment: [ Abs: 38.03040  Tot: +0.00000 ]
	SubspaceRotationAdjust: set factor to 0.134
ElecMinimize: Iter: 170  F: -1978.504932389040505  |grad|_K:  3.435e-06  alpha:  2.379e-01  linmin: -1.963e-03  t[s]:  14368.98
	FillingsUpdate:  mu: +0.124239874  nElectrons: 346.000000  magneticMoment: [ Abs: 38.05604  Tot: +0.00000 ]
	SubspaceRotationAdjust: set factor to 0.123
ElecMinimize: Iter: 171  F: -1978.505570489953470  |grad|_K:  3.019e-06  alpha:  3.037e-01  linmin: -8.833e-04  t[s]:  14444.08
	FillingsUpdate:  mu: +0.124566344  nElectrons: 346.000000  magneticMoment: [ Abs: 38.07895  Tot: +0.00000 ]
	SubspaceRotationAdjust: set factor to 0.133
ElecMinimize: Iter: 172  F: -1978.506634605845875  |grad|_K:  3.977e-06  alpha:  6.583e-01  linmin: -1.083e-04  t[s]:  14518.59
	FillingsUpdate:  mu: +0.121676264  nElectrons: 346.000000  magneticMoment: [ Abs: 38.25026  Tot: -0.00000 ]
	SubspaceRotationAdjust: set factor to 0.13
ElecMinimize: Iter: 173  F: -1978.508513436452404  |grad|_K:  6.017e-06  alpha:  6.827e-01  linmin:  2.234e-03  t[s]:  14593.92
	FillingsUpdate:  mu: +0.121032266  nElectrons: 346.000000  magneticMoment: [ Abs: 38.37894  Tot: -0.00000 ]
	SubspaceRotationAdjust: set factor to 0.171
ElecMinimize: Iter: 174  F: -1978.510112220301835  |grad|_K:  6.078e-06  alpha:  2.089e-01  linmin: -4.731e-03  t[s]:  14668.64
	FillingsUpdate:  mu: +0.121749287  nElectrons: 346.000000  magneticMoment: [ Abs: 38.57646  Tot: +0.00000 ]
	SubspaceRotationAdjust: set factor to 0.206
ElecMinimize: Iter: 175  F: -1978.512527038155213  |grad|_K:  6.481e-06  alpha:  2.817e-01  linmin: -1.496e-04  t[s]:  14743.31
	FillingsUpdate:  mu: +0.120650090  nElectrons: 346.000000  magneticMoment: [ Abs: 38.75303  Tot: +0.00000 ]
	SubspaceRotationAdjust: set factor to 0.219
ElecMinimize: Iter: 176  F: -1978.513975040066953  |grad|_K:  7.594e-06  alpha:  1.697e-01  linmin: -6.353e-04  t[s]:  14818.59
	FillingsUpdate:  mu: +0.122682607  nElectrons: 346.000000  magneticMoment: [ Abs: 38.92161  Tot: -0.00000 ]
	SubspaceRotationAdjust: set factor to 0.186
ElecMinimize: Iter: 177  F: -1978.515291211671865  |grad|_K:  8.428e-06  alpha:  1.204e-01  linmin: -2.002e-04  t[s]:  14893.54
	FillingsUpdate:  mu: +0.122623178  nElectrons: 346.000000  magneticMoment: [ Abs: 38.97845  Tot: +0.00000 ]
	SubspaceRotationAdjust: set factor to 0.238
ElecMinimize: Iter: 178  F: -1978.516049159282147  |grad|_K:  7.092e-06  alpha:  4.454e-02  linmin: -2.042e-03  t[s]:  14967.36
	FillingsUpdate:  mu: +0.124076881  nElectrons: 346.000000  magneticMoment: [ Abs: 39.01056  Tot: +0.00000 ]
	SubspaceRotationAdjust: set factor to 0.266
ElecMinimize: Iter: 179  F: -1978.516573805078224  |grad|_K:  7.501e-06  alpha:  4.824e-02  linmin:  1.890e-04  t[s]:  15041.36
	FillingsUpdate:  mu: +0.128168912  nElectrons: 346.000000  magneticMoment: [ Abs: 39.05864  Tot: -0.00000 ]
	SubspaceRotationAdjust: set factor to 0.195
ElecMinimize: Iter: 180  F: -1978.517046020778480  |grad|_K:  9.813e-06  alpha:  4.919e-02  linmin: -6.486e-05  t[s]:  15114.77
	FillingsUpdate:  mu: +0.131340884  nElectrons: 346.000000  magneticMoment: [ Abs: 39.14920  Tot: +0.00000 ]
	SubspaceRotationAdjust: set factor to 0.136
ElecMinimize: Iter: 181  F: -1978.517707574476162  |grad|_K:  1.035e-05  alpha:  3.574e-02  linmin:  1.289e-04  t[s]:  15188.16
	FillingsUpdate:  mu: +0.132006134  nElectrons: 346.000000  magneticMoment: [ Abs: 39.24921  Tot: -0.00000 ]
	SubspaceRotationAdjust: set factor to 0.102
ElecMinimize: Iter: 182  F: -1978.518225186154950  |grad|_K:  9.771e-06  alpha:  2.772e-02  linmin:  7.700e-05  t[s]:  15263.00
	FillingsUpdate:  mu: +0.131464949  nElectrons: 346.000000  magneticMoment: [ Abs: 39.37467  Tot: -0.00000 ]
	SubspaceRotationAdjust: set factor to 0.089
ElecMinimize: Iter: 183  F: -1978.518842733880319  |grad|_K:  9.084e-06  alpha:  3.661e-02  linmin: -3.986e-04  t[s]:  15338.08
	FillingsUpdate:  mu: +0.128602659  nElectrons: 346.000000  magneticMoment: [ Abs: 39.55514  Tot: +0.00000 ]
	SubspaceRotationAdjust: set factor to 0.117
[...]
	FillingsUpdate:  mu: +0.120604363  nElectrons: 346.000000  magneticMoment: [ Abs: 38.89992  Tot: -0.00000 ]
	SubspaceRotationAdjust: set factor to 0.608
ElecMinimize: Iter:   6  F: -1978.569363351761240  |grad|_K:  1.265e-06  alpha:  3.296e-01  linmin:  2.388e-05  t[s]:  70736.54
	FillingsUpdate:  mu: +0.120379143  nElectrons: 346.000000  magneticMoment: [ Abs: 38.90132  Tot: -0.00000 ]
	SubspaceRotationAdjust: set factor to 0.678
ElecMinimize: Iter:   7  F: -1978.569462600896941  |grad|_K:  7.604e-07  alpha:  3.557e-01  linmin:  1.592e-06  t[s]:  70810.50
	FillingsUpdate:  mu: +0.119718055  nElectrons: 346.000000  magneticMoment: [ Abs: 38.90482  Tot: +0.00000 ]
	SubspaceRotationAdjust: set factor to 0.571
ElecMinimize: Iter:   8  F: -1978.569491767460477  |grad|_K:  4.893e-07  alpha:  2.892e-01  linmin: -2.651e-05  t[s]:  70884.90
	FillingsUpdate:  mu: +0.120321107  nElectrons: 346.000000  magneticMoment: [ Abs: 38.90324  Tot: -0.00000 ]
	SubspaceRotationAdjust: set factor to 0.441
ElecMinimize: Iter:   9  F: -1978.569502984492601  |grad|_K:  2.812e-07  alpha:  2.669e-01  linmin:  3.767e-05  t[s]:  70960.87
	FillingsUpdate:  mu: +0.120146245  nElectrons: 346.000000  magneticMoment: [ Abs: 38.90464  Tot: -0.00000 ]
	SubspaceRotationAdjust: set factor to 0.5
ElecMinimize: Iter:  10  F: -1978.569507256397856  |grad|_K:  1.613e-07  alpha:  3.102e-01  linmin: -3.368e-06  t[s]:  71036.44
	FillingsUpdate:  mu: +0.120069280  nElectrons: 346.000000  magneticMoment: [ Abs: 38.90532  Tot: +0.00000 ]
	SubspaceRotationAdjust: set factor to 0.518
ElecMinimize: Iter:  11  F: -1978.569508816253347  |grad|_K:  1.135e-07  alpha:  3.429e-01  linmin: -3.005e-06  t[s]:  71112.03
	FillingsUpdate:  mu: +0.120151274  nElectrons: 346.000000  magneticMoment: [ Abs: 38.90543  Tot: -0.00000 ]
	SubspaceRotationAdjust: set factor to 0.528
ElecMinimize: Iter:  12  F: -1978.569509604676114  |grad|_K:  8.322e-08  alpha:  3.501e-01  linmin:  1.104e-06  t[s]:  71185.96
	FillingsUpdate:  mu: +0.120120460  nElectrons: 346.000000  magneticMoment: [ Abs: 38.90625  Tot: -0.00000 ]
	SubspaceRotationAdjust: set factor to 0.613
ElecMinimize: Iter:  13  F: -1978.569510097873263  |grad|_K:  6.694e-08  alpha:  4.071e-01  linmin: -3.094e-07  t[s]:  71261.01
	FillingsUpdate:  mu: +0.120125275  nElectrons: 346.000000  magneticMoment: [ Abs: 38.90696  Tot: -0.00000 ]
	SubspaceRotationAdjust: set factor to 0.694
ElecMinimize: Iter:  14  F: -1978.569510442967385  |grad|_K:  5.998e-08  alpha:  4.404e-01  linmin:  1.816e-06  t[s]:  71335.66
	FillingsUpdate:  mu: +0.120152415  nElectrons: 346.000000  magneticMoment: [ Abs: 38.90756  Tot: +0.00000 ]
	SubspaceRotationAdjust: set factor to 0.76
ElecMinimize: Iter:  15  F: -1978.569510688466607  |grad|_K:  5.083e-08  alpha:  3.902e-01  linmin: -3.485e-06  t[s]:  71410.15
	FillingsUpdate:  mu: +0.120113384  nElectrons: 346.000000  magneticMoment: [ Abs: 38.90847  Tot: +0.00000 ]
	SubspaceRotationAdjust: set factor to 0.779
ElecMinimize: Iter:  16  F: -1978.569510864896529  |grad|_K:  4.633e-08  alpha:  3.899e-01  linmin: -1.257e-05  t[s]:  71483.96
ElecMinimize: Converged (|Delta F|<1.000000e-06 for 5 iters).
Setting wave functions to eigenvectors of Hamiltonian

# Ionic positions in lattice coordinates:
ion Ni   0.003052667495966  -0.002282088610727   0.158738653954599 1
ion Ni   0.495596935221558  -0.010478213361198   0.147263561736454 1
ion Ni   0.002917422762324   0.511284484190661   0.149287838246094 1
ion Ni   0.246350587436223   0.749248598118608   0.058924680368779 1
ion Ni  -0.250459876342933   0.750973141270628   0.056907577927830 1
ion Co   0.498133441101786   0.510130228315615   0.158732286557905 1
ion Co   0.247506588087098   0.242682045047085   0.060274274923346 1
ion V  -0.248865631943038   0.252141391542824   0.060548651937930 1
ion V   0.000000000000000   0.000000000000000  -0.050000000000000 0
ion V   0.500000000000000   0.000000000000000  -0.050000000000000 0
ion V   0.000000000000000   0.500000000000000  -0.050000000000000 0
ion V   0.500000000000000   0.500000000000000  -0.050000000000000 0
ion V   0.250000000000000   0.250000000000000  -0.150000000000000 0
ion V  -0.250000000000000   0.750000000000000  -0.150000000000000 0
ion Cr   0.250000000000000   0.750000000000000  -0.150000000000000 0
ion Cr  -0.250000000000000   0.250000000000000  -0.150000000000000 0
ion O   0.241944912564789   0.272973505213274   0.154792130362388 1
ion O   0.241541692351591   0.746130498852825   0.151592071835167 1
ion O  -0.242757940836264   0.262637136670806   0.149803218657069 1
ion O  -0.241589374315762   0.742415372179636   0.149670078327514 1
ion O  -0.005115062401629  -0.001759681704446   0.054076451709012 1
ion O   0.522160673623743   0.013052242123640   0.048854589229260 1
ion O  -0.016403697464622   0.491844224797445   0.050398646881321 1
ion O   0.505939223524252   0.504958993316134   0.049510063677456 1
ion O   0.250000000000000   0.250000000000000  -0.050000000000000 0
ion O   0.250000000000000   0.750000000000000  -0.050000000000000 0
ion O  -0.250000000000000   0.250000000000000  -0.050000000000000 0
ion O  -0.250000000000000   0.750000000000000  -0.050000000000000 0
ion O   0.000000000000000   0.000000000000000  -0.150000000000000 0
ion O   0.500000000000000   0.000000000000000  -0.150000000000000 0
ion O   0.000000000000000   0.500000000000000  -0.150000000000000 0
ion O   0.500000000000000   0.500000000000000  -0.150000000000000 0
ion O  -0.006780486796966  -0.010572862750045   0.245649799702810 1
ion H   0.094527929043785   0.102902236696612   0.259278467596529 1

# Forces in Lattice coordinates:
force Ni  -0.001049338860509   0.005887655093603  -0.031683998793877 1
force Ni   0.005224783278928   0.007051563151993   0.012724439194765 1
force Ni   0.001695119602621   0.005220278676748  -0.011758509002637 1
force Ni  -0.005481197576729  -0.002523660714177   0.012746950601661 1
force Ni   0.004766643276493  -0.003410701909173   0.001628321564215 1
force Co  -0.002633215773508  -0.003089565587559  -0.000185676863136 1
force Co  -0.001888581083163   0.001339398468235  -0.017487556070404 1
force V   0.008755632527341   0.008611737326641  -0.050961511047217 1
force V  -0.035234153492670  -0.074607892455270   0.989635316492769 0
force V  -0.050499995476123  -0.038897235331705   0.689154473330250 0
force V  -0.057060641026200   0.049424501690346   0.796063824933171 0
force V  -0.062755490302246   0.046141852064234   0.932225888369812 0
force V   0.024949183744589  -0.000250305517654  -0.622973272684742 0
force V   0.074871757468043   0.000394196553174  -0.553105043980781 0
force Cr   0.028589944143464   0.001797545622084  -1.192641403123115 0
force Cr   0.043506509082753  -0.000319983276180  -1.680465094381349 0
force O  -0.000453461903426  -0.002064769592352   0.013555836459766 1
force O  -0.003099920838546  -0.005696977293389   0.001021244459922 1
force O  -0.004581535393082   0.002332142717666   0.002357252868601 1
force O   0.001458465309809  -0.001063827697224  -0.006042246490889 1
force O  -0.004141562310711   0.000818993595530   0.005746363267581 1
force O   0.001287329718924  -0.003210284653479  -0.008633383763271 1
force O  -0.003537201703787  -0.003369373518856   0.011701274832928 1
force O   0.000967424080920   0.000284802434724  -0.007495409641441 1
force O   0.093642043005807   0.000418897399844  -0.102040740807460 0
force O   0.091338940618495  -0.001456395205084   0.478207651811786 0
force O  -0.113624501025221   0.002858380087992   1.166582482215982 0
force O  -0.136091369638532  -0.000515942055433  -0.156384085539255 0
force O   0.050013778614259  -0.015661112720363  -0.266616392584591 0
force O   0.001260557484017  -0.029965664720149  -0.109754344989366 0
force O   0.053668264505258   0.019030399716835  -0.266450074397413 0
force O   0.006000677431447   0.025259486896988  -0.128273869642286 0
force O   0.003310564053288   0.004624413487035   0.087906488015692 1
force H  -0.009902648498183  -0.005042735030376   0.007186019046221 1

# Energy components:
   Eewald =     5382.7808868483270999
       EH =     7165.6245030864292858
     Eloc =   -14691.4589066588559945
      Enl =     -504.7488590065638050
   Epulay =       -0.0004849842440617
      Exc =     -243.7039446998105063
       KE =      911.5855371725506302
        U =        1.3525493065151344
-------------------------------------
     Etot =    -1978.5687189356519866
       TS =        0.0007919292445703
-------------------------------------
        F =    -1978.5695108648965288

IonicMinimize: Iter:  16  F: -1978.569510864896529  |grad|_K:  4.856e-04  alpha:  1.000e+00  linmin: -2.339e-03  t[s]:  71509.14

#--- Lowdin population analysis ---
# oxidation-state Ni +3.728 +3.632 +3.820 +3.415 +3.545
# magnetic-moments Ni +0.932 +0.833 -1.025 +0.884 -0.993
# oxidation-state Co +1.287 +1.259
# magnetic-moments Co -2.771 +2.725
# oxidation-state V +1.206 +0.972 +1.074 +0.976 +1.080 +1.021 +1.024
# magnetic-moments V -2.056 -2.909 +2.654 -2.898 +2.623 -2.940 +2.936
# oxidation-state Cr +2.899 +2.906
# magnetic-moments Cr -2.062 +3.964
# oxidation-state O -0.850 -0.714 -0.740 -0.717 -0.835 -0.828 -0.822 -0.880 -0.925 -0.885 -0.935 -0.875 -0.909 -0.907 -0.909 -0.908 -0.682
# magnetic-moments O +0.040 +0.129 +0.067 -0.218 +0.042 +0.039 -0.082 -0.051 -0.002 +0.042 +0.032 -0.074 -0.015 -0.035 -0.016 -0.035 +0.071
# oxidation-state H +0.374
# magnetic-moments H -0.001


-------- Electronic minimization -----------
	FillingsUpdate:  mu: +0.120042355  nElectrons: 346.000000  magneticMoment: [ Abs: 38.90717  Tot: +0.00000 ]
ElecMinimize: Iter:   0  F: -1978.559916278629998  |grad|_K:  1.681e-05  alpha:  1.000e+00
	FillingsUpdate:  mu: +0.120522939  nElectrons: 346.000000  magneticMoment: [ Abs: 38.90434  Tot: +0.00000 ]
	SubspaceRotationAdjust: set factor to 0.691
ElecMinimize: Iter:   1  F: -1978.568988049489008  |grad|_K:  3.447e-06  alpha:  1.820e-01  linmin: -1.257e-03  t[s]:  71640.27
	FillingsUpdate:  mu: +0.119305719  nElectrons: 346.000000  magneticMoment: [ Abs: 38.91303  Tot: -0.00000 ]
	SubspaceRotationAdjust: set factor to 0.489
ElecMinimize: Iter:   2  F: -1978.569348570773855  |grad|_K:  1.573e-06  alpha:  1.725e-01  linmin: -4.585e-04  t[s]:  71713.96
	FillingsUpdate:  mu: +0.120554796  nElectrons: 346.000000  magneticMoment: [ Abs: 38.90936  Tot: -0.00000 ]
	SubspaceRotationAdjust: set factor to 0.404
ElecMinimize: Iter:   3  F: -1978.569477539837635  |grad|_K:  8.511e-07  alpha:  2.948e-01  linmin:  2.581e-04  t[s]:  71787.97
	FillingsUpdate:  mu: +0.119935537  nElectrons: 346.000000  magneticMoment: [ Abs: 38.91253  Tot: +0.00000 ]
	SubspaceRotationAdjust: set factor to 0.431
ElecMinimize: Iter:   4  F: -1978.569515924798225  |grad|_K:  5.409e-07  alpha:  3.068e-01  linmin: -1.492e-05  t[s]:  71864.84
	FillingsUpdate:  mu: +0.119803409  nElectrons: 346.000000  magneticMoment: [ Abs: 38.91375  Tot: +0.00000 ]
	SubspaceRotationAdjust: set factor to 0.462
ElecMinimize: Iter:   5  F: -1978.569531668026684  |grad|_K:  3.661e-07  alpha:  3.074e-01  linmin: -2.590e-07  t[s]:  71939.72
	FillingsUpdate:  mu: +0.119989225  nElectrons: 346.000000  magneticMoment: [ Abs: 38.91393  Tot: -0.00000 ]
	SubspaceRotationAdjust: set factor to 0.487
ElecMinimize: Iter:   6  F: -1978.569538648485604  |grad|_K:  2.570e-07  alpha:  2.978e-01  linmin:  1.733e-06  t[s]:  72014.20
	FillingsUpdate:  mu: +0.119980720  nElectrons: 346.000000  magneticMoment: [ Abs: 38.91517  Tot: +0.00000 ]
	SubspaceRotationAdjust: set factor to 0.555
ElecMinimize: Iter:   7  F: -1978.569542338161682  |grad|_K:  1.690e-07  alpha:  3.194e-01  linmin:  1.054e-06  t[s]:  72090.47
	FillingsUpdate:  mu: +0.119912203  nElectrons: 346.000000  magneticMoment: [ Abs: 38.91659  Tot: +0.00000 ]
	SubspaceRotationAdjust: set factor to 0.601
ElecMinimize: Iter:   8  F: -1978.569543960498095  |grad|_K:  1.203e-07  alpha:  3.249e-01  linmin: -9.015e-07  t[s]:  72166.13
	FillingsUpdate:  mu: +0.119972038  nElectrons: 346.000000  magneticMoment: [ Abs: 38.91740  Tot: +0.00000 ]
	SubspaceRotationAdjust: set factor to 0.664
ElecMinimize: Iter:   9  F: -1978.569544792154602  |grad|_K:  8.410e-08  alpha:  3.288e-01  linmin:  1.516e-06  t[s]:  72241.99
	FillingsUpdate:  mu: +0.119950493  nElectrons: 346.000000  magneticMoment: [ Abs: 38.91856  Tot: -0.00000 ]
	SubspaceRotationAdjust: set factor to 0.758
ElecMinimize: Iter:  10  F: -1978.569545235304531  |grad|_K:  6.649e-08  alpha:  3.585e-01  linmin:  2.858e-06  t[s]:  72316.25
	FillingsUpdate:  mu: +0.119947651  nElectrons: 346.000000  magneticMoment: [ Abs: 38.91959  Tot: -0.00000 ]
	SubspaceRotationAdjust: set factor to 0.899
ElecMinimize: Iter:  11  F: -1978.569545490697919  |grad|_K:  5.273e-08  alpha:  3.306e-01  linmin:  1.822e-06  t[s]:  72391.05
	FillingsUpdate:  mu: +0.119973776  nElectrons: 346.000000  magneticMoment: [ Abs: 38.92056  Tot: -0.00000 ]
	SubspaceRotationAdjust: set factor to 1.05
ElecMinimize: Iter:  12  F: -1978.569545666965951  |grad|_K:  4.755e-08  alpha:  3.630e-01  linmin: -8.041e-08  t[s]:  72466.45
	FillingsUpdate:  mu: +0.119931085  nElectrons: 346.000000  magneticMoment: [ Abs: 38.92201  Tot: -0.00000 ]
	SubspaceRotationAdjust: set factor to 1.07
ElecMinimize: Iter:  13  F: -1978.569545818263578  |grad|_K:  4.952e-08  alpha:  3.826e-01  linmin:  2.763e-05  t[s]:  72541.01
ElecMinimize: Converged (|Delta F|<1.000000e-06 for 5 iters).
Setting wave functions to eigenvectors of Hamiltonian

# Ionic positions in lattice coordinates:
ion Ni   0.003025602487491  -0.001741291520561   0.158977367491508 1
ion Ni   0.495621358252122  -0.010111347548871   0.147341624938471 1
ion Ni   0.002794874455637   0.511189325878693   0.149197489747184 1
ion Ni   0.246400159303000   0.749428934191773   0.059097593501280 1
ion Ni  -0.250509173387478   0.750885042127695   0.057006835822718 1
ion Co   0.498120122452879   0.510195389465090   0.158773029547976 1
ion Co   0.247442055623143   0.242843609385459   0.060176363510367 1
ion V  -0.248594710902672   0.252259723480670   0.060487018051529 1
ion V   0.000000000000000   0.000000000000000  -0.050000000000000 0
ion V   0.500000000000000   0.000000000000000  -0.050000000000000 0
ion V   0.000000000000000   0.500000000000000  -0.050000000000000 0
ion V   0.500000000000000   0.500000000000000  -0.050000000000000 0
ion V   0.250000000000000   0.250000000000000  -0.150000000000000 0
ion V  -0.250000000000000   0.750000000000000  -0.150000000000000 0
ion Cr   0.250000000000000   0.750000000000000  -0.150000000000000 0
ion Cr  -0.250000000000000   0.250000000000000  -0.150000000000000 0
ion O   0.241994395934111   0.272675596462318   0.154743072892197 1
ion O   0.241224127389708   0.745855731439091   0.151706945622842 1
ion O  -0.242869064984853   0.262786926265176   0.149875625446614 1
ion O  -0.241505145723755   0.742467713553824   0.149698382325615 1
ion O  -0.005199930784625  -0.001710801350033   0.054135859156873 1
ion O   0.522292532728206   0.012906586896967   0.048870469561884 1
ion O  -0.016333131515891   0.491832945348630   0.050376379998146 1
ion O   0.505693910153744   0.504855248646071   0.049469513485942 1
ion O   0.250000000000000   0.250000000000000  -0.050000000000000 0
ion O   0.250000000000000   0.750000000000000  -0.050000000000000 0
ion O  -0.250000000000000   0.250000000000000  -0.050000000000000 0
ion O  -0.250000000000000   0.750000000000000  -0.050000000000000 0
ion O   0.000000000000000   0.000000000000000  -0.150000000000000 0
ion O   0.500000000000000   0.000000000000000  -0.150000000000000 0
ion O   0.000000000000000   0.500000000000000  -0.150000000000000 0
ion O   0.500000000000000   0.500000000000000  -0.150000000000000 0
ion O  -0.006839100721134  -0.010609093183596   0.246096433669299 1
ion H   0.093966415968648   0.103212377342087   0.259719935069241 1

# Forces in Lattice coordinates:
force Ni  -0.001262944155870   0.003690262993210   0.007355073688654 1
force Ni   0.004161100441650   0.006913864371809   0.015905788904959 1
force Ni   0.003516972051037   0.005628278171081   0.008057338829632 1
force Ni  -0.003898101243395  -0.001924411473253   0.011630909405007 1
force Ni   0.002789387026334  -0.002052280121185  -0.007021123719871 1
force Co  -0.003832704890456  -0.003679749037301   0.000072647011207 1
force Co   0.000764058539688  -0.000273597305795  -0.003862387512354 1
force V   0.001509226449918   0.003481972205689  -0.015922501397811 1
force V  -0.035210104100511  -0.075772419787269   0.991628916812797 0
force V  -0.050169545399441  -0.040064684375779   0.692451065453811 0
force V  -0.056959905413600   0.050629634244139   0.791167147504691 0
force V  -0.062895784092335   0.047280189364727   0.929678356785522 0
force V   0.024924651890293  -0.000239852679033  -0.623551806874877 0
force V   0.074878517124330   0.000365177212803  -0.552384656612340 0
force Cr   0.028457712118733   0.001778517749211  -1.189537507653569 0
force Cr   0.043471440373609  -0.000316591020786  -1.681457605625005 0
force O  -0.000369996988948  -0.000437325149486   0.017136830305805 1
force O   0.000746163704044  -0.003780005165334   0.005264338677883 1
force O  -0.004289062066991   0.002250494939806  -0.026304810687664 1
force O  -0.000152887121247  -0.000303448369501   0.000131481162866 1
force O  -0.002261541368799   0.000498536047769  -0.005348755329627 1
force O   0.000725516981308  -0.001301887375016  -0.010737208669340 1
force O  -0.003752183650542  -0.002425746728365   0.011594715634459 1
force O   0.004036174960279   0.001183908496871  -0.000013080883090 1
force O   0.093398998257374   0.000437779631950  -0.103509872183360 0
force O   0.091407238332356  -0.001417644815791   0.473032411773410 0
force O  -0.113201406757522   0.002997266596400   1.168011780859314 0
force O  -0.135956256728183  -0.000780113452163  -0.158244807770257 0
force O   0.050202284073162  -0.015783242909899  -0.266666017531309 0
force O   0.001071696358710  -0.030000571692387  -0.110281414026380 0
force O   0.053856661451330   0.019175654204729  -0.266130732671924 0
force O   0.005915941541871   0.025342774514708  -0.129138687543136 0
force O   0.000087534625086   0.001173369878311   0.020856452720329 1
force H  -0.006675805722132  -0.001552849937489   0.013974869753221 1

# Energy components:
   Eewald =     5379.9473691401080941
       EH =     7162.7802257573239331
     Eloc =   -14685.7770127315106947
      Enl =     -504.7477183396140958
   Epulay =       -0.0004849842440617
      Exc =     -243.7018590348653220
       KE =      911.5780872187875730
        U =        1.3526450193303419
-------------------------------------
     Etot =    -1978.5687479546850227
       TS =        0.0007978635786442
-------------------------------------
        F =    -1978.5695458182635775

IonicMinimize: Iter:  17  F: -1978.569545818263578  |grad|_K:  2.774e-04  alpha:  1.000e+00  linmin: -9.461e-03  t[s]:  72566.37
IonicMinimize: Converged (|Delta F|<1.000000e-04 for 3 iters).

#--- Lowdin population analysis ---
# oxidation-state Ni +3.731 +3.633 +3.819 +3.415 +3.546
# magnetic-moments Ni +0.935 +0.833 -1.024 +0.884 -0.993
# oxidation-state Co +1.287 +1.259
# magnetic-moments Co -2.771 +2.725
# oxidation-state V +1.206 +0.972 +1.074 +0.976 +1.080 +1.021 +1.024
# magnetic-moments V -2.057 -2.909 +2.654 -2.898 +2.622 -2.940 +2.936
# oxidation-state Cr +2.899 +2.906
# magnetic-moments Cr -2.063 +3.964
# oxidation-state O -0.850 -0.714 -0.741 -0.717 -0.836 -0.828 -0.822 -0.880 -0.925 -0.885 -0.935 -0.875 -0.909 -0.907 -0.909 -0.908 -0.682
# magnetic-moments O +0.041 +0.129 +0.067 -0.219 +0.043 +0.039 -0.082 -0.051 -0.001 +0.042 +0.032 -0.074 -0.015 -0.035 -0.016 -0.035 +0.068
# oxidation-state H +0.374
# magnetic-moments H -0.001


Dumping 'run.ionpos' ... done
Dumping 'run.lattice' ... done
Dumping 'run.Ecomponents' ... done
End date and time: Wed May  7 11:04:30 2025  (Duration: 0-20:09:33.23)
Done!
