/var/spool/slurmd/job44409/slurm_script: line 9: module: command not found
/var/spool/slurmd/job44409/slurm_script: line 10: module: command not found

*************** JDFTx 1.7.0  ***************

Start date and time: Mon May 19 00:17:10 2025
Executable /data2/jt577/jdftx_eat_withLibXC/build/jdftx with command-line: -i /data2/jt577/May_2025/Relax_Mag_litU/rel6+1_6/OH/runs/calc_/run.in
Running on hosts (process indices):  node3219 (0-8)
Divided in process groups (process indices):  0 (0)  1 (1)  2 (2)  3 (3)  4 (4)  5 (5)  6 (6)  7 (7)  8 (8)
Resource initialization completed at t[s]:      0.00
Run totals: 9 processes, 36 threads, 0 GPUs


Input parsed successfully to the following command list (including defaults):

add-mix 
add-U 	Ni d 0.235196 \
	Co d 0.121273 \
	V d 0.113923 \
	Cr d 0.128623
basis kpoint-dependent
coords-type Lattice
core-overlap-check vector
coulomb-interaction Periodic
davidson-band-ratio 1.1
dump End IonicPositions Lattice Ecomponents
dump-name run.$VAR
elec-cutoff 30
elec-eigen-algo Davidson
elec-ex-corr gga-x-rpbe gga-c-pbe
elec-smearing Fermi 0.001
electronic-minimize  \
	dirUpdateScheme      FletcherReeves \
	linminMethod         DirUpdateRecommended \
	nIterations          1000 \
	history              15 \
	knormThreshold       0 \
	energyDiffThreshold  1e-06 \
	nEnergyDiff          5 \
	alphaTstart          1 \
	alphaTmin            1e-10 \
	updateTestStepSize   yes \
	alphaTreduceFactor   0.1 \
	alphaTincreaseFactor 3 \
	nAlphaAdjustMax      3 \
	wolfeEnergy          0.0001 \
	wolfeGradient        0.9 \
	fdTest               no
exchange-regularization WignerSeitzTruncated
fluid None
fluid-ex-corr (null) lda-PZ
fluid-gummel-loop 10 1.000000e-05
fluid-minimize  \
	dirUpdateScheme      PolakRibiere \
	linminMethod         DirUpdateRecommended \
	nIterations          100 \
	history              15 \
	knormThreshold       0 \
	energyDiffThreshold  0 \
	nEnergyDiff          2 \
	alphaTstart          1 \
	alphaTmin            1e-10 \
	updateTestStepSize   yes \
	alphaTreduceFactor   0.1 \
	alphaTincreaseFactor 3 \
	nAlphaAdjustMax      3 \
	wolfeEnergy          0.0001 \
	wolfeGradient        0.9 \
	fdTest               no
fluid-solvent H2O 55.338 ScalarEOS \
	epsBulk 78.4 \
	pMol 0.92466 \
	epsInf 1.77 \
	Pvap 1.06736e-10 \
	sigmaBulk 4.62e-05 \
	Rvdw 2.61727 \
	Res 1.42 \
	tauNuc 343133 \
	poleEl 15 7 1
forces-output-coords Positions
initial-magnetic-moments  \
	Ni 1 -1 1 1 -1 \
	Co -1 1 \
	V -1 -1 1 -1 1 -1 1 \
	Cr -1 1
initial-state run.$VAR
ion Ni  0.000000000000000   0.000000000000000   0.150000000000000 1
ion Ni  0.500000000000000   0.000000000000000   0.150000000000000 1
ion Ni  0.000000000000000   0.500000000000000   0.150000000000000 1
ion Ni  0.250000000000000   0.750000000000000   0.050000000000000 1
ion Ni -0.250000000000000   0.750000000000000   0.050000000000000 1
ion Co  0.500000000000000   0.500000000000000   0.150000000000000 1
ion Co  0.250000000000000   0.250000000000000   0.050000000000000 1
ion V -0.250000000000000   0.250000000000000   0.050000000000000 1
ion V  0.000000000000000   0.000000000000000  -0.050000000000000 0
ion V  0.500000000000000   0.000000000000000  -0.050000000000000 0
ion V  0.000000000000000   0.500000000000000  -0.050000000000000 0
ion V  0.500000000000000   0.500000000000000  -0.050000000000000 0
ion V  0.250000000000000   0.250000000000000  -0.150000000000000 0
ion V -0.250000000000000   0.750000000000000  -0.150000000000000 0
ion Cr  0.250000000000000   0.750000000000000  -0.150000000000000 0
ion Cr -0.250000000000000   0.250000000000000  -0.150000000000000 0
ion O  0.250000000000000   0.250000000000000   0.150000000000000 1
ion O  0.250000000000000   0.750000000000000   0.150000000000000 1
ion O -0.250000000000000   0.250000000000000   0.150000000000000 1
ion O -0.250000000000000   0.750000000000000   0.150000000000000 1
ion O  0.000000000000000   0.000000000000000   0.050000000000000 1
ion O  0.500000000000000   0.000000000000000   0.050000000000000 1
ion O  0.000000000000000   0.500000000000000   0.050000000000000 1
ion O  0.500000000000000   0.500000000000000   0.050000000000000 1
ion O  0.250000000000000   0.250000000000000  -0.050000000000000 0
ion O  0.250000000000000   0.750000000000000  -0.050000000000000 0
ion O -0.250000000000000   0.250000000000000  -0.050000000000000 0
ion O -0.250000000000000   0.750000000000000  -0.050000000000000 0
ion O  0.000000000000000   0.000000000000000  -0.150000000000000 0
ion O  0.500000000000000   0.000000000000000  -0.150000000000000 0
ion O  0.000000000000000   0.500000000000000  -0.150000000000000 0
ion O  0.500000000000000   0.500000000000000  -0.150000000000000 0
ion O -0.008040138212305  -0.008269777577920   0.235000196603227 1
ion H  0.095742872057713   0.094897636790041   0.252810710255288 1
ion-species SG15/$ID_ONCV_PBE.upf
ion-width 0
ionic-minimize  \
	dirUpdateScheme      L-BFGS \
	linminMethod         DirUpdateRecommended \
	nIterations          1000 \
	history              15 \
	knormThreshold       0.0001 \
	energyDiffThreshold  0.0001 \
	nEnergyDiff          3 \
	alphaTstart          1 \
	alphaTmin            1e-10 \
	updateTestStepSize   yes \
	alphaTreduceFactor   0.1 \
	alphaTincreaseFactor 3 \
	nAlphaAdjustMax      3 \
	wolfeEnergy          0.0001 \
	wolfeGradient        0.9 \
	fdTest               no
kpoint   0.500000000000   0.500000000000   0.500000000000  1.00000000000000
kpoint-folding 3 3 1 
latt-move-scale 1 1 1
latt-scale 1 1 1 
lattice  \
	   8.140000000000001    8.140000000000001    0.000000000000000  \
	   8.140000000000001   -8.140000000000001    0.000000000000000  \
	   0.000000000000000    0.000000000000000   40.700000000000003 
lattice-minimize  \
	dirUpdateScheme      L-BFGS \
	linminMethod         DirUpdateRecommended \
	nIterations          0 \
	history              15 \
	knormThreshold       0 \
	energyDiffThreshold  1e-06 \
	nEnergyDiff          2 \
	alphaTstart          1 \
	alphaTmin            1e-10 \
	updateTestStepSize   yes \
	alphaTreduceFactor   0.1 \
	alphaTincreaseFactor 3 \
	nAlphaAdjustMax      3 \
	wolfeEnergy          0.0001 \
	wolfeGradient        0.9 \
	fdTest               no
lcao-params -1 1e-06 0.001
pcm-variant GLSSA13
spintype z-spin
subspace-rotation-factor 1 yes
symmetries none
symmetry-threshold 0.0001


Applied RMS atom displacement 0 bohrs to make symmetries exact.

---------- Initializing the Grid ----------
R = 
[         8.14         8.14            0  ]
[         8.14        -8.14            0  ]
[            0            0         40.7  ]
unit cell volume = 5393.53
G =
[   0.385945   0.385945         -0  ]
[   0.385945  -0.385945         -0  ]
[         -0         -0   0.154378  ]
Minimum fftbox size, Smin = [  60  60  204  ]
Chosen fftbox size, S = [  60  60  210  ]

---------- Exchange Correlation functional ----------
Initialized LibXC exchange functional 'Hammer, Hansen, and Norskov'
Initialized LibXC correlation functional 'Perdew, Burke & Ernzerhof'

---------- Setting up pseudopotentials ----------
Width of ionic core gaussian charges (only for fluid interactions / plotting) set to 0

Reading pseudopotential file '/data2/jt577/jdftx_eat_withLibXC/build/pseudopotentials/SG15/Ni_ONCV_PBE.upf':
  'Ni' pseudopotential, 'PBE' functional
  Generated using ONCVPSP code by D. R. Hamann
  Author: Martin Schlipf and Francois Gygi  Date: 150915.
  18 valence electrons, 4 orbitals, 6 projectors, 1292 radial grid points, with lMax = 2
  Transforming local potential to a uniform radial grid of dG=0.02 with 1419 points.
  Transforming nonlocal projectors to a uniform radial grid of dG=0.02 with 528 points.
    3S    l: 0   occupation:  2.0   eigenvalue: -4.081355
    3P    l: 1   occupation:  6.0   eigenvalue: -2.623460
    4S    l: 0   occupation:  2.0   eigenvalue: -0.207378
    3D    l: 2   occupation:  8.0   eigenvalue: -0.326118
  Transforming atomic orbitals to a uniform radial grid of dG=0.02 with 528 points.
  WARNING: large normalization error in atomic orbital 1s (integral: 0.000006).
  Core radius for overlap checks: 1.99 bohrs.
  Reading pulay file /data2/jt577/jdftx_eat_withLibXC/build/pseudopotentials/SG15/Ni_ONCV_PBE.pulay ... using dE_dnG = -7.250568e-04 computed for Ecut = 30.

Reading pseudopotential file '/data2/jt577/jdftx_eat_withLibXC/build/pseudopotentials/SG15/Co_ONCV_PBE.upf':
  'Co' pseudopotential, 'PBE' functional
  Generated using ONCVPSP code by D. R. Hamann
  Author: Martin Schlipf and Francois Gygi  Date: 150915.
  17 valence electrons, 4 orbitals, 6 projectors, 1388 radial grid points, with lMax = 2
  Transforming local potential to a uniform radial grid of dG=0.02 with 1419 points.
  Transforming nonlocal projectors to a uniform radial grid of dG=0.02 with 528 points.
    3S    l: 0   occupation:  2.0   eigenvalue: -3.763303
    3P    l: 1   occupation:  6.0   eigenvalue: -2.412101
    4S    l: 0   occupation:  2.0   eigenvalue: -0.201022
    3D    l: 2   occupation:  7.0   eigenvalue: -0.301498
  Transforming atomic orbitals to a uniform radial grid of dG=0.02 with 528 points.
  Core radius for overlap checks: 1.94 bohrs.
  Reading pulay file /data2/jt577/jdftx_eat_withLibXC/build/pseudopotentials/SG15/Co_ONCV_PBE.pulay ... using dE_dnG = -9.787391e-05 computed for Ecut = 30.

Reading pseudopotential file '/data2/jt577/jdftx_eat_withLibXC/build/pseudopotentials/SG15/V_ONCV_PBE.upf':
  'V' pseudopotential, 'PBE' functional
  Generated using ONCVPSP code by D. R. Hamann
  Author: Martin Schlipf and Francois Gygi  Date: 150915.
  13 valence electrons, 4 orbitals, 6 projectors, 1536 radial grid points, with lMax = 2
  Transforming local potential to a uniform radial grid of dG=0.02 with 1419 points.
  Transforming nonlocal projectors to a uniform radial grid of dG=0.02 with 528 points.
    3S    l: 0   occupation:  2.0   eigenvalue: -2.581105
    3P    l: 1   occupation:  6.0   eigenvalue: -1.618486
    4S    l: 0   occupation:  2.0   eigenvalue: -0.172804
    3D    l: 2   occupation:  3.0   eigenvalue: -0.189795
  Transforming atomic orbitals to a uniform radial grid of dG=0.02 with 528 points.
  Core radius for overlap checks: 1.80 bohrs.
  Reading pulay file /data2/jt577/jdftx_eat_withLibXC/build/pseudopotentials/SG15/V_ONCV_PBE.pulay ... using dE_dnG = -1.698632e-04 computed for Ecut = 30.

Reading pseudopotential file '/data2/jt577/jdftx_eat_withLibXC/build/pseudopotentials/SG15/Cr_ONCV_PBE.upf':
  'Cr' pseudopotential, 'PBE' functional
  Generated using ONCVPSP code by D. R. Hamann
  Author: Martin Schlipf and Francois Gygi  Date: 150915.
  14 valence electrons, 4 orbitals, 6 projectors, 1160 radial grid points, with lMax = 2
  Transforming local potential to a uniform radial grid of dG=0.02 with 1419 points.
  Transforming nonlocal projectors to a uniform radial grid of dG=0.02 with 528 points.
    3S    l: 0   occupation:  2.0   eigenvalue: -2.865131
    3P    l: 1   occupation:  6.0   eigenvalue: -1.810600
    4S    l: 0   occupation:  2.0   eigenvalue: -0.180525
    3D    l: 2   occupation:  4.0   eigenvalue: -0.220312
  Transforming atomic orbitals to a uniform radial grid of dG=0.02 with 528 points.
  WARNING: large normalization error in atomic orbital 1s (integral: 0.000001).
  Core radius for overlap checks: 2.10 bohrs.
  Reading pulay file /data2/jt577/jdftx_eat_withLibXC/build/pseudopotentials/SG15/Cr_ONCV_PBE.pulay ... using dE_dnG = -9.817895e-06 computed for Ecut = 30.

Reading pseudopotential file '/data2/jt577/jdftx_eat_withLibXC/build/pseudopotentials/SG15/O_ONCV_PBE.upf':
  'O' pseudopotential, 'PBE' functional
  Generated using ONCVPSP code by D. R. Hamann
  Author: Martin Schlipf and Francois Gygi  Date: 150915.
  6 valence electrons, 2 orbitals, 4 projectors, 936 radial grid points, with lMax = 1
  Transforming local potential to a uniform radial grid of dG=0.02 with 1419 points.
  Transforming nonlocal projectors to a uniform radial grid of dG=0.02 with 528 points.
    2S    l: 0   occupation:  2.0   eigenvalue: -0.880572
    2P    l: 1   occupation:  4.0   eigenvalue: -0.331869
  Transforming atomic orbitals to a uniform radial grid of dG=0.02 with 528 points.
  Core radius for overlap checks: 1.29 bohrs.
  Reading pulay file /data2/jt577/jdftx_eat_withLibXC/build/pseudopotentials/SG15/O_ONCV_PBE.pulay ... using dE_dnG = -8.209514e-03 computed for Ecut = 30.

Reading pseudopotential file '/data2/jt577/jdftx_eat_withLibXC/build/pseudopotentials/SG15/H_ONCV_PBE.upf':
  'H' pseudopotential, 'PBE' functional
  Generated using ONCVPSP code by D. R. Hamann
  Author: Martin Schlipf and Francois Gygi  Date: 150915.
  1 valence electrons, 1 orbitals, 2 projectors, 1166 radial grid points, with lMax = 0
  Transforming local potential to a uniform radial grid of dG=0.02 with 1419 points.
  Transforming nonlocal projectors to a uniform radial grid of dG=0.02 with 528 points.
    1S    l: 0   occupation:  1.0   eigenvalue: -0.238602
  Transforming atomic orbitals to a uniform radial grid of dG=0.02 with 528 points.
  Core radius for overlap checks: 1.01 bohrs.
  Reading pulay file /data2/jt577/jdftx_eat_withLibXC/build/pseudopotentials/SG15/H_ONCV_PBE.pulay ... using dE_dnG = -8.245991e-05 computed for Ecut = 30.

Initialized 6 species with 34 total atoms.

Folded 1 k-points by 3x3x1 to 9 k-points.

---------- Setting up k-points, bands, fillings ----------
No reducable k-points. 
Computing the number of bands and number of electrons
Calculating initial fillings.
nElectrons: 346.000000   nBands: 229   nStates: 18

----- Setting up reduced wavefunction bases (one per k-point) -----
average nbasis = 42312.000 , ideal nbasis = 42330.081

---------- Setting up ewald sum ----------
Optimum gaussian width for ewald sums = 3.887061 bohr.
Real space sum over 605 unit cells with max indices [  5  5  2  ]
Reciprocal space sum over 5915 terms with max indices [  6  6  17  ]

---------- Allocating electronic variables ----------
Initializing wave functions:  linear combination of atomic orbitals
Ni (M=1) pseudo-atom majority spin occupations:   s ( 1 0.5 )  p ( 3 )  d ( 5 )
Ni (M=1) pseudo-atom minority spin occupations:   s ( 1 0 )  p ( 3 )  d ( 4.5 )
Co (M=1) pseudo-atom majority spin occupations:   s ( 1 0 )  p ( 3 )  d ( 5 )
Co (M=1) pseudo-atom minority spin occupations:   s ( 1 0 )  p ( 3 )  d ( 4 )
V (M=1) pseudo-atom majority spin occupations:   s ( 1 0 )  p ( 3 )  d ( 3 )
V (M=1) pseudo-atom minority spin occupations:   s ( 1 0 )  p ( 3 )  d ( 2 )
Cr (M=1) pseudo-atom majority spin occupations:   s ( 1 0 )  p ( 3 )  d ( 3.5 )
Cr (M=1) pseudo-atom minority spin occupations:   s ( 1 0 )  p ( 3 )  d ( 2.5 )
O pseudo-atom occupations:   s ( 2 )  p ( 4 )
H pseudo-atom occupations:   s ( 1 )
	FillingsUpdate:  mu: -0.311059866  nElectrons: 346.000000  magneticMoment: [ Abs: 0.38150  Tot: -0.00000 ]
LCAOMinimize: Iter:   0  F: -1831.5658121625028798  |grad|_K:  1.079e-02  alpha:  1.000e+00
	FillingsUpdate:  mu: +0.098075736  nElectrons: 346.000000  magneticMoment: [ Abs: 0.38846  Tot: +0.00000 ]
LCAOMinimize: Iter:   1  F: -1857.8957764323956781  |grad|_K:  8.863e-03  alpha:  1.097e-01  linmin: -8.283e-02  cgtest: -6.100e-03  t[s]:    109.30
	FillingsUpdate:  mu: +0.113555622  nElectrons: 346.000000  magneticMoment: [ Abs: 0.44121  Tot: +0.00000 ]
LCAOMinimize: Iter:   2  F: -1858.4987425919746329  |grad|_K:  1.252e-02  alpha:  4.184e-03  linmin: -1.211e-01  cgtest:  6.960e-01  t[s]:    149.65
LCAOMinimize: 	Wrong curvature in test step, increasing alphaT to 1.255089e-02.
	FillingsUpdate:  mu: +0.070772311  nElectrons: 346.000000  magneticMoment: [ Abs: 2.29667  Tot: -0.00000 ]
LCAOMinimize: Iter:   3  F: -1863.5850441309751204  |grad|_K:  1.519e-02  alpha: -1.185e-03  linmin: -1.311e-01  cgtest:  4.810e-01  t[s]:    187.74
LCAOMinimize: 	Step increased F by 5.282812e+02, reducing alpha to 3.421324e-02.
	FillingsUpdate:  mu: +1.169468911  nElectrons: 346.000000  magneticMoment: [ Abs: 5.37689  Tot: +0.00000 ]
LCAOMinimize: Iter:   4  F: -1869.3224116165031319  |grad|_K:  2.532e-02  alpha:  3.421e-02  linmin:  1.568e-02  cgtest: -1.670e+00  t[s]:    255.02
LCAOMinimize: 	Bad step direction: g.d > 0.
LCAOMinimize: 	Undoing step.
LCAOMinimize: 	Step failed: resetting search direction.
	FillingsUpdate:  mu: +1.169468911  nElectrons: 346.000000  magneticMoment: [ Abs: 5.37689  Tot: +0.00000 ]
LCAOMinimize: Iter:   5  F: -1869.3224116165067699  |grad|_K:  2.532e-02  alpha:  0.000e+00
	FillingsUpdate:  mu: +0.816864452  nElectrons: 346.000000  magneticMoment: [ Abs: 6.58267  Tot: +0.00000 ]
LCAOMinimize: Iter:   6  F: -1879.2265350855345787  |grad|_K:  2.014e-02  alpha:  2.569e-02  linmin:  3.434e-02  cgtest: -5.492e-02  t[s]:    321.81
	FillingsUpdate:  mu: +0.629143847  nElectrons: 346.000000  magneticMoment: [ Abs: 6.44971  Tot: -0.00000 ]
LCAOMinimize: Iter:   7  F: -1883.9505404515791724  |grad|_K:  2.378e-02  alpha:  3.620e-02  linmin: -1.290e-03  cgtest:  7.547e-01  t[s]:    360.99
	FillingsUpdate:  mu: +0.008559507  nElectrons: 346.000000  magneticMoment: [ Abs: 7.08020  Tot: -0.00000 ]
LCAOMinimize: Iter:   8  F: -1889.8672006355291160  |grad|_K:  8.589e-03  alpha:  2.334e-02  linmin: -3.135e-02  cgtest:  3.303e-02  t[s]:    400.04
LCAOMinimize: 	Predicted alpha/alphaT>3.000000, increasing alphaT to 7.001455e-02.
	FillingsUpdate:  mu: -0.051846778  nElectrons: 346.000000  magneticMoment: [ Abs: 9.25546  Tot: -0.00000 ]
LCAOMinimize: Iter:   9  F: -1892.5961070001826556  |grad|_K:  1.404e-02  alpha:  7.682e-02  linmin:  2.686e-02  cgtest: -1.439e-01  t[s]:    450.86
LCAOMinimize: 	Step increased F by 1.036931e-02, reducing alpha to 2.287880e-04.
	FillingsUpdate:  mu: -0.048580156  nElectrons: 346.000000  magneticMoment: [ Abs: 9.31767  Tot: -0.00000 ]
LCAOMinimize: Iter:  10  F: -1892.6102433410092090  |grad|_K:  1.386e-02  alpha:  2.288e-04  linmin: -1.108e-02  cgtest:  9.940e-01  t[s]:    518.07
LCAOMinimize: Encountered beta<0, resetting CG.
LCAOMinimize: 	Predicted alpha/alphaT>3.000000, increasing alphaT to 6.863640e-04.
LCAOMinimize: 	Predicted alpha/alphaT>3.000000, increasing alphaT to 2.059092e-03.
LCAOMinimize: 	Predicted alpha/alphaT>3.000000, increasing alphaT to 6.177276e-03.
	FillingsUpdate:  mu: +0.170514321  nElectrons: 346.000000  magneticMoment: [ Abs: 10.43510  Tot: -0.00000 ]
LCAOMinimize: Iter:  11  F: -1893.4200727446875590  |grad|_K:  1.248e-02  alpha:  1.556e-02  linmin:  6.891e-02  cgtest: -6.903e-01  t[s]:    578.30
	FillingsUpdate:  mu: +0.186955978  nElectrons: 346.000000  magneticMoment: [ Abs: 10.46645  Tot: -0.00000 ]
LCAOMinimize: Iter:  12  F: -1893.4342092786312151  |grad|_K:  1.294e-02  alpha:  7.722e-04  linmin: -5.001e-03  cgtest:  9.942e-01  t[s]:    618.27
LCAOMinimize: 	Predicted alpha/alphaT>3.000000, increasing alphaT to 2.316484e-03.
LCAOMinimize: 	Predicted alpha/alphaT>3.000000, increasing alphaT to 6.949453e-03.
	FillingsUpdate:  mu: +0.044214123  nElectrons: 346.000000  magneticMoment: [ Abs: 9.76412  Tot: -0.00000 ]
LCAOMinimize: Iter:  13  F: -1894.2140675452246796  |grad|_K:  4.402e-03  alpha:  9.833e-03  linmin:  1.224e-02  cgtest: -1.083e-01  t[s]:    678.50
LCAOMinimize: 	Predicted alpha/alphaT>3.000000, increasing alphaT to 2.949806e-02.
	FillingsUpdate:  mu: +0.159949517  nElectrons: 346.000000  magneticMoment: [ Abs: 10.02845  Tot: -0.00000 ]
LCAOMinimize: Iter:  14  F: -1894.4721492962803495  |grad|_K:  3.464e-03  alpha:  2.617e-02  linmin:  2.890e-02  cgtest: -2.162e-01  t[s]:    728.53
	FillingsUpdate:  mu: +0.136943863  nElectrons: 346.000000  magneticMoment: [ Abs: 10.10535  Tot: +0.00000 ]
LCAOMinimize: Iter:  15  F: -1894.5451226814432175  |grad|_K:  3.303e-03  alpha:  2.065e-02  linmin: -1.204e-04  cgtest:  6.489e-01  t[s]:    768.14
	FillingsUpdate:  mu: +0.053666294  nElectrons: 346.000000  magneticMoment: [ Abs: 10.84701  Tot: -0.00000 ]
LCAOMinimize: Iter:  16  F: -1894.7096961026522877  |grad|_K:  2.071e-03  alpha:  3.551e-02  linmin:  1.847e-02  cgtest: -4.280e-01  t[s]:    809.40
	FillingsUpdate:  mu: +0.074061744  nElectrons: 346.000000  magneticMoment: [ Abs: 12.38860  Tot: +0.00000 ]
LCAOMinimize: Iter:  17  F: -1894.7896314908982731  |grad|_K:  2.795e-03  alpha:  5.946e-02  linmin:  7.555e-04  cgtest:  5.872e-01  t[s]:    849.89
	FillingsUpdate:  mu: +0.070394865  nElectrons: 346.000000  magneticMoment: [ Abs: 12.63130  Tot: -0.00000 ]
LCAOMinimize: Iter:  18  F: -1894.8500936786281272  |grad|_K:  1.940e-03  alpha:  1.624e-02  linmin:  9.088e-05  cgtest:  1.073e-02  t[s]:    889.53
	FillingsUpdate:  mu: +0.084676099  nElectrons: 346.000000  magneticMoment: [ Abs: 13.15756  Tot: +0.00000 ]
LCAOMinimize: Iter:  19  F: -1894.8810132884038921  |grad|_K:  1.210e-03  alpha:  1.735e-02  linmin:  1.406e-03  cgtest: -1.350e-01  t[s]:    928.90
LCAOMinimize: 	Predicted alpha/alphaT>3.000000, increasing alphaT to 5.203743e-02.
	FillingsUpdate:  mu: +0.079933466  nElectrons: 346.000000  magneticMoment: [ Abs: 14.85886  Tot: +0.00000 ]
LCAOMinimize: Iter:  20  F: -1894.9387631530935323  |grad|_K:  1.611e-03  alpha:  8.308e-02  linmin: -1.521e-03  cgtest:  4.251e-01  t[s]:    978.12
	FillingsUpdate:  mu: +0.081522897  nElectrons: 346.000000  magneticMoment: [ Abs: 16.70416  Tot: +0.00000 ]
LCAOMinimize: Iter:  21  F: -1895.0093528840200179  |grad|_K:  1.356e-03  alpha:  5.982e-02  linmin: -1.227e-03  cgtest: -6.157e-03  t[s]:   1016.40
	FillingsUpdate:  mu: +0.076527992  nElectrons: 346.000000  magneticMoment: [ Abs: 17.08513  Tot: -0.00000 ]
LCAOMinimize: Iter:  22  F: -1895.0291125613232452  |grad|_K:  1.440e-03  alpha:  2.558e-02  linmin:  1.761e-03  cgtest: -2.590e-01  t[s]:   1056.13
	FillingsUpdate:  mu: +0.068725407  nElectrons: 346.000000  magneticMoment: [ Abs: 18.64337  Tot: +0.00000 ]
LCAOMinimize: Iter:  23  F: -1895.0834121679358759  |grad|_K:  1.276e-03  alpha:  5.662e-02  linmin: -2.398e-03  cgtest:  8.135e-01  t[s]:   1096.70
	FillingsUpdate:  mu: +0.064928922  nElectrons: 346.000000  magneticMoment: [ Abs: 18.84072  Tot: +0.00000 ]
LCAOMinimize: Iter:  24  F: -1895.0968277175679759  |grad|_K:  7.546e-04  alpha:  1.553e-02  linmin: -1.178e-02  cgtest:  1.396e-01  t[s]:   1136.25
LCAOMinimize: 	Predicted alpha/alphaT>3.000000, increasing alphaT to 4.659068e-02.
	FillingsUpdate:  mu: +0.075084783  nElectrons: 346.000000  magneticMoment: [ Abs: 19.21915  Tot: -0.00000 ]
LCAOMinimize: Iter:  25  F: -1895.1183261204519113  |grad|_K:  6.179e-04  alpha:  7.276e-02  linmin: -7.980e-03  cgtest: -5.670e-02  t[s]:   1187.87
	FillingsUpdate:  mu: +0.073715253  nElectrons: 346.000000  magneticMoment: [ Abs: 19.70105  Tot: +0.00000 ]
LCAOMinimize: Iter:  26  F: -1895.1306010514449554  |grad|_K:  8.658e-04  alpha:  6.289e-02  linmin: -8.389e-04  cgtest: -6.519e-02  t[s]:   1227.22
	FillingsUpdate:  mu: +0.065517780  nElectrons: 346.000000  magneticMoment: [ Abs: 20.18624  Tot: +0.00000 ]
LCAOMinimize: Iter:  27  F: -1895.1436381167652598  |grad|_K:  5.763e-04  alpha:  3.815e-02  linmin:  6.854e-04  cgtest: -9.519e-02  t[s]:   1264.65
	FillingsUpdate:  mu: +0.066590901  nElectrons: 346.000000  magneticMoment: [ Abs: 21.12642  Tot: +0.00000 ]
LCAOMinimize: Iter:  28  F: -1895.1608996651914367  |grad|_K:  4.309e-04  alpha:  9.826e-02  linmin: -2.001e-02  cgtest:  5.803e-01  t[s]:   1303.11
	FillingsUpdate:  mu: +0.073994498  nElectrons: 346.000000  magneticMoment: [ Abs: 21.43147  Tot: +0.00000 ]
LCAOMinimize: Iter:  29  F: -1895.1715330461167923  |grad|_K:  6.427e-04  alpha:  1.142e-01  linmin: -1.772e-03  cgtest: -1.993e-02  t[s]:   1340.25
	FillingsUpdate:  mu: +0.075861238  nElectrons: 346.000000  magneticMoment: [ Abs: 21.78918  Tot: -0.00000 ]
LCAOMinimize: Iter:  30  F: -1895.1780966546871241  |grad|_K:  3.463e-04  alpha:  3.806e-02  linmin:  1.133e-02  cgtest: -2.369e-01  t[s]:   1378.73
LCAOMinimize: None of the convergence criteria satisfied after 30 iterations.


---- Citations for features of the code used in this run ----

   Software package:
      R. Sundararaman, K. Letchworth-Weaver, K.A. Schwarz, D. Gunceler, Y. Ozhabes and T.A. Arias, 'JDFTx: software for joint density-functional theory', SoftwareX 6, 278 (2017)

   Simplified rotationally-invariant DFT+U:
      S. L. Dudarev et al., Phys. Rev. B 57, 1505 (1998)

   LibXC library of exchange-correlation functions:
      M. A. L. Marques, M. J. T. Oliveira and T. Burnus, Comput. Phys. Commun. 183, 2272 (2012)

   Hammer, Hansen, and Norskov exchange functional:
      B. Hammer, L. B. Hansen, and J. K. Nørskov, Phys. Rev. B 59, 7413 (1999)

   Perdew, Burke & Ernzerhof correlation functional:
      J. P. Perdew, K. Burke, and M. Ernzerhof, Phys. Rev. Lett. 77, 3865 (1996)

   Pseudopotentials:
      M Schlipf and F Gygi, Comput. Phys. Commun. 196, 36 (2015)

   Total energy minimization with Auxiliary Hamiltonian:
      C. Freysoldt, S. Boeck, and J. Neugebauer, Phys. Rev. B 79, 241103(R) (2009)

This list may not be complete. Please suggest additional citations or
report any other bugs at https://github.com/shankar1729/jdftx/issues

Initialization completed successfully at t[s]:   1391.72


-------- Electronic minimization -----------
	FillingsUpdate:  mu: +0.075861239  nElectrons: 346.000000  magneticMoment: [ Abs: 21.78918  Tot: -0.00000 ]
ElecMinimize: Iter:   0  F: -1895.178096654687351  |grad|_K:  9.520e-04  alpha:  1.000e+00
	FillingsUpdate:  mu: +0.228281119  nElectrons: 346.000000  magneticMoment: [ Abs: 21.98144  Tot: -0.00000 ]
	SubspaceRotationAdjust: set factor to 0.999
ElecMinimize: Iter:   1  F: -1939.128553659570571  |grad|_K:  1.119e-03  alpha:  4.819e-01  linmin:  1.495e-02  t[s]:   1515.11
	FillingsUpdate:  mu: +0.618844675  nElectrons: 346.000000  magneticMoment: [ Abs: 24.20190  Tot: +0.00000 ]
	SubspaceRotationAdjust: set factor to 0.741
ElecMinimize: Iter:   2  F: -1946.429406020542729  |grad|_K:  1.160e-03  alpha:  9.576e-02  linmin:  5.550e-04  t[s]:   1598.52
	FillingsUpdate:  mu: +0.727689283  nElectrons: 346.000000  magneticMoment: [ Abs: 23.55851  Tot: +0.00000 ]
	SubspaceRotationAdjust: set factor to 0.404
ElecMinimize: Iter:   3  F: -1951.280529160944980  |grad|_K:  1.110e-03  alpha:  3.348e-02  linmin:  2.845e-03  t[s]:   1681.85
	FillingsUpdate:  mu: +0.781511320  nElectrons: 346.000000  magneticMoment: [ Abs: 24.35916  Tot: +0.00000 ]
	SubspaceRotationAdjust: set factor to 0.273
ElecMinimize: Iter:   4  F: -1958.591338224411174  |grad|_K:  9.412e-04  alpha:  5.045e-02  linmin: -1.156e-03  t[s]:   1764.47
	FillingsUpdate:  mu: +0.457802976  nElectrons: 346.000000  magneticMoment: [ Abs: 26.03598  Tot: +0.00000 ]
	SubspaceRotationAdjust: set factor to 0.277
ElecMinimize: Iter:   5  F: -1964.759815755802265  |grad|_K:  4.498e-04  alpha:  2.172e-02  linmin: -1.442e-03  t[s]:   1848.82
ElecMinimize: 	Predicted alpha/alphaT>3.000000, increasing alphaT to 6.516339e-02.
	FillingsUpdate:  mu: +0.608498698  nElectrons: 346.000000  magneticMoment: [ Abs: 26.74040  Tot: -0.00000 ]
	SubspaceRotationAdjust: set factor to 0.19
ElecMinimize: Iter:   6  F: -1967.477536108994627  |grad|_K:  6.640e-04  alpha:  5.758e-02  linmin:  6.519e-04  t[s]:   1955.16
	FillingsUpdate:  mu: +0.547624865  nElectrons: 346.000000  magneticMoment: [ Abs: 26.79888  Tot: -0.00000 ]
	SubspaceRotationAdjust: set factor to 0.119
	SubspaceRotationAdjust: resetting CG because factor has changed by 0.118741
ElecMinimize: 	State modified externally: resetting search direction.
ElecMinimize: Iter:   7  F: -1968.695359259632141  |grad|_K:  5.527e-04  alpha:  1.869e-02
ElecMinimize: 	Predicted alpha/alphaT>3.000000, increasing alphaT to 5.606086e-02.
	FillingsUpdate:  mu: +0.537890457  nElectrons: 346.000000  magneticMoment: [ Abs: 25.59977  Tot: +0.00000 ]
	SubspaceRotationAdjust: set factor to 0.0498
ElecMinimize: Iter:   8  F: -1973.134417911324817  |grad|_K:  3.676e-04  alpha:  1.206e-01  linmin:  3.466e-02  t[s]:   2183.98
	FillingsUpdate:  mu: +0.183389880  nElectrons: 346.000000  magneticMoment: [ Abs: 25.81962  Tot: -0.00000 ]
	SubspaceRotationAdjust: set factor to 0.0265
ElecMinimize: Iter:   9  F: -1976.002875982299429  |grad|_K:  1.323e-04  alpha:  2.274e-01  linmin:  6.393e-03  t[s]:   2267.42
	FillingsUpdate:  mu: +0.146214309  nElectrons: 346.000000  magneticMoment: [ Abs: 26.07654  Tot: -0.00000 ]
	SubspaceRotationAdjust: set factor to 0.0358
ElecMinimize: Iter:  10  F: -1976.673916704230351  |grad|_K:  5.667e-05  alpha:  2.505e-01  linmin:  9.797e-05  t[s]:   2351.28
	FillingsUpdate:  mu: +0.169276514  nElectrons: 346.000000  magneticMoment: [ Abs: 26.28760  Tot: +0.00000 ]
	SubspaceRotationAdjust: set factor to 0.0394
ElecMinimize: Iter:  11  F: -1976.878748870175741  |grad|_K:  4.010e-05  alpha:  3.652e-01  linmin: -6.280e-04  t[s]:   2434.04
	FillingsUpdate:  mu: +0.148361009  nElectrons: 346.000000  magneticMoment: [ Abs: 26.58055  Tot: -0.00000 ]
	SubspaceRotationAdjust: set factor to 0.0486
ElecMinimize: Iter:  12  F: -1977.003234462514456  |grad|_K:  3.506e-05  alpha:  4.286e-01  linmin: -3.397e-04  t[s]:   2516.29
	FillingsUpdate:  mu: +0.122991937  nElectrons: 346.000000  magneticMoment: [ Abs: 26.93784  Tot: -0.00000 ]
	SubspaceRotationAdjust: set factor to 0.0596
ElecMinimize: Iter:  13  F: -1977.101670851261588  |grad|_K:  3.346e-05  alpha:  4.390e-01  linmin: -2.531e-04  t[s]:   2599.26
	FillingsUpdate:  mu: +0.121080049  nElectrons: 346.000000  magneticMoment: [ Abs: 27.36537  Tot: +0.00000 ]
	SubspaceRotationAdjust: set factor to 0.0715
ElecMinimize: Iter:  14  F: -1977.198281143422946  |grad|_K:  3.405e-05  alpha:  4.658e-01  linmin: -3.162e-04  t[s]:   2681.92
	FillingsUpdate:  mu: +0.130623190  nElectrons: 346.000000  magneticMoment: [ Abs: 27.95873  Tot: +0.00000 ]
	SubspaceRotationAdjust: set factor to 0.0855
ElecMinimize: Iter:  15  F: -1977.311874602480884  |grad|_K:  3.508e-05  alpha:  4.991e-01  linmin: -3.025e-04  t[s]:   2764.86
	FillingsUpdate:  mu: +0.138712280  nElectrons: 346.000000  magneticMoment: [ Abs: 28.76176  Tot: +0.00000 ]
	SubspaceRotationAdjust: set factor to 0.0987
ElecMinimize: Iter:  16  F: -1977.443502091874279  |grad|_K:  3.975e-05  alpha:  5.180e-01  linmin: -2.545e-04  t[s]:   2847.94
	FillingsUpdate:  mu: +0.142753659  nElectrons: 346.000000  magneticMoment: [ Abs: 30.03194  Tot: -0.00000 ]
	SubspaceRotationAdjust: set factor to 0.11
ElecMinimize: Iter:  17  F: -1977.639095833014608  |grad|_K:  4.739e-05  alpha:  5.751e-01  linmin: -1.967e-04  t[s]:   2930.62
	FillingsUpdate:  mu: +0.142455860  nElectrons: 346.000000  magneticMoment: [ Abs: 30.53771  Tot: +0.00000 ]
	SubspaceRotationAdjust: set factor to 0.122
ElecMinimize: Iter:  18  F: -1977.749255248091913  |grad|_K:  4.760e-05  alpha:  1.792e-01  linmin: -5.576e-04  t[s]:   3014.67
	FillingsUpdate:  mu: +0.141538955  nElectrons: 346.000000  magneticMoment: [ Abs: 31.01719  Tot: -0.00000 ]
	SubspaceRotationAdjust: set factor to 0.0906
ElecMinimize: Iter:  19  F: -1977.876117432050933  |grad|_K:  7.311e-05  alpha:  2.064e-01  linmin:  1.576e-04  t[s]:   3098.43
ElecMinimize: 	Step increased F by 4.956588e-02, reducing alpha to 2.289114e-04.
ElecMinimize: 	Step increased F by 5.267635e-02, reducing alpha to 2.289114e-05.
ElecMinimize: 	Step increased F by 5.299587e-02, reducing alpha to 2.289114e-06.
ElecMinimize: 	Step failed to reduce F after 3 attempts. Quitting step.
ElecMinimize: 	Undoing step.
ElecMinimize: 	Step failed: resetting search direction.
	FillingsUpdate:  mu: +0.136040447  nElectrons: 346.000000  magneticMoment: [ Abs: 31.00968  Tot: -0.00000 ]
	SubspaceRotationAdjust: set factor to 0.0752
ElecMinimize: Iter:  20  F: -1977.823118002234196  |grad|_K:  6.655e-05  alpha:  2.289e-06
	FillingsUpdate:  mu: +0.140277675  nElectrons: 346.000000  magneticMoment: [ Abs: 31.11019  Tot: -0.00000 ]
	SubspaceRotationAdjust: set factor to 0.0527
ElecMinimize: Iter:  21  F: -1977.936470313809878  |grad|_K:  3.400e-05  alpha:  1.496e-01  linmin:  1.989e-04  t[s]:   3426.52
	FillingsUpdate:  mu: +0.136443934  nElectrons: 346.000000  magneticMoment: [ Abs: 31.19945  Tot: +0.00000 ]
	SubspaceRotationAdjust: set factor to 0.0513
ElecMinimize: Iter:  22  F: -1978.013268938755573  |grad|_K:  2.748e-05  alpha:  3.808e-01  linmin: -2.711e-04  t[s]:   3510.47
	FillingsUpdate:  mu: +0.125341919  nElectrons: 346.000000  magneticMoment: [ Abs: 31.33238  Tot: -0.00000 ]
	SubspaceRotationAdjust: set factor to 0.0637
ElecMinimize: Iter:  23  F: -1978.069738947069709  |grad|_K:  2.636e-05  alpha:  4.205e-01  linmin: -2.974e-04  t[s]:   3593.66
	FillingsUpdate:  mu: +0.127193842  nElectrons: 346.000000  magneticMoment: [ Abs: 31.57972  Tot: +0.00000 ]
	SubspaceRotationAdjust: set factor to 0.0708
ElecMinimize: Iter:  24  F: -1978.116191713329727  |grad|_K:  2.295e-05  alpha:  3.716e-01  linmin: -2.969e-04  t[s]:   3676.38
	FillingsUpdate:  mu: +0.112962675  nElectrons: 346.000000  magneticMoment: [ Abs: 31.96592  Tot: -0.00000 ]
	SubspaceRotationAdjust: set factor to 0.0824
ElecMinimize: Iter:  25  F: -1978.156835907819868  |grad|_K:  2.133e-05  alpha:  4.259e-01  linmin: -2.275e-04  t[s]:   3759.38
	FillingsUpdate:  mu: +0.120177364  nElectrons: 346.000000  magneticMoment: [ Abs: 32.47529  Tot: -0.00000 ]
	SubspaceRotationAdjust: set factor to 0.0968
ElecMinimize: Iter:  26  F: -1978.196352561101548  |grad|_K:  2.295e-05  alpha:  4.762e-01  linmin: -2.270e-04  t[s]:   3842.91
	FillingsUpdate:  mu: +0.123792227  nElectrons: 346.000000  magneticMoment: [ Abs: 33.26742  Tot: -0.00000 ]
	SubspaceRotationAdjust: set factor to 0.108
ElecMinimize: Iter:  27  F: -1978.247649312755584  |grad|_K:  2.860e-05  alpha:  5.242e-01  linmin: -1.707e-04  t[s]:   3925.58
	FillingsUpdate:  mu: +0.114773517  nElectrons: 346.000000  magneticMoment: [ Abs: 34.44328  Tot: +0.00000 ]
	SubspaceRotationAdjust: set factor to 0.111
ElecMinimize: Iter:  28  F: -1978.314805764330231  |grad|_K:  3.307e-05  alpha:  4.141e-01  linmin:  1.390e-05  t[s]:   4008.94
	FillingsUpdate:  mu: +0.121958758  nElectrons: 346.000000  magneticMoment: [ Abs: 35.48406  Tot: +0.00000 ]
	SubspaceRotationAdjust: set factor to 0.137
ElecMinimize: Iter:  29  F: -1978.364241330691357  |grad|_K:  3.716e-05  alpha:  2.736e-01  linmin: -7.978e-05  t[s]:   4092.78
	FillingsUpdate:  mu: +0.118790827  nElectrons: 346.000000  magneticMoment: [ Abs: 35.85520  Tot: +0.00000 ]
	SubspaceRotationAdjust: set factor to 0.19
ElecMinimize: Iter:  30  F: -1978.399780208893389  |grad|_K:  3.100e-05  alpha:  9.544e-02  linmin: -1.138e-03  t[s]:   4176.59
	FillingsUpdate:  mu: +0.120870789  nElectrons: 346.000000  magneticMoment: [ Abs: 36.14322  Tot: +0.00000 ]
	SubspaceRotationAdjust: set factor to 0.216
ElecMinimize: Iter:  31  F: -1978.435013019634880  |grad|_K:  2.302e-05  alpha:  1.409e-01  linmin:  4.508e-04  t[s]:   4260.65
	FillingsUpdate:  mu: +0.121155436  nElectrons: 346.000000  magneticMoment: [ Abs: 36.23644  Tot: +0.00000 ]
	SubspaceRotationAdjust: set factor to 0.263
ElecMinimize: Iter:  32  F: -1978.440615252099178  |grad|_K:  2.193e-05  alpha:  6.150e-02  linmin: -3.167e-04  t[s]:   4343.75
	FillingsUpdate:  mu: +0.117901589  nElectrons: 346.000000  magneticMoment: [ Abs: 36.36854  Tot: +0.00000 ]
	SubspaceRotationAdjust: set factor to 0.342
ElecMinimize: Iter:  33  F: -1978.446508485974846  |grad|_K:  2.029e-05  alpha:  6.366e-02  linmin:  2.663e-04  t[s]:   4426.63
	FillingsUpdate:  mu: +0.114483993  nElectrons: 346.000000  magneticMoment: [ Abs: 36.47089  Tot: +0.00000 ]
	SubspaceRotationAdjust: set factor to 0.315
ElecMinimize: Iter:  34  F: -1978.449336499461424  |grad|_K:  2.064e-05  alpha:  4.088e-02  linmin: -3.187e-05  t[s]:   4509.56
	FillingsUpdate:  mu: +0.111184021  nElectrons: 346.000000  magneticMoment: [ Abs: 36.59081  Tot: -0.00000 ]
	SubspaceRotationAdjust: set factor to 0.26
ElecMinimize: Iter:  35  F: -1978.452148054660711  |grad|_K:  1.973e-05  alpha:  3.736e-02  linmin:  6.005e-05  t[s]:   4593.12
	FillingsUpdate:  mu: +0.107354246  nElectrons: 346.000000  magneticMoment: [ Abs: 36.70875  Tot: -0.00000 ]
	SubspaceRotationAdjust: set factor to 0.216
ElecMinimize: Iter:  36  F: -1978.454694244273924  |grad|_K:  1.869e-05  alpha:  3.782e-02  linmin:  1.174e-04  t[s]:   4676.98
	FillingsUpdate:  mu: +0.107211834  nElectrons: 346.000000  magneticMoment: [ Abs: 36.80906  Tot: +0.00000 ]
	SubspaceRotationAdjust: set factor to 0.178
ElecMinimize: Iter:  37  F: -1978.456887486182040  |grad|_K:  1.848e-05  alpha:  3.640e-02  linmin:  3.662e-04  t[s]:   4760.76
	FillingsUpdate:  mu: +0.113406855  nElectrons: 346.000000  magneticMoment: [ Abs: 36.89009  Tot: -0.00000 ]
	SubspaceRotationAdjust: set factor to 0.137
ElecMinimize: Iter:  38  F: -1978.458604990800495  |grad|_K:  1.907e-05  alpha:  2.978e-02  linmin:  1.072e-04  t[s]:   4842.94
	FillingsUpdate:  mu: +0.114450632  nElectrons: 346.000000  magneticMoment: [ Abs: 36.98394  Tot: +0.00000 ]
	SubspaceRotationAdjust: set factor to 0.0991
ElecMinimize: Iter:  39  F: -1978.460546800127304  |grad|_K:  1.925e-05  alpha:  3.104e-02  linmin:  5.243e-05  t[s]:   4926.33
	FillingsUpdate:  mu: +0.114047845  nElectrons: 346.000000  magneticMoment: [ Abs: 37.09467  Tot: -0.00000 ]
	SubspaceRotationAdjust: set factor to 0.0737
ElecMinimize: Iter:  40  F: -1978.462750150443981  |grad|_K:  1.777e-05  alpha:  3.423e-02  linmin: -1.161e-04  t[s]:   5009.48
	FillingsUpdate:  mu: +0.114307825  nElectrons: 346.000000  magneticMoment: [ Abs: 37.21468  Tot: -0.00000 ]
	SubspaceRotationAdjust: set factor to 0.065
ElecMinimize: Iter:  41  F: -1978.465039812672785  |grad|_K:  1.545e-05  alpha:  4.084e-02  linmin: -1.797e-04  t[s]:   5092.69
	FillingsUpdate:  mu: +0.109225089  nElectrons: 346.000000  magneticMoment: [ Abs: 37.33292  Tot: -0.00000 ]
	SubspaceRotationAdjust: set factor to 0.072
ElecMinimize: Iter:  42  F: -1978.467141511640648  |grad|_K:  1.415e-05  alpha:  4.920e-02  linmin: -1.921e-04  t[s]:   5176.40
	FillingsUpdate:  mu: +0.103308755  nElectrons: 346.000000  magneticMoment: [ Abs: 37.45049  Tot: -0.00000 ]
	SubspaceRotationAdjust: set factor to 0.08
ElecMinimize: Iter:  43  F: -1978.469110875662864  |grad|_K:  1.423e-05  alpha:  5.492e-02  linmin: -2.089e-04  t[s]:   5260.66
	FillingsUpdate:  mu: +0.105391777  nElectrons: 346.000000  magneticMoment: [ Abs: 37.57241  Tot: -0.00000 ]
	SubspaceRotationAdjust: set factor to 0.0778
ElecMinimize: Iter:  44  F: -1978.471118697985503  |grad|_K:  1.502e-05  alpha:  5.531e-02  linmin: -2.294e-04  t[s]:   5344.25
	FillingsUpdate:  mu: +0.108793792  nElectrons: 346.000000  magneticMoment: [ Abs: 37.69885  Tot: +0.00000 ]
	SubspaceRotationAdjust: set factor to 0.0752
ElecMinimize: Iter:  45  F: -1978.473270076759945  |grad|_K:  1.551e-05  alpha:  5.304e-02  linmin: -2.456e-04  t[s]:   5427.70
	FillingsUpdate:  mu: +0.110418364  nElectrons: 346.000000  magneticMoment: [ Abs: 37.82333  Tot: -0.00000 ]
	SubspaceRotationAdjust: set factor to 0.0831
ElecMinimize: Iter:  46  F: -1978.475520787003916  |grad|_K:  1.564e-05  alpha:  5.183e-02  linmin: -2.686e-04  t[s]:   5510.49
	FillingsUpdate:  mu: +0.111884895  nElectrons: 346.000000  magneticMoment: [ Abs: 37.94308  Tot: +0.00000 ]
	SubspaceRotationAdjust: set factor to 0.106
ElecMinimize: Iter:  47  F: -1978.477836719853713  |grad|_K:  1.576e-05  alpha:  5.210e-02  linmin: -3.045e-04  t[s]:   5593.49
	FillingsUpdate:  mu: +0.110869424  nElectrons: 346.000000  magneticMoment: [ Abs: 38.05846  Tot: +0.00000 ]
	SubspaceRotationAdjust: set factor to 0.136
ElecMinimize: Iter:  48  F: -1978.480193892852640  |grad|_K:  1.600e-05  alpha:  5.174e-02  linmin: -3.180e-04  t[s]:   5676.88
	FillingsUpdate:  mu: +0.116844696  nElectrons: 346.000000  magneticMoment: [ Abs: 38.17591  Tot: -0.00000 ]
	SubspaceRotationAdjust: set factor to 0.153
ElecMinimize: Iter:  49  F: -1978.482579250638310  |grad|_K:  1.668e-05  alpha:  5.069e-02  linmin: -2.932e-04  t[s]:   5759.98
	FillingsUpdate:  mu: +0.119572870  nElectrons: 346.000000  magneticMoment: [ Abs: 38.31438  Tot: +0.00000 ]
	SubspaceRotationAdjust: set factor to 0.161
ElecMinimize: Iter:  50  F: -1978.485095358752460  |grad|_K:  1.757e-05  alpha:  4.934e-02  linmin: -2.556e-04  t[s]:   5843.82
	FillingsUpdate:  mu: +0.120346715  nElectrons: 346.000000  magneticMoment: [ Abs: 38.48703  Tot: +0.00000 ]
	SubspaceRotationAdjust: set factor to 0.193
ElecMinimize: Iter:  51  F: -1978.487748679274773  |grad|_K:  1.791e-05  alpha:  4.710e-02  linmin: -2.114e-04  t[s]:   5927.34
	FillingsUpdate:  mu: +0.122675815  nElectrons: 346.000000  magneticMoment: [ Abs: 38.68745  Tot: +0.00000 ]
	SubspaceRotationAdjust: set factor to 0.26
ElecMinimize: Iter:  52  F: -1978.490418630718750  |grad|_K:  1.831e-05  alpha:  4.580e-02  linmin: -2.008e-04  t[s]:   6010.75
	FillingsUpdate:  mu: +0.126175887  nElectrons: 346.000000  magneticMoment: [ Abs: 38.91376  Tot: +0.00000 ]
	SubspaceRotationAdjust: set factor to 0.33
ElecMinimize: Iter:  53  F: -1978.493320070822847  |grad|_K:  1.946e-05  alpha:  4.734e-02  linmin: -2.357e-04  t[s]:   6094.89
	FillingsUpdate:  mu: +0.127652598  nElectrons: 346.000000  magneticMoment: [ Abs: 39.16870  Tot: +0.00000 ]
	SubspaceRotationAdjust: set factor to 0.435
ElecMinimize: Iter:  54  F: -1978.496827930496693  |grad|_K:  2.040e-05  alpha:  5.003e-02  linmin: -1.955e-04  t[s]:   6178.67
	FillingsUpdate:  mu: +0.128112706  nElectrons: 346.000000  magneticMoment: [ Abs: 39.39762  Tot: -0.00000 ]
	SubspaceRotationAdjust: set factor to 0.567
ElecMinimize: Iter:  55  F: -1978.500310919532694  |grad|_K:  2.038e-05  alpha:  4.568e-02  linmin: -8.991e-05  t[s]:   6261.86
	FillingsUpdate:  mu: +0.125912216  nElectrons: 346.000000  magneticMoment: [ Abs: 39.59935  Tot: -0.00000 ]
	SubspaceRotationAdjust: set factor to 0.711
ElecMinimize: Iter:  56  F: -1978.503511060511983  |grad|_K:  2.203e-05  alpha:  4.305e-02  linmin: -6.217e-05  t[s]:   6345.18
	FillingsUpdate:  mu: +0.124665242  nElectrons: 346.000000  magneticMoment: [ Abs: 39.82789  Tot: -0.00000 ]
	SubspaceRotationAdjust: set factor to 0.945
	SubspaceRotationAdjust: resetting CG because factor has changed by 7.9572
ElecMinimize: 	State modified externally: resetting search direction.
ElecMinimize: Iter:  57  F: -1978.507065185573538  |grad|_K:  2.357e-05  alpha:  4.118e-02
ElecMinimize: 	Predicted alpha/alphaT>3.000000, increasing alphaT to 1.235407e-01.
	FillingsUpdate:  mu: +0.139586988  nElectrons: 346.000000  magneticMoment: [ Abs: 39.90222  Tot: -0.00000 ]
	SubspaceRotationAdjust: set factor to 0.526
ElecMinimize: Iter:  58  F: -1978.520526772342919  |grad|_K:  4.726e-05  alpha:  1.360e-01  linmin: -1.823e-03  t[s]:   6575.32
	FillingsUpdate:  mu: +0.129171252  nElectrons: 346.000000  magneticMoment: [ Abs: 39.68981  Tot: -0.00000 ]
	SubspaceRotationAdjust: set factor to 0.227
ElecMinimize: Iter:  59  F: -1978.548063295824022  |grad|_K:  2.103e-05  alpha:  5.603e-02  linmin: -1.019e-03  t[s]:   6659.24
ElecMinimize: 	Predicted alpha/alphaT>3.000000, increasing alphaT to 1.680799e-01.
	FillingsUpdate:  mu: +0.134449025  nElectrons: 346.000000  magneticMoment: [ Abs: 39.82497  Tot: -0.00000 ]
	SubspaceRotationAdjust: set factor to 0.143
ElecMinimize: Iter:  60  F: -1978.565624348777192  |grad|_K:  2.210e-05  alpha:  2.053e-01  linmin: -1.130e-03  t[s]:   6765.06
	FillingsUpdate:  mu: +0.126482135  nElectrons: 346.000000  magneticMoment: [ Abs: 39.72571  Tot: -0.00000 ]
	SubspaceRotationAdjust: set factor to 0.0764
	SubspaceRotationAdjust: resetting CG because factor has changed by 0.0808244
ElecMinimize: 	State modified externally: resetting search direction.
ElecMinimize: Iter:  61  F: -1978.582756990547068  |grad|_K:  1.344e-05  alpha:  1.806e-01
	FillingsUpdate:  mu: +0.120152809  nElectrons: 346.000000  magneticMoment: [ Abs: 39.76275  Tot: -0.00000 ]
	SubspaceRotationAdjust: set factor to 0.163
ElecMinimize: Iter:  62  F: -1978.589085319141304  |grad|_K:  7.380e-06  alpha:  2.003e-01  linmin: -7.256e-04  t[s]:   6971.46
	FillingsUpdate:  mu: +0.120954463  nElectrons: 346.000000  magneticMoment: [ Abs: 39.77191  Tot: -0.00000 ]
	SubspaceRotationAdjust: set factor to 0.174
ElecMinimize: Iter:  63  F: -1978.593777170294743  |grad|_K:  6.834e-06  alpha:  4.913e-01  linmin:  9.997e-05  t[s]:   7055.90
	FillingsUpdate:  mu: +0.126686652  nElectrons: 346.000000  magneticMoment: [ Abs: 39.78864  Tot: +0.00000 ]
	SubspaceRotationAdjust: set factor to 0.137
ElecMinimize: Iter:  64  F: -1978.597189408640816  |grad|_K:  9.023e-06  alpha:  4.179e-01  linmin:  1.309e-04  t[s]:   7140.36
	FillingsUpdate:  mu: +0.124523193  nElectrons: 346.000000  magneticMoment: [ Abs: 39.87308  Tot: +0.00000 ]
	SubspaceRotationAdjust: set factor to 0.0918
ElecMinimize: Iter:  65  F: -1978.599800937874988  |grad|_K:  6.238e-06  alpha:  1.912e-01  linmin:  1.047e-03  t[s]:   7224.93
	FillingsUpdate:  mu: +0.125728890  nElectrons: 346.000000  magneticMoment: [ Abs: 39.88514  Tot: +0.00000 ]
	SubspaceRotationAdjust: set factor to 0.14
ElecMinimize: Iter:  66  F: -1978.601462613728245  |grad|_K:  3.839e-06  alpha:  2.509e-01  linmin:  1.421e-04  t[s]:   7308.66
	FillingsUpdate:  mu: +0.124471803  nElectrons: 346.000000  magneticMoment: [ Abs: 39.87439  Tot: +0.00000 ]
	SubspaceRotationAdjust: set factor to 0.136
ElecMinimize: Iter:  67  F: -1978.602223161959728  |grad|_K:  3.225e-06  alpha:  2.967e-01  linmin:  3.357e-04  t[s]:   7391.65
	FillingsUpdate:  mu: +0.123060182  nElectrons: 346.000000  magneticMoment: [ Abs: 39.89587  Tot: +0.00000 ]
	SubspaceRotationAdjust: set factor to 0.124
ElecMinimize: Iter:  68  F: -1978.602728949168295  |grad|_K:  2.941e-06  alpha:  2.808e-01  linmin: -9.048e-05  t[s]:   7475.35
	FillingsUpdate:  mu: +0.122776022  nElectrons: 346.000000  magneticMoment: [ Abs: 39.90176  Tot: -0.00000 ]
	SubspaceRotationAdjust: set factor to 0.138
ElecMinimize: Iter:  69  F: -1978.603267970090883  |grad|_K:  2.667e-06  alpha:  3.548e-01  linmin: -2.312e-05  t[s]:   7558.33
	FillingsUpdate:  mu: +0.121482306  nElectrons: 346.000000  magneticMoment: [ Abs: 39.92473  Tot: -0.00000 ]
	SubspaceRotationAdjust: set factor to 0.161
ElecMinimize: Iter:  70  F: -1978.603843063333215  |grad|_K:  2.989e-06  alpha:  4.619e-01  linmin:  1.203e-05  t[s]:   7641.75
	FillingsUpdate:  mu: +0.119848215  nElectrons: 346.000000  magneticMoment: [ Abs: 39.97046  Tot: -0.00000 ]
	SubspaceRotationAdjust: set factor to 0.149
ElecMinimize: Iter:  71  F: -1978.604459648499414  |grad|_K:  3.547e-06  alpha:  3.955e-01  linmin: -2.023e-05  t[s]:   7724.94
	FillingsUpdate:  mu: +0.120428310  nElectrons: 346.000000  magneticMoment: [ Abs: 39.97794  Tot: -0.00000 ]
	SubspaceRotationAdjust: set factor to 0.117
ElecMinimize: Iter:  72  F: -1978.605055851758380  |grad|_K:  3.312e-06  alpha:  2.701e-01  linmin:  5.665e-07  t[s]:   7808.72
	FillingsUpdate:  mu: +0.121539297  nElectrons: 346.000000  magneticMoment: [ Abs: 40.01635  Tot: +0.00000 ]
	SubspaceRotationAdjust: set factor to 0.131
ElecMinimize: Iter:  73  F: -1978.605719491268246  |grad|_K:  2.690e-06  alpha:  3.457e-01  linmin: -1.966e-05  t[s]:   7892.42
	FillingsUpdate:  mu: +0.121277169  nElectrons: 346.000000  magneticMoment: [ Abs: 40.04459  Tot: -0.00000 ]
	SubspaceRotationAdjust: set factor to 0.139
ElecMinimize: Iter:  74  F: -1978.606161170033374  |grad|_K:  2.416e-06  alpha:  3.482e-01  linmin: -3.520e-05  t[s]:   7976.42
	FillingsUpdate:  mu: +0.121075586  nElectrons: 346.000000  magneticMoment: [ Abs: 40.05045  Tot: -0.00000 ]
	SubspaceRotationAdjust: set factor to 0.122
ElecMinimize: Iter:  75  F: -1978.606496501172160  |grad|_K:  2.296e-06  alpha:  3.274e-01  linmin:  2.104e-05  t[s]:   8059.61
	FillingsUpdate:  mu: +0.121897228  nElectrons: 346.000000  magneticMoment: [ Abs: 40.07948  Tot: +0.00000 ]
	SubspaceRotationAdjust: set factor to 0.11
ElecMinimize: Iter:  76  F: -1978.606810271214499  |grad|_K:  2.129e-06  alpha:  3.406e-01  linmin: -1.527e-04  t[s]:   8142.68
	FillingsUpdate:  mu: +0.122047626  nElectrons: 346.000000  magneticMoment: [ Abs: 40.08817  Tot: +0.00000 ]
	SubspaceRotationAdjust: set factor to 0.122
ElecMinimize: Iter:  77  F: -1978.607104436892769  |grad|_K:  1.909e-06  alpha:  3.668e-01  linmin:  8.911e-05  t[s]:   8225.76
	FillingsUpdate:  mu: +0.121471569  nElectrons: 346.000000  magneticMoment: [ Abs: 40.09052  Tot: -0.00000 ]
	SubspaceRotationAdjust: set factor to 0.135
ElecMinimize: Iter:  78  F: -1978.607328608486114  |grad|_K:  1.755e-06  alpha:  3.536e-01  linmin:  1.858e-04  t[s]:   8309.72
	FillingsUpdate:  mu: +0.121427535  nElectrons: 346.000000  magneticMoment: [ Abs: 40.10559  Tot: +0.00000 ]
	SubspaceRotationAdjust: set factor to 0.127
ElecMinimize: Iter:  79  F: -1978.607524461709545  |grad|_K:  1.736e-06  alpha:  3.667e-01  linmin: -3.469e-04  t[s]:   8395.38
	FillingsUpdate:  mu: +0.121365389  nElectrons: 346.000000  magneticMoment: [ Abs: 40.09882  Tot: +0.00000 ]
	SubspaceRotationAdjust: set factor to 0.122
ElecMinimize: Iter:  80  F: -1978.607710778727096  |grad|_K:  1.825e-06  alpha:  3.459e-01  linmin:  4.760e-04  t[s]:   8480.06
	FillingsUpdate:  mu: +0.121272071  nElectrons: 346.000000  magneticMoment: [ Abs: 40.09990  Tot: +0.00000 ]
	SubspaceRotationAdjust: set factor to 0.154
ElecMinimize: Iter:  81  F: -1978.607958764566774  |grad|_K:  2.033e-06  alpha:  4.431e-01  linmin:  4.317e-04  t[s]:   8564.17
	FillingsUpdate:  mu: +0.120834886  nElectrons: 346.000000  magneticMoment: [ Abs: 40.10443  Tot: -0.00000 ]
	SubspaceRotationAdjust: set factor to 0.171
ElecMinimize: Iter:  82  F: -1978.608219943247832  |grad|_K:  2.343e-06  alpha:  3.740e-01  linmin:  7.856e-06  t[s]:   8649.00
	FillingsUpdate:  mu: +0.120358997  nElectrons: 346.000000  magneticMoment: [ Abs: 40.09308  Tot: -0.00000 ]
	SubspaceRotationAdjust: set factor to 0.163
ElecMinimize: Iter:  83  F: -1978.608485909736373  |grad|_K:  2.696e-06  alpha:  2.585e-01  linmin: -7.895e-06  t[s]:   8733.66
	FillingsUpdate:  mu: +0.119964279  nElectrons: 346.000000  magneticMoment: [ Abs: 40.09401  Tot: -0.00000 ]
	SubspaceRotationAdjust: set factor to 0.175
ElecMinimize: Iter:  84  F: -1978.608798173459490  |grad|_K:  2.857e-06  alpha:  2.458e-01  linmin: -1.056e-04  t[s]:   8817.97
	FillingsUpdate:  mu: +0.120281473  nElectrons: 346.000000  magneticMoment: [ Abs: 40.10636  Tot: +0.00000 ]
	SubspaceRotationAdjust: set factor to 0.201
ElecMinimize: Iter:  85  F: -1978.609102794035607  |grad|_K:  2.733e-06  alpha:  2.142e-01  linmin: -3.251e-04  t[s]:   8902.21
	FillingsUpdate:  mu: +0.120030692  nElectrons: 346.000000  magneticMoment: [ Abs: 40.09529  Tot: -0.00000 ]
	SubspaceRotationAdjust: set factor to 0.237
ElecMinimize: Iter:  86  F: -1978.609532663435630  |grad|_K:  3.005e-06  alpha:  3.160e-01  linmin:  1.394e-04  t[s]:   8985.87
	FillingsUpdate:  mu: +0.120491676  nElectrons: 346.000000  magneticMoment: [ Abs: 40.09834  Tot: +0.00000 ]
	SubspaceRotationAdjust: set factor to 0.303
ElecMinimize: Iter:  87  F: -1978.610038452687377  |grad|_K:  2.995e-06  alpha:  3.268e-01  linmin: -2.562e-04  t[s]:   9069.06
	FillingsUpdate:  mu: +0.120799090  nElectrons: 346.000000  magneticMoment: [ Abs: 40.09614  Tot: +0.00000 ]
	SubspaceRotationAdjust: set factor to 0.353
ElecMinimize: Iter:  88  F: -1978.610698375068523  |grad|_K:  3.606e-06  alpha:  3.997e-01  linmin: -1.791e-05  t[s]:   9152.74
	FillingsUpdate:  mu: +0.120623049  nElectrons: 346.000000  magneticMoment: [ Abs: 40.07252  Tot: +0.00000 ]
	SubspaceRotationAdjust: set factor to 0.387
ElecMinimize: Iter:  89  F: -1978.611453686832647  |grad|_K:  4.271e-06  alpha:  3.289e-01  linmin: -3.181e-05  t[s]:   9236.26
	FillingsUpdate:  mu: +0.120612993  nElectrons: 346.000000  magneticMoment: [ Abs: 40.07283  Tot: +0.00000 ]
	SubspaceRotationAdjust: set factor to 0.419
ElecMinimize: Iter:  90  F: -1978.611503671656919  |grad|_K:  4.243e-06  alpha:  8.011e-03  linmin: -3.843e-03  t[s]:   9321.25
ElecMinimize: 	Predicted alpha/alphaT>3.000000, increasing alphaT to 2.403170e-02.
ElecMinimize: 	Predicted alpha/alphaT>3.000000, increasing alphaT to 7.209511e-02.
	FillingsUpdate:  mu: +0.120546122  nElectrons: 346.000000  magneticMoment: [ Abs: 40.08943  Tot: +0.00000 ]
	SubspaceRotationAdjust: set factor to 0.246
ElecMinimize: Iter:  91  F: -1978.612093504278164  |grad|_K:  7.264e-06  alpha:  1.018e-01  linmin:  1.881e-03  t[s]:   9452.91
	FillingsUpdate:  mu: +0.120583762  nElectrons: 346.000000  magneticMoment: [ Abs: 40.08958  Tot: +0.00000 ]
	SubspaceRotationAdjust: set factor to 0.159
ElecMinimize: Iter:  92  F: -1978.612098864874952  |grad|_K:  5.901e-06  alpha:  6.139e-04  linmin: -2.260e-03  t[s]:   9537.02
ElecMinimize: 	Predicted alpha/alphaT>3.000000, increasing alphaT to 1.841799e-03.
ElecMinimize: 	Predicted alpha/alphaT>3.000000, increasing alphaT to 5.525398e-03.
ElecMinimize: 	Predicted alpha/alphaT>3.000000, increasing alphaT to 1.657619e-02.
	FillingsUpdate:  mu: +0.122413588  nElectrons: 346.000000  magneticMoment: [ Abs: 40.09994  Tot: +0.00000 ]
	SubspaceRotationAdjust: set factor to 0.104
ElecMinimize: Iter:  93  F: -1978.612137800272876  |grad|_K:  7.107e-06  alpha:  3.213e-02  linmin:  8.810e-03  t[s]:   9666.31
ElecMinimize: 	Bad step direction: g.d > 0.
ElecMinimize: 	Undoing step.
ElecMinimize: 	Step failed: resetting search direction.
	FillingsUpdate:  mu: +0.122413588  nElectrons: 346.000000  magneticMoment: [ Abs: 40.09994  Tot: +0.00000 ]
	SubspaceRotationAdjust: set factor to 0.0767
ElecMinimize: Iter:  94  F: -1978.612137800269238  |grad|_K:  6.104e-06  alpha:  0.000e+00
ElecMinimize: 	Predicted alpha/alphaT>3.000000, increasing alphaT to 9.638976e-02.
	FillingsUpdate:  mu: +0.120627443  nElectrons: 346.000000  magneticMoment: [ Abs: 40.06189  Tot: -0.00000 ]
	SubspaceRotationAdjust: set factor to 0.0608
ElecMinimize: Iter:  95  F: -1978.613281665441264  |grad|_K:  2.464e-06  alpha:  1.758e-01  linmin:  5.010e-04  t[s]:   9832.84
ElecMinimize: 	Predicted alpha/alphaT>3.000000, increasing alphaT to 5.274882e-01.
	FillingsUpdate:  mu: +0.122100619  nElectrons: 346.000000  magneticMoment: [ Abs: 40.05008  Tot: -0.00000 ]
	SubspaceRotationAdjust: set factor to 0.0719
ElecMinimize: Iter:  96  F: -1978.613916918542145  |grad|_K:  2.209e-06  alpha:  5.992e-01  linmin: -4.876e-04  t[s]:   9940.82
	FillingsUpdate:  mu: +0.121503382  nElectrons: 346.000000  magneticMoment: [ Abs: 40.04595  Tot: -0.00000 ]
	SubspaceRotationAdjust: set factor to 0.0858
ElecMinimize: Iter:  97  F: -1978.614272043908386  |grad|_K:  2.172e-06  alpha:  4.115e-01  linmin: -3.942e-06  t[s]:  10025.97
	FillingsUpdate:  mu: +0.120637819  nElectrons: 346.000000  magneticMoment: [ Abs: 40.04095  Tot: -0.00000 ]
	SubspaceRotationAdjust: set factor to 0.104
ElecMinimize: Iter:  98  F: -1978.614601413296441  |grad|_K:  2.142e-06  alpha:  3.989e-01  linmin:  7.109e-05  t[s]:  10108.70
	FillingsUpdate:  mu: +0.120431262  nElectrons: 346.000000  magneticMoment: [ Abs: 40.03560  Tot: -0.00000 ]
	SubspaceRotationAdjust: set factor to 0.121
ElecMinimize: Iter:  99  F: -1978.615004563725734  |grad|_K:  2.272e-06  alpha:  5.072e-01  linmin:  2.417e-04  t[s]:  10191.49
	FillingsUpdate:  mu: +0.121020455  nElectrons: 346.000000  magneticMoment: [ Abs: 40.03691  Tot: +0.00000 ]
	SubspaceRotationAdjust: set factor to 0.136
ElecMinimize: Iter: 100  F: -1978.615530091130040  |grad|_K:  2.738e-06  alpha:  5.952e-01  linmin:  7.905e-05  t[s]:  10274.82
	FillingsUpdate:  mu: +0.121673181  nElectrons: 346.000000  magneticMoment: [ Abs: 40.06116  Tot: -0.00000 ]
	SubspaceRotationAdjust: set factor to 0.15
ElecMinimize: Iter: 101  F: -1978.616163713704964  |grad|_K:  3.042e-06  alpha:  4.817e-01  linmin:  8.030e-05  t[s]:  10357.89
	FillingsUpdate:  mu: +0.121726357  nElectrons: 346.000000  magneticMoment: [ Abs: 40.09036  Tot: -0.00000 ]
	SubspaceRotationAdjust: set factor to 0.181
ElecMinimize: Iter: 102  F: -1978.616774471515782  |grad|_K:  2.859e-06  alpha:  3.836e-01  linmin: -5.167e-05  t[s]:  10440.70
	FillingsUpdate:  mu: +0.121944005  nElectrons: 346.000000  magneticMoment: [ Abs: 40.12884  Tot: -0.00000 ]
	SubspaceRotationAdjust: set factor to 0.22
ElecMinimize: Iter: 103  F: -1978.617371704712923  |grad|_K:  2.828e-06  alpha:  4.137e-01  linmin: -1.465e-04  t[s]:  10524.44
	FillingsUpdate:  mu: +0.121819548  nElectrons: 346.000000  magneticMoment: [ Abs: 40.18979  Tot: -0.00000 ]
	SubspaceRotationAdjust: set factor to 0.263
ElecMinimize: Iter: 104  F: -1978.617971292735774  |grad|_K:  3.107e-06  alpha:  4.203e-01  linmin:  6.553e-05  t[s]:  10607.61
	FillingsUpdate:  mu: +0.123222637  nElectrons: 346.000000  magneticMoment: [ Abs: 40.24885  Tot: -0.00000 ]
	SubspaceRotationAdjust: set factor to 0.296
ElecMinimize: Iter: 105  F: -1978.618558690317968  |grad|_K:  3.194e-06  alpha:  3.536e-01  linmin: -1.126e-04  t[s]:  10691.14
	FillingsUpdate:  mu: +0.121614529  nElectrons: 346.000000  magneticMoment: [ Abs: 40.32653  Tot: -0.00000 ]
	SubspaceRotationAdjust: set factor to 0.275
ElecMinimize: Iter: 106  F: -1978.619078893159440  |grad|_K:  3.623e-06  alpha:  2.877e-01  linmin: -1.195e-05  t[s]:  10775.16
	FillingsUpdate:  mu: +0.123430545  nElectrons: 346.000000  magneticMoment: [ Abs: 40.38590  Tot: -0.00000 ]
	SubspaceRotationAdjust: set factor to 0.302
ElecMinimize: Iter: 107  F: -1978.619602768456616  |grad|_K:  3.153e-06  alpha:  2.306e-01  linmin: -1.091e-04  t[s]:  10860.07
	FillingsUpdate:  mu: +0.122083497  nElectrons: 346.000000  magneticMoment: [ Abs: 40.50424  Tot: -0.00000 ]
	SubspaceRotationAdjust: set factor to 0.353
ElecMinimize: Iter: 108  F: -1978.620165961743169  |grad|_K:  3.556e-06  alpha:  3.249e-01  linmin:  2.982e-04  t[s]:  10943.94
	FillingsUpdate:  mu: +0.122552895  nElectrons: 346.000000  magneticMoment: [ Abs: 40.60234  Tot: -0.00000 ]
	SubspaceRotationAdjust: set factor to 0.452
ElecMinimize: Iter: 109  F: -1978.620735662028892  |grad|_K:  3.299e-06  alpha:  2.751e-01  linmin: -1.359e-04  t[s]:  11028.36
	FillingsUpdate:  mu: +0.125366842  nElectrons: 346.000000  magneticMoment: [ Abs: 40.73642  Tot: +0.00000 ]
	SubspaceRotationAdjust: set factor to 0.518
ElecMinimize: Iter: 110  F: -1978.621400448564373  |grad|_K:  3.888e-06  alpha:  3.390e-01  linmin: -5.066e-05  t[s]:  11114.59
	FillingsUpdate:  mu: +0.124652056  nElectrons: 346.000000  magneticMoment: [ Abs: 40.92308  Tot: +0.00000 ]
	SubspaceRotationAdjust: set factor to 0.543
ElecMinimize: Iter: 111  F: -1978.622228512266702  |grad|_K:  4.714e-06  alpha:  3.110e-01  linmin: -9.035e-05  t[s]:  11198.51
	FillingsUpdate:  mu: +0.125129852  nElectrons: 346.000000  magneticMoment: [ Abs: 41.01302  Tot: -0.00000 ]
	SubspaceRotationAdjust: set factor to 0.616
	SubspaceRotationAdjust: resetting CG because factor has changed by 8.06538
ElecMinimize: 	State modified externally: resetting search direction.
ElecMinimize: Iter: 112  F: -1978.623046116483692  |grad|_K:  4.782e-06  alpha:  1.345e-01
	FillingsUpdate:  mu: +0.128421290  nElectrons: 346.000000  magneticMoment: [ Abs: 41.05241  Tot: -0.00000 ]
	SubspaceRotationAdjust: set factor to 0.412
ElecMinimize: Iter: 113  F: -1978.624040746589571  |grad|_K:  5.201e-06  alpha:  2.336e-01  linmin: -4.347e-03  t[s]:  11402.72
	FillingsUpdate:  mu: +0.126318010  nElectrons: 346.000000  magneticMoment: [ Abs: 41.05782  Tot: -0.00000 ]
	SubspaceRotationAdjust: set factor to 0.303
ElecMinimize: Iter: 114  F: -1978.625145045551790  |grad|_K:  5.278e-06  alpha:  1.972e-01  linmin:  1.348e-03  t[s]:  11485.88
	FillingsUpdate:  mu: +0.126053549  nElectrons: 346.000000  magneticMoment: [ Abs: 41.02957  Tot: +0.00000 ]
	SubspaceRotationAdjust: set factor to 0.251
ElecMinimize: Iter: 115  F: -1978.626257266068706  |grad|_K:  5.941e-06  alpha:  2.652e-01  linmin:  1.898e-03  t[s]:  11568.80
	FillingsUpdate:  mu: +0.128889838  nElectrons: 346.000000  magneticMoment: [ Abs: 41.02170  Tot: -0.00000 ]
	SubspaceRotationAdjust: set factor to 0.279
ElecMinimize: Iter: 116  F: -1978.626920354925460  |grad|_K:  5.189e-06  alpha:  1.435e-01  linmin:  3.110e-04  t[s]:  11652.12
	FillingsUpdate:  mu: +0.128063576  nElectrons: 346.000000  magneticMoment: [ Abs: 41.03572  Tot: -0.00000 ]
	SubspaceRotationAdjust: set factor to 0.345
ElecMinimize: Iter: 117  F: -1978.627828143717807  |grad|_K:  4.057e-06  alpha:  1.928e-01  linmin: -8.957e-04  t[s]:  11735.21
	FillingsUpdate:  mu: +0.126280735  nElectrons: 346.000000  magneticMoment: [ Abs: 41.05693  Tot: -0.00000 ]
	SubspaceRotationAdjust: set factor to 0.327
ElecMinimize: Iter: 118  F: -1978.628371857765842  |grad|_K:  3.633e-06  alpha:  1.754e-01  linmin:  1.183e-04  t[s]:  11819.44
	FillingsUpdate:  mu: +0.125535376  nElectrons: 346.000000  magneticMoment: [ Abs: 41.06944  Tot: +0.00000 ]
	SubspaceRotationAdjust: set factor to 0.455
ElecMinimize: Iter: 119  F: -1978.628867463155075  |grad|_K:  2.884e-06  alpha:  2.163e-01  linmin: -1.349e-04  t[s]:  11903.20
	FillingsUpdate:  mu: +0.127404324  nElectrons: 346.000000  magneticMoment: [ Abs: 41.06885  Tot: -0.00000 ]
	SubspaceRotationAdjust: set factor to 0.416
ElecMinimize: Iter: 120  F: -1978.629151170945306  |grad|_K:  2.812e-06  alpha:  1.947e-01  linmin: -4.667e-04  t[s]:  11986.96
	FillingsUpdate:  mu: +0.124700317  nElectrons: 346.000000  magneticMoment: [ Abs: 41.07853  Tot: +0.00000 ]
	SubspaceRotationAdjust: set factor to 0.428
ElecMinimize: Iter: 121  F: -1978.629422255877671  |grad|_K:  1.961e-06  alpha:  1.903e-01  linmin:  1.483e-04  t[s]:  12070.70
	FillingsUpdate:  mu: +0.124967164  nElectrons: 346.000000  magneticMoment: [ Abs: 41.08128  Tot: +0.00000 ]
	SubspaceRotationAdjust: set factor to 0.497
ElecMinimize: Iter: 122  F: -1978.629597446096341  |grad|_K:  1.584e-06  alpha:  2.628e-01  linmin: -1.396e-05  t[s]:  12154.68
	FillingsUpdate:  mu: +0.125704931  nElectrons: 346.000000  magneticMoment: [ Abs: 41.08056  Tot: +0.00000 ]
	SubspaceRotationAdjust: set factor to 0.492
ElecMinimize: Iter: 123  F: -1978.629708370364824  |grad|_K:  1.579e-06  alpha:  2.527e-01  linmin: -9.252e-05  t[s]:  12238.70
	FillingsUpdate:  mu: +0.125261023  nElectrons: 346.000000  magneticMoment: [ Abs: 41.08674  Tot: +0.00000 ]
	SubspaceRotationAdjust: set factor to 0.397
ElecMinimize: Iter: 124  F: -1978.629785172531683  |grad|_K:  1.395e-06  alpha:  1.732e-01  linmin:  4.768e-06  t[s]:  12321.65
	FillingsUpdate:  mu: +0.125514433  nElectrons: 346.000000  magneticMoment: [ Abs: 41.08975  Tot: -0.00000 ]
	SubspaceRotationAdjust: set factor to 0.435
ElecMinimize: Iter: 125  F: -1978.629864854067591  |grad|_K:  1.007e-06  alpha:  2.337e-01  linmin: -4.582e-05  t[s]:  12406.46
	FillingsUpdate:  mu: +0.125588071  nElectrons: 346.000000  magneticMoment: [ Abs: 41.09304  Tot: -0.00000 ]
	SubspaceRotationAdjust: set factor to 0.489
ElecMinimize: Iter: 126  F: -1978.629909056502811  |grad|_K:  8.077e-07  alpha:  2.478e-01  linmin: -6.553e-06  t[s]:  12491.05
	FillingsUpdate:  mu: +0.125332773  nElectrons: 346.000000  magneticMoment: [ Abs: 41.09745  Tot: +0.00000 ]
	SubspaceRotationAdjust: set factor to 0.454
ElecMinimize: Iter: 127  F: -1978.629933798956017  |grad|_K:  8.012e-07  alpha:  2.164e-01  linmin:  4.797e-05  t[s]:  12574.20
	FillingsUpdate:  mu: +0.125435386  nElectrons: 346.000000  magneticMoment: [ Abs: 41.09802  Tot: -0.00000 ]
	SubspaceRotationAdjust: set factor to 0.452
ElecMinimize: Iter: 128  F: -1978.629955422690273  |grad|_K:  6.483e-07  alpha:  1.935e-01  linmin: -2.583e-05  t[s]:  12657.50
	FillingsUpdate:  mu: +0.125377454  nElectrons: 346.000000  magneticMoment: [ Abs: 41.09981  Tot: -0.00000 ]
	SubspaceRotationAdjust: set factor to 0.539
ElecMinimize: Iter: 129  F: -1978.629977573713177  |grad|_K:  5.822e-07  alpha:  3.008e-01  linmin:  7.709e-06  t[s]:  12740.90
	FillingsUpdate:  mu: +0.125308134  nElectrons: 346.000000  magneticMoment: [ Abs: 41.10113  Tot: -0.00000 ]
	SubspaceRotationAdjust: set factor to 0.613
ElecMinimize: Iter: 130  F: -1978.629994864473247  |grad|_K:  5.878e-07  alpha:  2.918e-01  linmin:  3.229e-05  t[s]:  12824.34
	FillingsUpdate:  mu: +0.125477227  nElectrons: 346.000000  magneticMoment: [ Abs: 41.09975  Tot: +0.00000 ]
	SubspaceRotationAdjust: set factor to 0.561
ElecMinimize: Iter: 131  F: -1978.630006650583482  |grad|_K:  6.692e-07  alpha:  1.966e-01  linmin: -9.243e-07  t[s]:  12908.63
	FillingsUpdate:  mu: +0.125215680  nElectrons: 346.000000  magneticMoment: [ Abs: 41.10078  Tot: -0.00000 ]
	SubspaceRotationAdjust: set factor to 0.515
ElecMinimize: Iter: 132  F: -1978.630022156323321  |grad|_K:  6.382e-07  alpha:  1.980e-01  linmin:  9.029e-05  t[s]:  12993.81
	FillingsUpdate:  mu: +0.125216774  nElectrons: 346.000000  magneticMoment: [ Abs: 41.09974  Tot: +0.00000 ]
	SubspaceRotationAdjust: set factor to 0.542
ElecMinimize: Iter: 133  F: -1978.630044854987545  |grad|_K:  6.619e-07  alpha:  3.212e-01  linmin: -2.502e-05  t[s]:  13077.51
	FillingsUpdate:  mu: +0.125191191  nElectrons: 346.000000  magneticMoment: [ Abs: 41.10009  Tot: -0.00000 ]
	SubspaceRotationAdjust: set factor to 0.571
ElecMinimize: Iter: 134  F: -1978.630070564516018  |grad|_K:  6.891e-07  alpha:  3.346e-01  linmin:  3.395e-05  t[s]:  13161.34
	FillingsUpdate:  mu: +0.125361642  nElectrons: 346.000000  magneticMoment: [ Abs: 41.09859  Tot: +0.00000 ]
	SubspaceRotationAdjust: set factor to 0.581
ElecMinimize: Iter: 135  F: -1978.630096345789752  |grad|_K:  7.170e-07  alpha:  3.120e-01  linmin: -2.423e-05  t[s]:  13244.80
	FillingsUpdate:  mu: +0.125208148  nElectrons: 346.000000  magneticMoment: [ Abs: 41.09874  Tot: +0.00000 ]
	SubspaceRotationAdjust: set factor to 0.522
ElecMinimize: Iter: 136  F: -1978.630115132493074  |grad|_K:  8.304e-07  alpha:  2.057e-01  linmin: -4.797e-06  t[s]:  13328.08
	FillingsUpdate:  mu: +0.125359772  nElectrons: 346.000000  magneticMoment: [ Abs: 41.09568  Tot: -0.00000 ]
	SubspaceRotationAdjust: set factor to 0.456
ElecMinimize: Iter: 137  F: -1978.630135121855119  |grad|_K:  7.199e-07  alpha:  1.662e-01  linmin: -3.014e-05  t[s]:  13411.19
	FillingsUpdate:  mu: +0.125144830  nElectrons: 346.000000  magneticMoment: [ Abs: 41.09451  Tot: -0.00000 ]
	SubspaceRotationAdjust: set factor to 0.518
ElecMinimize: Iter: 138  F: -1978.630161701855513  |grad|_K:  6.751e-07  alpha:  2.932e-01  linmin:  6.859e-05  t[s]:  13495.12
	FillingsUpdate:  mu: +0.125078948  nElectrons: 346.000000  magneticMoment: [ Abs: 41.09353  Tot: +0.00000 ]
	SubspaceRotationAdjust: set factor to 0.593
ElecMinimize: Iter: 139  F: -1978.630187241647036  |grad|_K:  7.002e-07  alpha:  3.232e-01  linmin:  2.564e-05  t[s]:  13578.45
	FillingsUpdate:  mu: +0.125211846  nElectrons: 346.000000  magneticMoment: [ Abs: 41.09091  Tot: +0.00000 ]
	SubspaceRotationAdjust: set factor to 0.578
ElecMinimize: Iter: 140  F: -1978.630208776583231  |grad|_K:  8.527e-07  alpha:  2.533e-01  linmin: -3.194e-05  t[s]:  13661.70
	FillingsUpdate:  mu: +0.125061501  nElectrons: 346.000000  magneticMoment: [ Abs: 41.09163  Tot: -0.00000 ]
	SubspaceRotationAdjust: set factor to 0.476
ElecMinimize: Iter: 141  F: -1978.630227639363966  |grad|_K:  8.140e-07  alpha:  1.447e-01  linmin: -5.106e-05  t[s]:  13746.19
	FillingsUpdate:  mu: +0.125181264  nElectrons: 346.000000  magneticMoment: [ Abs: 41.09056  Tot: -0.00000 ]
	SubspaceRotationAdjust: set factor to 0.537
ElecMinimize: Iter: 142  F: -1978.630256739076231  |grad|_K:  7.203e-07  alpha:  2.487e-01  linmin: -3.352e-05  t[s]:  13829.51
	FillingsUpdate:  mu: +0.125143026  nElectrons: 346.000000  magneticMoment: [ Abs: 41.09108  Tot: -0.00000 ]
	SubspaceRotationAdjust: set factor to 0.604
ElecMinimize: Iter: 143  F: -1978.630285059360403  |grad|_K:  7.226e-07  alpha:  3.108e-01  linmin:  1.967e-05  t[s]:  13912.56
	FillingsUpdate:  mu: +0.125023421  nElectrons: 346.000000  magneticMoment: [ Abs: 41.09324  Tot: +0.00000 ]
	SubspaceRotationAdjust: set factor to 0.549
ElecMinimize: Iter: 144  F: -1978.630306198332846  |grad|_K:  9.078e-07  alpha:  2.309e-01  linmin:  1.348e-05  t[s]:  13994.97
	FillingsUpdate:  mu: +0.124935306  nElectrons: 346.000000  magneticMoment: [ Abs: 41.09252  Tot: -0.00000 ]
	SubspaceRotationAdjust: set factor to 0.478
ElecMinimize: Iter: 145  F: -1978.630326016224672  |grad|_K:  7.654e-07  alpha:  1.401e-01  linmin:  1.884e-05  t[s]:  14077.67
	FillingsUpdate:  mu: +0.124875918  nElectrons: 346.000000  magneticMoment: [ Abs: 41.09467  Tot: +0.00000 ]
	SubspaceRotationAdjust: set factor to 0.552
ElecMinimize: Iter: 146  F: -1978.630354871191457  |grad|_K:  7.111e-07  alpha:  2.823e-01  linmin: -7.916e-06  t[s]:  14160.86
	FillingsUpdate:  mu: +0.124980274  nElectrons: 346.000000  magneticMoment: [ Abs: 41.09773  Tot: +0.00000 ]
	SubspaceRotationAdjust: set factor to 0.61
ElecMinimize: Iter: 147  F: -1978.630383440654896  |grad|_K:  7.589e-07  alpha:  3.227e-01  linmin:  5.122e-06  t[s]:  14243.12
	FillingsUpdate:  mu: +0.125032862  nElectrons: 346.000000  magneticMoment: [ Abs: 41.09894  Tot: +0.00000 ]
	SubspaceRotationAdjust: set factor to 0.563
ElecMinimize: Iter: 148  F: -1978.630406243190919  |grad|_K:  9.467e-07  alpha:  2.270e-01  linmin: -2.585e-06  t[s]:  14327.42
	FillingsUpdate:  mu: +0.125026157  nElectrons: 346.000000  magneticMoment: [ Abs: 41.10361  Tot: +0.00000 ]
	SubspaceRotationAdjust: set factor to 0.465
ElecMinimize: Iter: 149  F: -1978.630428002441477  |grad|_K:  7.644e-07  alpha:  1.383e-01  linmin: -4.461e-06  t[s]:  14410.79
	FillingsUpdate:  mu: +0.124964060  nElectrons: 346.000000  magneticMoment: [ Abs: 41.10820  Tot: +0.00000 ]
	SubspaceRotationAdjust: set factor to 0.519
ElecMinimize: Iter: 150  F: -1978.630456412797685  |grad|_K:  6.977e-07  alpha:  2.773e-01  linmin: -1.850e-05  t[s]:  14494.68
	FillingsUpdate:  mu: +0.124982744  nElectrons: 346.000000  magneticMoment: [ Abs: 41.11392  Tot: -0.00000 ]
	SubspaceRotationAdjust: set factor to 0.584
ElecMinimize: Iter: 151  F: -1978.630483049774512  |grad|_K:  6.784e-07  alpha:  3.119e-01  linmin:  8.781e-07  t[s]:  14577.28
	FillingsUpdate:  mu: +0.125062538  nElectrons: 346.000000  magneticMoment: [ Abs: 41.12035  Tot: -0.00000 ]
	SubspaceRotationAdjust: set factor to 0.547
ElecMinimize: Iter: 152  F: -1978.630502493290123  |grad|_K:  8.278e-07  alpha:  2.415e-01  linmin:  1.187e-06  t[s]:  14659.85
	FillingsUpdate:  mu: +0.125006936  nElectrons: 346.000000  magneticMoment: [ Abs: 41.12316  Tot: +0.00000 ]
	SubspaceRotationAdjust: set factor to 0.458
ElecMinimize: Iter: 153  F: -1978.630518947218661  |grad|_K:  6.998e-07  alpha:  1.372e-01  linmin: -3.444e-06  t[s]:  14743.43
	FillingsUpdate:  mu: +0.124948935  nElectrons: 346.000000  magneticMoment: [ Abs: 41.12959  Tot: -0.00000 ]
	SubspaceRotationAdjust: set factor to 0.519
ElecMinimize: Iter: 154  F: -1978.630541414865093  |grad|_K:  6.241e-07  alpha:  2.615e-01  linmin: -3.440e-05  t[s]:  14826.95
	FillingsUpdate:  mu: +0.124914118  nElectrons: 346.000000  magneticMoment: [ Abs: 41.13608  Tot: -0.00000 ]
	SubspaceRotationAdjust: set factor to 0.589
ElecMinimize: Iter: 155  F: -1978.630565104477682  |grad|_K:  6.706e-07  alpha:  3.458e-01  linmin: -1.395e-05  t[s]:  14909.40
	FillingsUpdate:  mu: +0.124965339  nElectrons: 346.000000  magneticMoment: [ Abs: 41.13942  Tot: +0.00000 ]
	SubspaceRotationAdjust: set factor to 0.546
ElecMinimize: Iter: 156  F: -1978.630583614511806  |grad|_K:  8.377e-07  alpha:  2.347e-01  linmin: -2.321e-08  t[s]:  14992.42
	FillingsUpdate:  mu: +0.125045740  nElectrons: 346.000000  magneticMoment: [ Abs: 41.14496  Tot: -0.00000 ]
	SubspaceRotationAdjust: set factor to 0.449
ElecMinimize: Iter: 157  F: -1978.630600294058468  |grad|_K:  7.062e-07  alpha:  1.343e-01  linmin: -2.612e-05  t[s]:  15076.88
	FillingsUpdate:  mu: +0.125062684  nElectrons: 346.000000  magneticMoment: [ Abs: 41.14965  Tot: +0.00000 ]
	SubspaceRotationAdjust: set factor to 0.5
ElecMinimize: Iter: 158  F: -1978.630627022811495  |grad|_K:  7.005e-07  alpha:  3.054e-01  linmin:  1.036e-05  t[s]:  15160.13
	FillingsUpdate:  mu: +0.125056661  nElectrons: 346.000000  magneticMoment: [ Abs: 41.15372  Tot: +0.00000 ]
	SubspaceRotationAdjust: set factor to 0.537
ElecMinimize: Iter: 159  F: -1978.630655933425032  |grad|_K:  7.790e-07  alpha:  3.378e-01  linmin:  1.529e-05  t[s]:  15244.80
	FillingsUpdate:  mu: +0.125056138  nElectrons: 346.000000  magneticMoment: [ Abs: 41.15839  Tot: -0.00000 ]
	SubspaceRotationAdjust: set factor to 0.465
ElecMinimize: Iter: 160  F: -1978.630676722030785  |grad|_K:  9.150e-07  alpha:  1.947e-01  linmin: -1.656e-05  t[s]:  15329.68
	FillingsUpdate:  mu: +0.124988759  nElectrons: 346.000000  magneticMoment: [ Abs: 41.15943  Tot: -0.00000 ]
	SubspaceRotationAdjust: set factor to 0.425
ElecMinimize: Iter: 161  F: -1978.630701208121081  |grad|_K:  7.682e-07  alpha:  1.665e-01  linmin:  1.603e-05  t[s]:  15415.09
	FillingsUpdate:  mu: +0.124943731  nElectrons: 346.000000  magneticMoment: [ Abs: 41.16126  Tot: +0.00000 ]
	SubspaceRotationAdjust: set factor to 0.497
ElecMinimize: Iter: 162  F: -1978.630734986550806  |grad|_K:  7.891e-07  alpha:  3.286e-01  linmin:  9.637e-06  t[s]:  15499.75
	FillingsUpdate:  mu: +0.124884990  nElectrons: 346.000000  magneticMoment: [ Abs: 41.16185  Tot: +0.00000 ]
	SubspaceRotationAdjust: set factor to 0.527
ElecMinimize: Iter: 163  F: -1978.630769525391088  |grad|_K:  9.074e-07  alpha:  3.178e-01  linmin: -4.545e-06  t[s]:  15583.51
	FillingsUpdate:  mu: +0.124942269  nElectrons: 346.000000  magneticMoment: [ Abs: 41.15903  Tot: +0.00000 ]
	SubspaceRotationAdjust: set factor to 0.453
ElecMinimize: Iter: 164  F: -1978.630794452395548  |grad|_K:  9.991e-07  alpha:  1.722e-01  linmin: -6.613e-06  t[s]:  15666.21
	FillingsUpdate:  mu: +0.124845906  nElectrons: 346.000000  magneticMoment: [ Abs: 41.15931  Tot: -0.00000 ]
	SubspaceRotationAdjust: set factor to 0.452
ElecMinimize: Iter: 165  F: -1978.630826444319155  |grad|_K:  8.195e-07  alpha:  1.831e-01  linmin:  1.391e-05  t[s]:  15750.10
	FillingsUpdate:  mu: +0.124945833  nElectrons: 346.000000  magneticMoment: [ Abs: 41.15745  Tot: -0.00000 ]
	SubspaceRotationAdjust: set factor to 0.525
ElecMinimize: Iter: 166  F: -1978.630862956206556  |grad|_K:  8.195e-07  alpha:  3.132e-01  linmin:  5.053e-05  t[s]:  15833.12
	FillingsUpdate:  mu: +0.125012305  nElectrons: 346.000000  magneticMoment: [ Abs: 41.15420  Tot: -0.00000 ]
	SubspaceRotationAdjust: set factor to 0.536
ElecMinimize: Iter: 167  F: -1978.630891902348822  |grad|_K:  9.029e-07  alpha:  2.488e-01  linmin:  7.212e-06  t[s]:  15916.41
	FillingsUpdate:  mu: +0.125033785  nElectrons: 346.000000  magneticMoment: [ Abs: 41.15476  Tot: -0.00000 ]
	SubspaceRotationAdjust: set factor to 0.449
ElecMinimize: Iter: 168  F: -1978.630911294700354  |grad|_K:  8.179e-07  alpha:  1.354e-01  linmin: -1.269e-05  t[s]:  15999.47
	FillingsUpdate:  mu: +0.124997451  nElectrons: 346.000000  magneticMoment: [ Abs: 41.15296  Tot: +0.00000 ]
	SubspaceRotationAdjust: set factor to 0.49
ElecMinimize: Iter: 169  F: -1978.630935826070072  |grad|_K:  6.686e-07  alpha:  2.093e-01  linmin:  8.352e-06  t[s]:  16082.88
	FillingsUpdate:  mu: +0.124971754  nElectrons: 346.000000  magneticMoment: [ Abs: 41.15295  Tot: +0.00000 ]
	SubspaceRotationAdjust: set factor to 0.58
ElecMinimize: Iter: 170  F: -1978.630957325983445  |grad|_K:  6.126e-07  alpha:  2.756e-01  linmin:  1.126e-05  t[s]:  16167.41
	FillingsUpdate:  mu: +0.125028510  nElectrons: 346.000000  magneticMoment: [ Abs: 41.15397  Tot: -0.00000 ]
	SubspaceRotationAdjust: set factor to 0.597
ElecMinimize: Iter: 171  F: -1978.630973144798190  |grad|_K:  6.794e-07  alpha:  2.414e-01  linmin:  5.897e-06  t[s]:  16250.72
	FillingsUpdate:  mu: +0.124970888  nElectrons: 346.000000  magneticMoment: [ Abs: 41.15263  Tot: +0.00000 ]
	SubspaceRotationAdjust: set factor to 0.512
ElecMinimize: Iter: 172  F: -1978.630983216848790  |grad|_K:  6.299e-07  alpha:  1.260e-01  linmin:  2.422e-05  t[s]:  16334.87
	FillingsUpdate:  mu: +0.125000836  nElectrons: 346.000000  magneticMoment: [ Abs: 41.15358  Tot: -0.00000 ]
	SubspaceRotationAdjust: set factor to 0.551
ElecMinimize: Iter: 173  F: -1978.630996277750683  |grad|_K:  5.168e-07  alpha:  1.892e-01  linmin:  1.923e-05  t[s]:  16418.48
	FillingsUpdate:  mu: +0.125008168  nElectrons: 346.000000  magneticMoment: [ Abs: 41.15445  Tot: +0.00000 ]
	SubspaceRotationAdjust: set factor to 0.658
ElecMinimize: Iter: 174  F: -1978.631008854963284  |grad|_K:  4.722e-07  alpha:  2.702e-01  linmin:  2.992e-06  t[s]:  16502.40
	FillingsUpdate:  mu: +0.125023128  nElectrons: 346.000000  magneticMoment: [ Abs: 41.15650  Tot: +0.00000 ]
	SubspaceRotationAdjust: set factor to 0.797
ElecMinimize: Iter: 175  F: -1978.631019601881235  |grad|_K:  4.451e-07  alpha:  2.757e-01  linmin:  3.428e-06  t[s]:  16584.80
	FillingsUpdate:  mu: +0.125034337  nElectrons: 346.000000  magneticMoment: [ Abs: 41.15905  Tot: +0.00000 ]
	SubspaceRotationAdjust: set factor to 0.963
ElecMinimize: Iter: 176  F: -1978.631029315573187  |grad|_K:  4.564e-07  alpha:  2.805e-01  linmin:  4.541e-06  t[s]:  16668.48
	FillingsUpdate:  mu: +0.125002503  nElectrons: 346.000000  magneticMoment: [ Abs: 41.16025  Tot: +0.00000 ]
	SubspaceRotationAdjust: set factor to 0.726
ElecMinimize: Iter: 177  F: -1978.631036614244522  |grad|_K:  6.403e-07  alpha:  2.009e-01  linmin: -3.531e-06  t[s]:  16751.55
	FillingsUpdate:  mu: +0.125015310  nElectrons: 346.000000  magneticMoment: [ Abs: 41.16293  Tot: -0.00000 ]
	SubspaceRotationAdjust: set factor to 0.574
ElecMinimize: Iter: 178  F: -1978.631041465150702  |grad|_K:  4.656e-07  alpha:  6.667e-02  linmin: -6.868e-05  t[s]:  16835.36
ElecMinimize: 	Predicted alpha/alphaT>3.000000, increasing alphaT to 2.000076e-01.
	FillingsUpdate:  mu: +0.125005773  nElectrons: 346.000000  magneticMoment: [ Abs: 41.16659  Tot: +0.00000 ]
	SubspaceRotationAdjust: set factor to 0.792
ElecMinimize: Iter: 179  F: -1978.631050194140926  |grad|_K:  4.237e-07  alpha:  2.278e-01  linmin:  1.178e-06  t[s]:  16942.28
	FillingsUpdate:  mu: +0.124974529  nElectrons: 346.000000  magneticMoment: [ Abs: 41.16808  Tot: +0.00000 ]
	SubspaceRotationAdjust: set factor to 0.63
ElecMinimize: Iter: 180  F: -1978.631055413211470  |grad|_K:  5.644e-07  alpha:  1.665e-01  linmin: -2.644e-06  t[s]:  17026.10
	FillingsUpdate:  mu: +0.125011065  nElectrons: 346.000000  magneticMoment: [ Abs: 41.17139  Tot: -0.00000 ]
	SubspaceRotationAdjust: set factor to 0.556
ElecMinimize: Iter: 181  F: -1978.631060699985710  |grad|_K:  3.946e-07  alpha:  9.451e-02  linmin: -7.513e-06  t[s]:  17110.53
	FillingsUpdate:  mu: +0.125017614  nElectrons: 346.000000  magneticMoment: [ Abs: 41.17439  Tot: +0.00000 ]
	SubspaceRotationAdjust: set factor to 0.711
ElecMinimize: Iter: 182  F: -1978.631067639283629  |grad|_K:  3.704e-07  alpha:  2.545e-01  linmin:  1.861e-06  t[s]:  17194.09
	FillingsUpdate:  mu: +0.125010132  nElectrons: 346.000000  magneticMoment: [ Abs: 41.17571  Tot: +0.00000 ]
	SubspaceRotationAdjust: set factor to 0.602
ElecMinimize: Iter: 183  F: -1978.631072442356071  |grad|_K:  4.713e-07  alpha:  2.003e-01  linmin: -1.727e-06  t[s]:  17278.02
	FillingsUpdate:  mu: +0.125047393  nElectrons: 346.000000  magneticMoment: [ Abs: 41.17805  Tot: -0.00000 ]
	SubspaceRotationAdjust: set factor to 0.516
ElecMinimize: Iter: 184  F: -1978.631076172411895  |grad|_K:  3.611e-07  alpha:  9.549e-02  linmin: -2.015e-05  t[s]:  17361.52
	FillingsUpdate:  mu: +0.125055600  nElectrons: 346.000000  magneticMoment: [ Abs: 41.17974  Tot: -0.00000 ]
	SubspaceRotationAdjust: set factor to 0.682
ElecMinimize: Iter: 185  F: -1978.631081769231741  |grad|_K:  3.343e-07  alpha:  2.448e-01  linmin:  1.259e-06  t[s]:  17445.23
	FillingsUpdate:  mu: +0.125020144  nElectrons: 346.000000  magneticMoment: [ Abs: 41.17988  Tot: +0.00000 ]
	SubspaceRotationAdjust: set factor to 0.587
ElecMinimize: Iter: 186  F: -1978.631086273152732  |grad|_K:  4.386e-07  alpha:  2.305e-01  linmin: -2.245e-06  t[s]:  17528.53
	FillingsUpdate:  mu: +0.125033157  nElectrons: 346.000000  magneticMoment: [ Abs: 41.18093  Tot: +0.00000 ]
	SubspaceRotationAdjust: set factor to 0.507
ElecMinimize: Iter: 187  F: -1978.631089614214716  |grad|_K:  3.615e-07  alpha:  9.891e-02  linmin: -1.619e-05  t[s]:  17612.04
	FillingsUpdate:  mu: +0.124982285  nElectrons: 346.000000  magneticMoment: [ Abs: 41.18059  Tot: +0.00000 ]
[...]
	FillingsUpdate:  mu: +0.121646862  nElectrons: 346.000000  magneticMoment: [ Abs: 40.50279  Tot: +0.00000 ]
	SubspaceRotationAdjust: set factor to 0.163
ElecMinimize: Iter:  20  F: -1978.663328050050268  |grad|_K:  1.497e-07  alpha:  3.561e-01  linmin:  9.761e-07  t[s]:  76100.82
	FillingsUpdate:  mu: +0.121734868  nElectrons: 346.000000  magneticMoment: [ Abs: 40.50366  Tot: +0.00000 ]
	SubspaceRotationAdjust: set factor to 0.139
ElecMinimize: Iter:  21  F: -1978.663329289671992  |grad|_K:  1.179e-07  alpha:  3.165e-01  linmin:  3.102e-08  t[s]:  76184.01
	FillingsUpdate:  mu: +0.121648693  nElectrons: 346.000000  magneticMoment: [ Abs: 40.50232  Tot: +0.00000 ]
	SubspaceRotationAdjust: set factor to 0.109
ElecMinimize: Iter:  22  F: -1978.663329998989184  |grad|_K:  8.745e-08  alpha:  2.919e-01  linmin: -5.201e-06  t[s]:  76268.06
	FillingsUpdate:  mu: +0.121672243  nElectrons: 346.000000  magneticMoment: [ Abs: 40.50252  Tot: +0.00000 ]
	SubspaceRotationAdjust: set factor to 0.116
ElecMinimize: Iter:  23  F: -1978.663330450334570  |grad|_K:  6.506e-08  alpha:  3.374e-01  linmin: -9.193e-06  t[s]:  76353.10
	FillingsUpdate:  mu: +0.121684566  nElectrons: 346.000000  magneticMoment: [ Abs: 40.50258  Tot: -0.00000 ]
	SubspaceRotationAdjust: set factor to 0.128
ElecMinimize: Iter:  24  F: -1978.663330695434524  |grad|_K:  5.086e-08  alpha:  3.307e-01  linmin:  6.724e-06  t[s]:  76437.19
	FillingsUpdate:  mu: +0.121659946  nElectrons: 346.000000  magneticMoment: [ Abs: 40.50221  Tot: +0.00000 ]
	SubspaceRotationAdjust: set factor to 0.135
ElecMinimize: Iter:  25  F: -1978.663330844300162  |grad|_K:  4.018e-08  alpha:  3.290e-01  linmin: -9.369e-06  t[s]:  76521.30
	FillingsUpdate:  mu: +0.121668769  nElectrons: 346.000000  magneticMoment: [ Abs: 40.50233  Tot: +0.00000 ]
	SubspaceRotationAdjust: set factor to 0.159
ElecMinimize: Iter:  26  F: -1978.663330955059109  |grad|_K:  3.449e-08  alpha:  3.918e-01  linmin: -1.427e-05  t[s]:  76605.84
ElecMinimize: Converged (|Delta F|<1.000000e-06 for 5 iters).
Setting wave functions to eigenvectors of Hamiltonian

# Ionic positions in lattice coordinates:
ion Ni   0.011987545967689  -0.011320420438048   0.159056346848305 1
ion Ni   0.496916043973887  -0.005879916564209   0.149371976844586 1
ion Ni   0.001107770761476   0.506690810891356   0.150194341895250 1
ion Ni   0.247874378725133   0.749381006599491   0.055984220122425 1
ion Ni  -0.246993644941425   0.745706943911139   0.056453500048503 1
ion Co   0.497616240372320   0.513746339515694   0.156059355803245 1
ion Co   0.250586874434283   0.249317906917618   0.060364542315330 1
ion V  -0.246093157709758   0.243778679876775   0.058906957500434 1
ion V   0.000000000000000   0.000000000000000  -0.050000000000000 0
ion V   0.500000000000000   0.000000000000000  -0.050000000000000 0
ion V   0.000000000000000   0.500000000000000  -0.050000000000000 0
ion V   0.500000000000000   0.500000000000000  -0.050000000000000 0
ion V   0.250000000000000   0.250000000000000  -0.150000000000000 0
ion V  -0.250000000000000   0.750000000000000  -0.150000000000000 0
ion Cr   0.250000000000000   0.750000000000000  -0.150000000000000 0
ion Cr  -0.250000000000000   0.250000000000000  -0.150000000000000 0
ion O   0.250951053404791   0.265420126287696   0.154487062236502 1
ion O   0.244410366925477   0.741164407243815   0.148998930408682 1
ion O  -0.247758438305979   0.272405071117051   0.146808936612878 1
ion O  -0.245106058291593   0.742633100360726   0.148781989549482 1
ion O  -0.009057029340448   0.005131968948129   0.051418310717493 1
ion O   0.507017434612907  -0.008680846263168   0.049682172902283 1
ion O   0.001177676462570   0.497696111303471   0.050111927895287 1
ion O   0.520051757629807   0.490060185310984   0.048553382360260 1
ion O   0.250000000000000   0.250000000000000  -0.050000000000000 0
ion O   0.250000000000000   0.750000000000000  -0.050000000000000 0
ion O  -0.250000000000000   0.250000000000000  -0.050000000000000 0
ion O  -0.250000000000000   0.750000000000000  -0.050000000000000 0
ion O   0.000000000000000   0.000000000000000  -0.150000000000000 0
ion O   0.500000000000000   0.000000000000000  -0.150000000000000 0
ion O   0.000000000000000   0.500000000000000  -0.150000000000000 0
ion O   0.500000000000000   0.500000000000000  -0.150000000000000 0
ion O  -0.009183797167032  -0.011322499073724   0.246385257751857 1
ion H   0.092316154196306   0.100014894186392   0.261130678240360 1

# Forces in Lattice coordinates:
force Ni  -0.000434199874098   0.000792395047715   0.018368906707295 1
force Ni   0.004009422185572   0.004202422672968   0.009021053726531 1
force Ni   0.000060567236394  -0.003726294125530   0.012843765282812 1
force Ni   0.002473379144454   0.000222338391611   0.012171499100425 1
force Ni   0.000601146361558   0.002109020133495  -0.004642318303073 1
force Co   0.001030886477557  -0.000778793654590   0.010564036757756 1
force Co   0.002578777646140   0.002711864955523   0.000637550661894 1
force V   0.014370177667599  -0.010517965195390   0.024911227469807 1
force V  -0.063477489042351  -0.033187154220498   0.825025134169940 0
force V  -0.069973474604788  -0.051146255439329   0.783459209922727 0
force V  -0.036033976190046   0.058345845991977   0.696796072651015 0
force V  -0.061160478152091   0.037735844726042   0.741691235098235 0
force V   0.040835489447944   0.002307146374714  -0.541239266105247 0
force V   0.059714115373048  -0.002712311913298  -0.512136983043674 0
force Cr   0.002700075376650  -0.003858165440502  -1.467764022349050 0
force Cr   0.025614588835101   0.002114016499737  -1.557737126739730 0
force O   0.001396228201477   0.005993916146257  -0.011776008148628 1
force O   0.004218764030058  -0.003703318025079   0.009800383854163 1
force O   0.004111643552033   0.001171733561000   0.005808035110357 1
force O  -0.001775264994702  -0.001518727538051   0.001221124263786 1
force O  -0.000932321328884   0.000578682849397   0.006241012186380 1
force O   0.000307840910813  -0.001571862117804  -0.002263546599080 1
force O  -0.001312857922598   0.004078518974294  -0.007148984167939 1
force O   0.003544770402952  -0.003981558543831  -0.001573360953682 1
force O   0.038914183966479  -0.003827810607369  -0.138190918239937 0
force O   0.045996182026921   0.003342933049742   0.916454147188838 0
force O  -0.058933694020909  -0.009580901931461   1.149821078777645 0
force O  -0.076903997901594   0.004275806476290  -0.181648109166886 0
force O   0.047986572319832  -0.011029960511584  -0.224782497255152 0
force O   0.034545138650796   0.006100314933459  -0.156651139743310 0
force O   0.044284791579286   0.008213768067312  -0.261544829356644 0
force O   0.031348066892298  -0.002106818037146  -0.172425142137022 0
force O  -0.001377700727723   0.002843007147028  -0.009266285127482 1
force H  -0.005970499982097  -0.003016099914391  -0.000532227638123 1

# Energy components:
   Eewald =     5393.6843909326353241
       EH =     7176.2487190717401973
     Eloc =   -14713.0081604564966256
      Enl =     -504.7603609702465519
   Epulay =       -0.0004849842440617
      Exc =     -243.7482810645629172
       KE =      911.5949240659441557
        U =        1.3271581949231257
-------------------------------------
     Etot =    -1978.6620952103078253
       TS =        0.0012357447513360
-------------------------------------
        F =    -1978.6633309550591093

IonicMinimize: Iter:  16  F: -1978.663330955059109  |grad|_K:  3.228e-04  alpha:  1.000e+00  linmin:  7.638e-03  t[s]:  76633.05

#--- Lowdin population analysis ---
# oxidation-state Ni +3.730 +3.673 +3.801 +3.510 +3.514
# magnetic-moments Ni +1.020 -0.879 +1.000 +0.953 -0.967
# oxidation-state Co +1.239 +1.201
# magnetic-moments Co -2.678 +2.635
# oxidation-state V +1.222 +0.990 +1.040 +0.986 +1.043 +1.019 +1.017
# magnetic-moments V -2.013 -2.842 +2.705 -2.846 +2.695 -2.937 +2.929
# oxidation-state Cr +2.905 +2.903
# magnetic-moments Cr -3.884 +3.896
# oxidation-state O -0.834 -0.713 -0.730 -0.712 -0.819 -0.828 -0.826 -0.859 -0.919 -0.885 -0.930 -0.873 -0.903 -0.903 -0.903 -0.904 -0.706
# magnetic-moments O +0.174 +0.277 +0.134 -0.148 +0.081 -0.050 +0.113 -0.022 +0.012 +0.001 +0.052 -0.062 +0.015 -0.011 +0.015 -0.011 +0.377
# oxidation-state H +0.374
# magnetic-moments H -0.007


-------- Electronic minimization -----------
	FillingsUpdate:  mu: +0.124426332  nElectrons: 346.000000  magneticMoment: [ Abs: 40.50006  Tot: +0.00000 ]
ElecMinimize: Iter:   0  F: -1978.657721709339057  |grad|_K:  1.286e-05  alpha:  1.000e+00
	FillingsUpdate:  mu: +0.121747196  nElectrons: 346.000000  magneticMoment: [ Abs: 40.48153  Tot: -0.00000 ]
	SubspaceRotationAdjust: set factor to 0.125
ElecMinimize: Iter:   1  F: -1978.663028587148347  |grad|_K:  2.585e-06  alpha:  1.845e-01  linmin:  3.329e-03  t[s]:  76780.83
	FillingsUpdate:  mu: +0.122360785  nElectrons: 346.000000  magneticMoment: [ Abs: 40.50340  Tot: -0.00000 ]
	SubspaceRotationAdjust: set factor to 0.0743
ElecMinimize: Iter:   2  F: -1978.663232827317870  |grad|_K:  1.171e-06  alpha:  1.753e-01  linmin:  9.906e-04  t[s]:  76863.61
	FillingsUpdate:  mu: +0.121742631  nElectrons: 346.000000  magneticMoment: [ Abs: 40.49645  Tot: -0.00000 ]
	SubspaceRotationAdjust: set factor to 0.077
ElecMinimize: Iter:   3  F: -1978.663304968367584  |grad|_K:  6.077e-07  alpha:  3.036e-01  linmin: -4.663e-05  t[s]:  76945.99
	FillingsUpdate:  mu: +0.121578608  nElectrons: 346.000000  magneticMoment: [ Abs: 40.49493  Tot: -0.00000 ]
	SubspaceRotationAdjust: set factor to 0.081
ElecMinimize: Iter:   4  F: -1978.663325047486069  |grad|_K:  3.909e-07  alpha:  3.107e-01  linmin: -3.866e-06  t[s]:  77029.85
	FillingsUpdate:  mu: +0.121632209  nElectrons: 346.000000  magneticMoment: [ Abs: 40.49653  Tot: -0.00000 ]
	SubspaceRotationAdjust: set factor to 0.0879
ElecMinimize: Iter:   5  F: -1978.663334023410471  |grad|_K:  2.574e-07  alpha:  3.359e-01  linmin:  3.418e-07  t[s]:  77112.97
	FillingsUpdate:  mu: +0.121648696  nElectrons: 346.000000  magneticMoment: [ Abs: 40.49692  Tot: -0.00000 ]
	SubspaceRotationAdjust: set factor to 0.103
ElecMinimize: Iter:   6  F: -1978.663338354373991  |grad|_K:  2.068e-07  alpha:  3.737e-01  linmin: -9.133e-07  t[s]:  77196.53
	FillingsUpdate:  mu: +0.121617059  nElectrons: 346.000000  magneticMoment: [ Abs: 40.49673  Tot: -0.00000 ]
	SubspaceRotationAdjust: set factor to 0.124
ElecMinimize: Iter:   7  F: -1978.663341104903111  |grad|_K:  1.734e-07  alpha:  3.676e-01  linmin: -1.293e-06  t[s]:  77279.38
	FillingsUpdate:  mu: +0.121633859  nElectrons: 346.000000  magneticMoment: [ Abs: 40.49728  Tot: +0.00000 ]
	SubspaceRotationAdjust: set factor to 0.151
ElecMinimize: Iter:   8  F: -1978.663343375264731  |grad|_K:  1.726e-07  alpha:  4.319e-01  linmin: -4.114e-07  t[s]:  77363.81
	FillingsUpdate:  mu: +0.121653312  nElectrons: 346.000000  magneticMoment: [ Abs: 40.49772  Tot: +0.00000 ]
	SubspaceRotationAdjust: set factor to 0.178
ElecMinimize: Iter:   9  F: -1978.663345749305790  |grad|_K:  1.795e-07  alpha:  4.556e-01  linmin:  7.936e-07  t[s]:  77447.38
	FillingsUpdate:  mu: +0.121643186  nElectrons: 346.000000  magneticMoment: [ Abs: 40.49770  Tot: -0.00000 ]
	SubspaceRotationAdjust: set factor to 0.198
ElecMinimize: Iter:  10  F: -1978.663348432189650  |grad|_K:  1.769e-07  alpha:  4.763e-01  linmin: -4.717e-07  t[s]:  77531.52
	FillingsUpdate:  mu: +0.121691388  nElectrons: 346.000000  magneticMoment: [ Abs: 40.49860  Tot: -0.00000 ]
	SubspaceRotationAdjust: set factor to 0.203
ElecMinimize: Iter:  11  F: -1978.663350549602910  |grad|_K:  1.560e-07  alpha:  3.866e-01  linmin:  3.072e-07  t[s]:  77614.28
	FillingsUpdate:  mu: +0.121608088  nElectrons: 346.000000  magneticMoment: [ Abs: 40.49719  Tot: -0.00000 ]
	SubspaceRotationAdjust: set factor to 0.173
ElecMinimize: Iter:  12  F: -1978.663351857888983  |grad|_K:  1.380e-07  alpha:  3.075e-01  linmin: -9.519e-07  t[s]:  77698.48
	FillingsUpdate:  mu: +0.121695283  nElectrons: 346.000000  magneticMoment: [ Abs: 40.49821  Tot: -0.00000 ]
	SubspaceRotationAdjust: set factor to 0.132
ElecMinimize: Iter:  13  F: -1978.663352730109864  |grad|_K:  1.056e-07  alpha:  2.616e-01  linmin: -2.680e-07  t[s]:  77781.81
	FillingsUpdate:  mu: +0.121649644  nElectrons: 346.000000  magneticMoment: [ Abs: 40.49750  Tot: +0.00000 ]
	SubspaceRotationAdjust: set factor to 0.133
ElecMinimize: Iter:  14  F: -1978.663353302203404  |grad|_K:  7.444e-08  alpha:  2.933e-01  linmin:  1.160e-06  t[s]:  77865.78
	FillingsUpdate:  mu: +0.121639321  nElectrons: 346.000000  magneticMoment: [ Abs: 40.49720  Tot: +0.00000 ]
	SubspaceRotationAdjust: set factor to 0.142
ElecMinimize: Iter:  15  F: -1978.663353611492994  |grad|_K:  5.629e-08  alpha:  3.193e-01  linmin: -2.131e-06  t[s]:  77949.45
	FillingsUpdate:  mu: +0.121666046  nElectrons: 346.000000  magneticMoment: [ Abs: 40.49738  Tot: -0.00000 ]
	SubspaceRotationAdjust: set factor to 0.145
ElecMinimize: Iter:  16  F: -1978.663353775393261  |grad|_K:  4.332e-08  alpha:  2.957e-01  linmin:  1.565e-05  t[s]:  78032.37
	FillingsUpdate:  mu: +0.121652012  nElectrons: 346.000000  magneticMoment: [ Abs: 40.49707  Tot: +0.00000 ]
	SubspaceRotationAdjust: set factor to 0.162
ElecMinimize: Iter:  17  F: -1978.663353891336101  |grad|_K:  3.572e-08  alpha:  3.536e-01  linmin:  1.950e-05  t[s]:  78116.10
ElecMinimize: Converged (|Delta F|<1.000000e-06 for 5 iters).
Setting wave functions to eigenvectors of Hamiltonian

# Ionic positions in lattice coordinates:
ion Ni   0.012200677352519  -0.011512572550820   0.159266217357282 1
ion Ni   0.497072660379750  -0.005714250014027   0.149423067077227 1
ion Ni   0.001110453371848   0.506549813781437   0.150274795115577 1
ion Ni   0.247956908372945   0.749315917273363   0.056121401951333 1
ion Ni  -0.246911971483266   0.745614011301568   0.056509679226681 1
ion Co   0.497685805498196   0.513865175227636   0.156143094412521 1
ion Co   0.250829041434448   0.249473381375893   0.060442692374786 1
ion V  -0.245754285505916   0.243562212412632   0.059012450089412 1
ion V   0.000000000000000   0.000000000000000  -0.050000000000000 0
ion V   0.500000000000000   0.000000000000000  -0.050000000000000 0
ion V   0.000000000000000   0.500000000000000  -0.050000000000000 0
ion V   0.500000000000000   0.500000000000000  -0.050000000000000 0
ion V   0.250000000000000   0.250000000000000  -0.150000000000000 0
ion V  -0.250000000000000   0.750000000000000  -0.150000000000000 0
ion Cr   0.250000000000000   0.750000000000000  -0.150000000000000 0
ion Cr  -0.250000000000000   0.250000000000000  -0.150000000000000 0
ion O   0.250857448189026   0.265834338867309   0.154509901513661 1
ion O   0.244363224041629   0.740889751551882   0.149102870249606 1
ion O  -0.247337082530570   0.272747748534557   0.146872197508207 1
ion O  -0.244901058959989   0.742576623641952   0.148859169093982 1
ion O  -0.008905936354879   0.005076244994237   0.051474720689832 1
ion O   0.507023078314572  -0.008787614653433   0.049684847929910 1
ion O   0.001279023701947   0.497803037337654   0.050094690650777 1
ion O   0.520294057750377   0.489919991388626   0.048578868842549 1
ion O   0.250000000000000   0.250000000000000  -0.050000000000000 0
ion O   0.250000000000000   0.750000000000000  -0.050000000000000 0
ion O  -0.250000000000000   0.250000000000000  -0.050000000000000 0
ion O  -0.250000000000000   0.750000000000000  -0.050000000000000 0
ion O   0.000000000000000   0.000000000000000  -0.150000000000000 0
ion O   0.500000000000000   0.000000000000000  -0.150000000000000 0
ion O   0.000000000000000   0.500000000000000  -0.150000000000000 0
ion O   0.500000000000000   0.500000000000000  -0.150000000000000 0
ion O  -0.009257978673868  -0.011259871251172   0.246523476617315 1
ion H   0.091984933981093   0.100047354120424   0.261364335491191 1

# Forces in Lattice coordinates:
force Ni   0.003837197523541   0.001497038495629   0.019198212692634 1
force Ni   0.003821242046214   0.001485890040298   0.007188133178861 1
force Ni   0.003024473652049   0.000447355708334   0.013088192699191 1
force Ni   0.000374812697872   0.002858081402270   0.030859872739818 1
force Ni   0.003143669304760   0.002891085620188   0.023768505999085 1
force Co   0.002037573773627  -0.000478763275006   0.010407975694187 1
force Co   0.000998211290052   0.000995192759726   0.001836670934142 1
force V   0.003009128540912   0.000775559935656   0.030603542138977 1
force V  -0.063194291878145  -0.033300186164570   0.833290041251994 0
force V  -0.070029992893582  -0.051189896292293   0.790197454658606 0
force V  -0.036051112897862   0.058187547231811   0.701928236244096 0
force V  -0.060879679165393   0.037651836203867   0.752240990578515 0
force V   0.040684191877020   0.002307153875066  -0.542670145561620 0
force V   0.059904311445061  -0.002726802393254  -0.513431920454176 0
force Cr   0.002483978876242  -0.003875590188745  -1.468793616929620 0
force Cr   0.025867824357766   0.002120308764486  -1.557842710048923 0
force O   0.002084758130340   0.003828869115476  -0.006402621415749 1
force O   0.003975943741590   0.000121253973622   0.010007329391474 1
force O   0.002017775267441  -0.002309049432321   0.010206114517178 1
force O  -0.001919595096604  -0.000049563895912  -0.001507827874601 1
force O  -0.001599227035919   0.000857484676585   0.002358073396226 1
force O   0.000628403866302  -0.000926463769010  -0.003437444331917 1
force O  -0.000947366202617   0.003552697502556  -0.002309924691088 1
force O   0.002912442832363  -0.003436903882577  -0.003649790488293 1
force O   0.040432788707135  -0.003957559352556  -0.136847613049518 0
force O   0.047741052710242   0.003464214225564   0.917819331345512 0
force O  -0.060277699724454  -0.009957665659754   1.149153079658495 0
force O  -0.078352053594308   0.004273956827617  -0.180889526212005 0
force O   0.047922892724870  -0.010938695897648  -0.226317910122459 0
force O   0.034568495062662   0.006182639249015  -0.156535715923299 0
force O   0.044260400732706   0.008157371834401  -0.263564733656638 0
force O   0.031279953828138  -0.002117451561069  -0.172193256503213 0
force O  -0.003917058115487  -0.000034309752349  -0.005615093861454 1
force H  -0.003043848794717   0.000081010953974   0.002838628580386 1

# Energy components:
   Eewald =     5390.4771868760162761
       EH =     7173.0462266896984147
     Eloc =   -14706.5964339266229217
      Enl =     -504.7585162145767868
   Epulay =       -0.0004849842440617
      Exc =     -243.7470300377447074
       KE =      911.5897324052737076
        U =        1.3271869455769654
-------------------------------------
     Etot =    -1978.6621322466223774
       TS =        0.0012216447137480
-------------------------------------
        F =    -1978.6633538913361008

IonicMinimize: Iter:  17  F: -1978.663353891336101  |grad|_K:  2.576e-04  alpha:  1.000e+00  linmin: -1.264e-02  t[s]:  78143.11
IonicMinimize: Converged (|Delta F|<1.000000e-04 for 3 iters).

#--- Lowdin population analysis ---
# oxidation-state Ni +3.731 +3.671 +3.801 +3.510 +3.515
# magnetic-moments Ni +1.020 -0.877 +1.001 +0.953 -0.967
# oxidation-state Co +1.239 +1.201
# magnetic-moments Co -2.678 +2.636
# oxidation-state V +1.222 +0.990 +1.041 +0.987 +1.044 +1.019 +1.017
# magnetic-moments V -2.013 -2.842 +2.703 -2.846 +2.693 -2.937 +2.929
# oxidation-state Cr +2.905 +2.903
# magnetic-moments Cr -3.884 +3.896
# oxidation-state O -0.834 -0.713 -0.729 -0.712 -0.819 -0.828 -0.826 -0.859 -0.919 -0.886 -0.930 -0.873 -0.903 -0.903 -0.903 -0.903 -0.707
# magnetic-moments O +0.175 +0.278 +0.134 -0.148 +0.081 -0.049 +0.113 -0.022 +0.012 +0.000 +0.052 -0.063 +0.015 -0.011 +0.015 -0.011 +0.376
# oxidation-state H +0.374
# magnetic-moments H -0.006


Dumping 'run.ionpos' ... done
Dumping 'run.lattice' ... done
Dumping 'run.Ecomponents' ... done
End date and time: Mon May 19 21:59:41 2025  (Duration: 0-21:42:30.70)
Done!
