
*************** JDFTx 1.7.0  ***************

Start date and time: Fri May 16 21:18:11 2025
Executable /data2/jt577/jdftx_eat_withLibXC/build/jdftx with command-line: -i /data2/jt577/May_2025/Relax_Mag_litU/rel16+1_6/OH/runs/calc_/run.in
Running on hosts (process indices):  node3407 (0-8)
Divided in process groups (process indices):  0 (0)  1 (1)  2 (2)  3 (3)  4 (4)  5 (5)  6 (6)  7 (7)  8 (8)
Resource initialization completed at t[s]:      0.00
Run totals: 9 processes, 90 threads, 0 GPUs


Input parsed successfully to the following command list (including defaults):

add-mix 
add-U 	Ni d 0.235196 \
	Co d 0.121273 \
	V d 0.113923 \
	Cr d 0.128623
basis kpoint-dependent
coords-type Lattice
core-overlap-check vector
coulomb-interaction Periodic
davidson-band-ratio 1.1
dump End IonicPositions Lattice Ecomponents
dump-name run.$VAR
elec-cutoff 30
elec-eigen-algo Davidson
elec-ex-corr gga-x-rpbe gga-c-pbe
elec-smearing Fermi 0.001
electronic-minimize  \
	dirUpdateScheme      FletcherReeves \
	linminMethod         DirUpdateRecommended \
	nIterations          1000 \
	history              15 \
	knormThreshold       0 \
	energyDiffThreshold  1e-06 \
	nEnergyDiff          5 \
	alphaTstart          1 \
	alphaTmin            1e-10 \
	updateTestStepSize   yes \
	alphaTreduceFactor   0.1 \
	alphaTincreaseFactor 3 \
	nAlphaAdjustMax      3 \
	wolfeEnergy          0.0001 \
	wolfeGradient        0.9 \
	fdTest               no
exchange-regularization WignerSeitzTruncated
fluid None
fluid-ex-corr (null) lda-PZ
fluid-gummel-loop 10 1.000000e-05
fluid-minimize  \
	dirUpdateScheme      PolakRibiere \
	linminMethod         DirUpdateRecommended \
	nIterations          100 \
	history              15 \
	knormThreshold       0 \
	energyDiffThreshold  0 \
	nEnergyDiff          2 \
	alphaTstart          1 \
	alphaTmin            1e-10 \
	updateTestStepSize   yes \
	alphaTreduceFactor   0.1 \
	alphaTincreaseFactor 3 \
	nAlphaAdjustMax      3 \
	wolfeEnergy          0.0001 \
	wolfeGradient        0.9 \
	fdTest               no
fluid-solvent H2O 55.338 ScalarEOS \
	epsBulk 78.4 \
	pMol 0.92466 \
	epsInf 1.77 \
	Pvap 1.06736e-10 \
	sigmaBulk 4.62e-05 \
	Rvdw 2.61727 \
	Res 1.42 \
	tauNuc 343133 \
	poleEl 15 7 1
forces-output-coords Positions
initial-magnetic-moments  \
	Ni 1 -1 1 1 \
	Co -1 -1 -1 -1 \
	V 1 1 1 -1 -1 1 1 \
	Cr -1
initial-state run.$VAR
ion Ni  0.000000000000000   0.000000000000000   0.150000000000000 1
ion Ni  0.500000000000000   0.500000000000000   0.150000000000000 1
ion Ni  0.250000000000000   0.250000000000000   0.050000000000000 1
ion Ni  0.250000000000000   0.750000000000000   0.050000000000000 1
ion Co  0.500000000000000   0.000000000000000   0.150000000000000 1
ion Co -0.250000000000000   0.250000000000000   0.050000000000000 1
ion Co -0.250000000000000   0.750000000000000   0.050000000000000 1
ion Co  0.000000000000000   0.000000000000000  -0.050000000000000 0
ion V  0.000000000000000   0.500000000000000   0.150000000000000 1
ion V  0.500000000000000   0.000000000000000  -0.050000000000000 0
ion V  0.500000000000000   0.500000000000000  -0.050000000000000 0
ion V  0.250000000000000   0.250000000000000  -0.150000000000000 0
ion V  0.250000000000000   0.750000000000000  -0.150000000000000 0
ion V -0.250000000000000   0.250000000000000  -0.150000000000000 0
ion V -0.250000000000000   0.750000000000000  -0.150000000000000 0
ion Cr  0.000000000000000   0.500000000000000  -0.050000000000000 0
ion O  0.250000000000000   0.250000000000000   0.150000000000000 1
ion O  0.250000000000000   0.750000000000000   0.150000000000000 1
ion O -0.250000000000000   0.250000000000000   0.150000000000000 1
ion O -0.250000000000000   0.750000000000000   0.150000000000000 1
ion O  0.000000000000000   0.000000000000000   0.050000000000000 1
ion O  0.500000000000000   0.000000000000000   0.050000000000000 1
ion O  0.000000000000000   0.500000000000000   0.050000000000000 1
ion O  0.500000000000000   0.500000000000000   0.050000000000000 1
ion O  0.250000000000000   0.250000000000000  -0.050000000000000 0
ion O  0.250000000000000   0.750000000000000  -0.050000000000000 0
ion O -0.250000000000000   0.250000000000000  -0.050000000000000 0
ion O -0.250000000000000   0.750000000000000  -0.050000000000000 0
ion O  0.000000000000000   0.000000000000000  -0.150000000000000 0
ion O  0.500000000000000   0.000000000000000  -0.150000000000000 0
ion O  0.000000000000000   0.500000000000000  -0.150000000000000 0
ion O  0.500000000000000   0.500000000000000  -0.150000000000000 0
ion O -0.008040138212305  -0.008269777577920   0.235000196603227 1
ion H  0.095742872057713   0.094897636790041   0.252810710255288 1
ion-species SG15/$ID_ONCV_PBE.upf
ion-width 0
ionic-minimize  \
	dirUpdateScheme      L-BFGS \
	linminMethod         DirUpdateRecommended \
	nIterations          1000 \
	history              15 \
	knormThreshold       0.0001 \
	energyDiffThreshold  0.0001 \
	nEnergyDiff          3 \
	alphaTstart          1 \
	alphaTmin            1e-10 \
	updateTestStepSize   yes \
	alphaTreduceFactor   0.1 \
	alphaTincreaseFactor 3 \
	nAlphaAdjustMax      3 \
	wolfeEnergy          0.0001 \
	wolfeGradient        0.9 \
	fdTest               no
kpoint   0.500000000000   0.500000000000   0.500000000000  1.00000000000000
kpoint-folding 3 3 1 
latt-move-scale 1 1 1
latt-scale 1 1 1 
lattice  \
	   8.140000000000001    8.140000000000001    0.000000000000000  \
	   8.140000000000001   -8.140000000000001    0.000000000000000  \
	   0.000000000000000    0.000000000000000   40.700000000000003 
lattice-minimize  \
	dirUpdateScheme      L-BFGS \
	linminMethod         DirUpdateRecommended \
	nIterations          0 \
	history              15 \
	knormThreshold       0 \
	energyDiffThreshold  1e-06 \
	nEnergyDiff          2 \
	alphaTstart          1 \
	alphaTmin            1e-10 \
	updateTestStepSize   yes \
	alphaTreduceFactor   0.1 \
	alphaTincreaseFactor 3 \
	nAlphaAdjustMax      3 \
	wolfeEnergy          0.0001 \
	wolfeGradient        0.9 \
	fdTest               no
lcao-params -1 1e-06 0.001
pcm-variant GLSSA13
spintype z-spin
subspace-rotation-factor 1 yes
symmetries none
symmetry-threshold 0.0001


Applied RMS atom displacement 0 bohrs to make symmetries exact.

---------- Initializing the Grid ----------
R = 
[         8.14         8.14            0  ]
[         8.14        -8.14            0  ]
[            0            0         40.7  ]
unit cell volume = 5393.53
G =
[   0.385945   0.385945         -0  ]
[   0.385945  -0.385945         -0  ]
[         -0         -0   0.154378  ]
Minimum fftbox size, Smin = [  60  60  204  ]
Chosen fftbox size, S = [  60  60  210  ]

---------- Exchange Correlation functional ----------
Initialized LibXC exchange functional 'Hammer, Hansen, and Norskov'
Initialized LibXC correlation functional 'Perdew, Burke & Ernzerhof'

---------- Setting up pseudopotentials ----------
Width of ionic core gaussian charges (only for fluid interactions / plotting) set to 0

Reading pseudopotential file '/data2/jt577/jdftx_eat_withLibXC/build/pseudopotentials/SG15/Ni_ONCV_PBE.upf':
  'Ni' pseudopotential, 'PBE' functional
  Generated using ONCVPSP code by D. R. Hamann
  Author: Martin Schlipf and Francois Gygi  Date: 150915.
  18 valence electrons, 4 orbitals, 6 projectors, 1292 radial grid points, with lMax = 2
  Transforming local potential to a uniform radial grid of dG=0.02 with 1419 points.
  Transforming nonlocal projectors to a uniform radial grid of dG=0.02 with 528 points.
    3S    l: 0   occupation:  2.0   eigenvalue: -4.081355
    3P    l: 1   occupation:  6.0   eigenvalue: -2.623460
    4S    l: 0   occupation:  2.0   eigenvalue: -0.207378
    3D    l: 2   occupation:  8.0   eigenvalue: -0.326118
  Transforming atomic orbitals to a uniform radial grid of dG=0.02 with 528 points.
  WARNING: large normalization error in atomic orbital 1s (integral: 0.000006).
  Core radius for overlap checks: 1.99 bohrs.
  Reading pulay file /data2/jt577/jdftx_eat_withLibXC/build/pseudopotentials/SG15/Ni_ONCV_PBE.pulay ... using dE_dnG = -7.250568e-04 computed for Ecut = 30.

Reading pseudopotential file '/data2/jt577/jdftx_eat_withLibXC/build/pseudopotentials/SG15/Co_ONCV_PBE.upf':
  'Co' pseudopotential, 'PBE' functional
  Generated using ONCVPSP code by D. R. Hamann
  Author: Martin Schlipf and Francois Gygi  Date: 150915.
  17 valence electrons, 4 orbitals, 6 projectors, 1388 radial grid points, with lMax = 2
  Transforming local potential to a uniform radial grid of dG=0.02 with 1419 points.
  Transforming nonlocal projectors to a uniform radial grid of dG=0.02 with 528 points.
    3S    l: 0   occupation:  2.0   eigenvalue: -3.763303
    3P    l: 1   occupation:  6.0   eigenvalue: -2.412101
    4S    l: 0   occupation:  2.0   eigenvalue: -0.201022
    3D    l: 2   occupation:  7.0   eigenvalue: -0.301498
  Transforming atomic orbitals to a uniform radial grid of dG=0.02 with 528 points.
  Core radius for overlap checks: 1.94 bohrs.
  Reading pulay file /data2/jt577/jdftx_eat_withLibXC/build/pseudopotentials/SG15/Co_ONCV_PBE.pulay ... using dE_dnG = -9.787391e-05 computed for Ecut = 30.

Reading pseudopotential file '/data2/jt577/jdftx_eat_withLibXC/build/pseudopotentials/SG15/V_ONCV_PBE.upf':
  'V' pseudopotential, 'PBE' functional
  Generated using ONCVPSP code by D. R. Hamann
  Author: Martin Schlipf and Francois Gygi  Date: 150915.
  13 valence electrons, 4 orbitals, 6 projectors, 1536 radial grid points, with lMax = 2
  Transforming local potential to a uniform radial grid of dG=0.02 with 1419 points.
  Transforming nonlocal projectors to a uniform radial grid of dG=0.02 with 528 points.
    3S    l: 0   occupation:  2.0   eigenvalue: -2.581105
    3P    l: 1   occupation:  6.0   eigenvalue: -1.618486
    4S    l: 0   occupation:  2.0   eigenvalue: -0.172804
    3D    l: 2   occupation:  3.0   eigenvalue: -0.189795
  Transforming atomic orbitals to a uniform radial grid of dG=0.02 with 528 points.
  Core radius for overlap checks: 1.80 bohrs.
  Reading pulay file /data2/jt577/jdftx_eat_withLibXC/build/pseudopotentials/SG15/V_ONCV_PBE.pulay ... using dE_dnG = -1.698632e-04 computed for Ecut = 30.

Reading pseudopotential file '/data2/jt577/jdftx_eat_withLibXC/build/pseudopotentials/SG15/Cr_ONCV_PBE.upf':
  'Cr' pseudopotential, 'PBE' functional
  Generated using ONCVPSP code by D. R. Hamann
  Author: Martin Schlipf and Francois Gygi  Date: 150915.
  14 valence electrons, 4 orbitals, 6 projectors, 1160 radial grid points, with lMax = 2
  Transforming local potential to a uniform radial grid of dG=0.02 with 1419 points.
  Transforming nonlocal projectors to a uniform radial grid of dG=0.02 with 528 points.
    3S    l: 0   occupation:  2.0   eigenvalue: -2.865131
    3P    l: 1   occupation:  6.0   eigenvalue: -1.810600
    4S    l: 0   occupation:  2.0   eigenvalue: -0.180525
    3D    l: 2   occupation:  4.0   eigenvalue: -0.220312
  Transforming atomic orbitals to a uniform radial grid of dG=0.02 with 528 points.
  WARNING: large normalization error in atomic orbital 1s (integral: 0.000001).
  Core radius for overlap checks: 2.10 bohrs.
  Reading pulay file /data2/jt577/jdftx_eat_withLibXC/build/pseudopotentials/SG15/Cr_ONCV_PBE.pulay ... using dE_dnG = -9.817895e-06 computed for Ecut = 30.

Reading pseudopotential file '/data2/jt577/jdftx_eat_withLibXC/build/pseudopotentials/SG15/O_ONCV_PBE.upf':
  'O' pseudopotential, 'PBE' functional
  Generated using ONCVPSP code by D. R. Hamann
  Author: Martin Schlipf and Francois Gygi  Date: 150915.
  6 valence electrons, 2 orbitals, 4 projectors, 936 radial grid points, with lMax = 1
  Transforming local potential to a uniform radial grid of dG=0.02 with 1419 points.
  Transforming nonlocal projectors to a uniform radial grid of dG=0.02 with 528 points.
    2S    l: 0   occupation:  2.0   eigenvalue: -0.880572
    2P    l: 1   occupation:  4.0   eigenvalue: -0.331869
  Transforming atomic orbitals to a uniform radial grid of dG=0.02 with 528 points.
  Core radius for overlap checks: 1.29 bohrs.
  Reading pulay file /data2/jt577/jdftx_eat_withLibXC/build/pseudopotentials/SG15/O_ONCV_PBE.pulay ... using dE_dnG = -8.209514e-03 computed for Ecut = 30.

Reading pseudopotential file '/data2/jt577/jdftx_eat_withLibXC/build/pseudopotentials/SG15/H_ONCV_PBE.upf':
  'H' pseudopotential, 'PBE' functional
  Generated using ONCVPSP code by D. R. Hamann
  Author: Martin Schlipf and Francois Gygi  Date: 150915.
  1 valence electrons, 1 orbitals, 2 projectors, 1166 radial grid points, with lMax = 0
  Transforming local potential to a uniform radial grid of dG=0.02 with 1419 points.
  Transforming nonlocal projectors to a uniform radial grid of dG=0.02 with 528 points.
    1S    l: 0   occupation:  1.0   eigenvalue: -0.238602
  Transforming atomic orbitals to a uniform radial grid of dG=0.02 with 528 points.
  Core radius for overlap checks: 1.01 bohrs.
  Reading pulay file /data2/jt577/jdftx_eat_withLibXC/build/pseudopotentials/SG15/H_ONCV_PBE.pulay ... using dE_dnG = -8.245991e-05 computed for Ecut = 30.

Initialized 6 species with 34 total atoms.

Folded 1 k-points by 3x3x1 to 9 k-points.

---------- Setting up k-points, bands, fillings ----------
No reducable k-points. 
Computing the number of bands and number of electrons
Calculating initial fillings.
nElectrons: 348.000000   nBands: 229   nStates: 18

----- Setting up reduced wavefunction bases (one per k-point) -----
average nbasis = 42312.000 , ideal nbasis = 42330.081

---------- Setting up ewald sum ----------
Optimum gaussian width for ewald sums = 3.887061 bohr.
Real space sum over 605 unit cells with max indices [  5  5  2  ]
Reciprocal space sum over 5915 terms with max indices [  6  6  17  ]

---------- Allocating electronic variables ----------
Initializing wave functions:  linear combination of atomic orbitals
Ni (M=1) pseudo-atom majority spin occupations:   s ( 1 0.5 )  p ( 3 )  d ( 5 )
Ni (M=1) pseudo-atom minority spin occupations:   s ( 1 0 )  p ( 3 )  d ( 4.5 )
Co (M=1) pseudo-atom majority spin occupations:   s ( 1 0 )  p ( 3 )  d ( 5 )
Co (M=1) pseudo-atom minority spin occupations:   s ( 1 0 )  p ( 3 )  d ( 4 )
V (M=1) pseudo-atom majority spin occupations:   s ( 1 0 )  p ( 3 )  d ( 3 )
V (M=1) pseudo-atom minority spin occupations:   s ( 1 0 )  p ( 3 )  d ( 2 )
Cr (M=1) pseudo-atom majority spin occupations:   s ( 1 0 )  p ( 3 )  d ( 3.5 )
Cr (M=1) pseudo-atom minority spin occupations:   s ( 1 0 )  p ( 3 )  d ( 2.5 )
O pseudo-atom occupations:   s ( 2 )  p ( 4 )
H pseudo-atom occupations:   s ( 1 )
	FillingsUpdate:  mu: -0.292883902  nElectrons: 348.000000  magneticMoment: [ Abs: 3.86597  Tot: -0.00000 ]
LCAOMinimize: Iter:   0  F: -1880.7767281585163346  |grad|_K:  2.469e-02  alpha:  1.000e+00
LCAOMinimize: 	Step increased F by 7.273086e+01, reducing alpha to 4.201226e-02.
	FillingsUpdate:  mu: +0.732710445  nElectrons: 348.000000  magneticMoment: [ Abs: 3.34733  Tot: +0.00000 ]
LCAOMinimize: Iter:   1  F: -1901.8941386430788043  |grad|_K:  3.393e-02  alpha:  4.201e-02  linmin:  1.509e-02  cgtest: -1.496e-01  t[s]:     55.68
LCAOMinimize: 	Step increased F by 4.326893e+00, reducing alpha to 1.826554e-03.
	FillingsUpdate:  mu: +0.814700037  nElectrons: 348.000000  magneticMoment: [ Abs: 3.21685  Tot: -0.00000 ]
LCAOMinimize: Iter:   2  F: -1903.3334286534729927  |grad|_K:  3.410e-02  alpha:  1.827e-03  linmin: -2.303e-02  cgtest:  8.919e-01  t[s]:     81.06
LCAOMinimize: 	Predicted alpha/alphaT>3.000000, increasing alphaT to 5.479662e-03.
	FillingsUpdate:  mu: +0.668419504  nElectrons: 348.000000  magneticMoment: [ Abs: 3.68199  Tot: -0.00000 ]
LCAOMinimize: Iter:   3  F: -1908.9698332674395260  |grad|_K:  2.148e-02  alpha:  7.706e-03  linmin: -6.531e-02  cgtest:  6.599e-01  t[s]:    100.00
LCAOMinimize: Encountered beta<0, resetting CG.
LCAOMinimize: 	Predicted alpha/alphaT>3.000000, increasing alphaT to 2.311882e-02.
	FillingsUpdate:  mu: +0.155843943  nElectrons: 348.000000  magneticMoment: [ Abs: 6.29924  Tot: -0.00000 ]
LCAOMinimize: Iter:   4  F: -1915.5832465640903592  |grad|_K:  3.079e-02  alpha:  4.124e-02  linmin:  1.561e-02  cgtest: -6.877e-03  t[s]:    119.02
	FillingsUpdate:  mu: +0.156342132  nElectrons: 348.000000  magneticMoment: [ Abs: 6.88636  Tot: -0.00000 ]
LCAOMinimize: Iter:   5  F: -1916.8481426775899763  |grad|_K:  3.096e-02  alpha:  2.651e-03  linmin: -1.099e-02  cgtest:  9.697e-01  t[s]:    133.77
LCAOMinimize: 	Predicted alpha/alphaT>3.000000, increasing alphaT to 7.952645e-03.
	FillingsUpdate:  mu: +0.336552287  nElectrons: 348.000000  magneticMoment: [ Abs: 6.91272  Tot: +0.00000 ]
LCAOMinimize: Iter:   6  F: -1923.0556433533772633  |grad|_K:  1.220e-02  alpha:  1.274e-02  linmin: -3.571e-02  cgtest:  1.142e-01  t[s]:    152.87
LCAOMinimize: 	Predicted alpha/alphaT>3.000000, increasing alphaT to 3.823175e-02.
	FillingsUpdate:  mu: +0.314487271  nElectrons: 348.000000  magneticMoment: [ Abs: 6.11331  Tot: -0.00000 ]
LCAOMinimize: Iter:   7  F: -1929.7742911582806755  |grad|_K:  2.468e-02  alpha:  6.914e-02  linmin: -1.105e-02  cgtest:  7.395e-02  t[s]:    171.88
	FillingsUpdate:  mu: +0.226511421  nElectrons: 348.000000  magneticMoment: [ Abs: 6.73776  Tot: +0.00000 ]
LCAOMinimize: Iter:   8  F: -1933.4919263377628340  |grad|_K:  1.991e-02  alpha:  4.945e-03  linmin: -1.935e-02  cgtest:  8.612e-01  t[s]:    186.75
LCAOMinimize: Encountered beta<0, resetting CG.
	FillingsUpdate:  mu: +0.218767502  nElectrons: 348.000000  magneticMoment: [ Abs: 8.30349  Tot: -0.00000 ]
LCAOMinimize: Iter:   9  F: -1934.9481920334387723  |grad|_K:  9.542e-03  alpha:  8.085e-03  linmin:  1.317e-02  cgtest: -1.157e-01  t[s]:    201.43
LCAOMinimize: 	Wrong curvature in test step, increasing alphaT to 2.425644e-02.
	FillingsUpdate:  mu: +0.228403873  nElectrons: 348.000000  magneticMoment: [ Abs: 8.41392  Tot: +0.00000 ]
LCAOMinimize: Iter:  10  F: -1935.6115057948270533  |grad|_K:  9.757e-03  alpha: -1.726e-01  linmin: -4.310e-02  cgtest:  9.604e-01  t[s]:    215.08
	FillingsUpdate:  mu: +0.780423756  nElectrons: 348.000000  magneticMoment: [ Abs: 9.91540  Tot: +0.00000 ]
LCAOMinimize: Iter:  11  F: -1939.3565863581920894  |grad|_K:  1.692e-02  alpha:  1.247e-01  linmin:  4.207e-02  cgtest: -2.047e-01  t[s]:    229.78
LCAOMinimize: 	Bad step direction: g.d > 0.
LCAOMinimize: 	Undoing step.
LCAOMinimize: 	Step failed: resetting search direction.
	FillingsUpdate:  mu: +0.780423756  nElectrons: 348.000000  magneticMoment: [ Abs: 9.91540  Tot: +0.00000 ]
LCAOMinimize: Iter:  12  F: -1939.3565863581920894  |grad|_K:  1.692e-02  alpha:  0.000e+00
	FillingsUpdate:  mu: +0.041659241  nElectrons: 348.000000  magneticMoment: [ Abs: 9.85101  Tot: -0.00000 ]
LCAOMinimize: Iter:  13  F: -1944.5854841088694229  |grad|_K:  1.048e-02  alpha:  3.173e-02  linmin:  6.754e-02  cgtest: -3.967e-01  t[s]:    254.58
	FillingsUpdate:  mu: -0.039340082  nElectrons: 348.000000  magneticMoment: [ Abs: 11.18189  Tot: +0.00000 ]
LCAOMinimize: Iter:  14  F: -1945.7555430715333387  |grad|_K:  9.854e-03  alpha:  1.535e-02  linmin: -6.681e-02  cgtest:  8.646e-01  t[s]:    269.09
	FillingsUpdate:  mu: +0.119451744  nElectrons: 348.000000  magneticMoment: [ Abs: 12.70653  Tot: -0.00000 ]
LCAOMinimize: Iter:  15  F: -1946.4825518937266224  |grad|_K:  7.172e-03  alpha:  1.446e-02  linmin:  1.845e-02  cgtest: -8.443e-02  t[s]:    283.92
	FillingsUpdate:  mu: +0.268342882  nElectrons: 348.000000  magneticMoment: [ Abs: 12.98067  Tot: -0.00000 ]
LCAOMinimize: Iter:  16  F: -1946.7807075434732269  |grad|_K:  8.506e-03  alpha:  1.366e-02  linmin:  9.958e-03  cgtest:  6.780e-01  t[s]:    298.59
	FillingsUpdate:  mu: +0.177151131  nElectrons: 348.000000  magneticMoment: [ Abs: 12.21233  Tot: -0.00000 ]
LCAOMinimize: Iter:  17  F: -1947.1703783877501337  |grad|_K:  4.536e-03  alpha:  1.237e-02  linmin: -3.236e-03  cgtest: -1.976e-02  t[s]:    313.29
LCAOMinimize: 	Predicted alpha/alphaT>3.000000, increasing alphaT to 3.712454e-02.
	FillingsUpdate:  mu: +0.073119319  nElectrons: 348.000000  magneticMoment: [ Abs: 13.51088  Tot: +0.00000 ]
LCAOMinimize: Iter:  18  F: -1947.6300982347684112  |grad|_K:  3.883e-03  alpha:  5.188e-02  linmin:  2.615e-02  cgtest:  1.939e-02  t[s]:    332.45
	FillingsUpdate:  mu: +0.079283539  nElectrons: 348.000000  magneticMoment: [ Abs: 13.92046  Tot: +0.00000 ]
LCAOMinimize: Iter:  19  F: -1947.6689666335169022  |grad|_K:  3.006e-03  alpha:  9.823e-03  linmin:  5.263e-03  cgtest:  6.181e-01  t[s]:    347.12
LCAOMinimize: 	Predicted alpha/alphaT>3.000000, increasing alphaT to 2.946909e-02.
	FillingsUpdate:  mu: +0.144227042  nElectrons: 348.000000  magneticMoment: [ Abs: 14.62124  Tot: +0.00000 ]
LCAOMinimize: Iter:  20  F: -1947.8433205454332438  |grad|_K:  2.354e-03  alpha:  4.146e-02  linmin:  2.334e-03  cgtest:  1.005e-01  t[s]:    366.25
	FillingsUpdate:  mu: +0.109740988  nElectrons: 348.000000  magneticMoment: [ Abs: 14.74137  Tot: +0.00000 ]
LCAOMinimize: Iter:  21  F: -1947.8808349200187422  |grad|_K:  2.237e-03  alpha:  1.944e-02  linmin:  5.270e-03  cgtest: -2.659e-01  t[s]:    381.00
	FillingsUpdate:  mu: +0.106635221  nElectrons: 348.000000  magneticMoment: [ Abs: 15.63965  Tot: +0.00000 ]
LCAOMinimize: Iter:  22  F: -1947.9628253686701100  |grad|_K:  1.354e-03  alpha:  3.987e-02  linmin: -2.218e-03  cgtest:  3.508e-01  t[s]:    395.46
	FillingsUpdate:  mu: +0.137218513  nElectrons: 348.000000  magneticMoment: [ Abs: 16.09979  Tot: +0.00000 ]
LCAOMinimize: Iter:  23  F: -1947.9989723161991151  |grad|_K:  1.918e-03  alpha:  4.068e-02  linmin:  1.776e-04  cgtest:  9.673e-04  t[s]:    410.06
	FillingsUpdate:  mu: +0.137228344  nElectrons: 348.000000  magneticMoment: [ Abs: 16.38819  Tot: +0.00000 ]
LCAOMinimize: Iter:  24  F: -1948.0310586165803670  |grad|_K:  1.081e-03  alpha:  1.837e-02  linmin: -2.399e-04  cgtest:  2.328e-01  t[s]:    424.79
	FillingsUpdate:  mu: +0.116753044  nElectrons: 348.000000  magneticMoment: [ Abs: 16.85082  Tot: -0.00000 ]
LCAOMinimize: Iter:  25  F: -1948.0541464346797511  |grad|_K:  9.261e-04  alpha:  3.828e-02  linmin: -4.333e-03  cgtest:  1.940e-01  t[s]:    439.68
	FillingsUpdate:  mu: +0.128725197  nElectrons: 348.000000  magneticMoment: [ Abs: 17.16821  Tot: +0.00000 ]
LCAOMinimize: Iter:  26  F: -1948.0633735150497614  |grad|_K:  9.519e-04  alpha:  2.031e-02  linmin:  2.000e-04  cgtest: -1.562e-01  t[s]:    454.31
LCAOMinimize: 	Predicted alpha/alphaT>3.000000, increasing alphaT to 6.093581e-02.
	FillingsUpdate:  mu: +0.132860219  nElectrons: 348.000000  magneticMoment: [ Abs: 18.33571  Tot: +0.00000 ]
LCAOMinimize: Iter:  27  F: -1948.1037540830013768  |grad|_K:  1.171e-03  alpha:  8.905e-02  linmin: -1.540e-03  cgtest:  5.969e-01  t[s]:    473.19
	FillingsUpdate:  mu: +0.139496532  nElectrons: 348.000000  magneticMoment: [ Abs: 18.48966  Tot: +0.00000 ]
LCAOMinimize: Iter:  28  F: -1948.1126606274133337  |grad|_K:  1.327e-03  alpha:  2.080e-02  linmin:  4.946e-03  cgtest: -3.931e-01  t[s]:    488.02
	FillingsUpdate:  mu: +0.138047831  nElectrons: 348.000000  magneticMoment: [ Abs: 19.22799  Tot: -0.00000 ]
LCAOMinimize: Iter:  29  F: -1948.1252167094744436  |grad|_K:  1.996e-03  alpha:  2.875e-02  linmin: -6.966e-04  cgtest:  9.610e-01  t[s]:    503.01
	FillingsUpdate:  mu: +0.135466846  nElectrons: 348.000000  magneticMoment: [ Abs: 19.66031  Tot: -0.00000 ]
LCAOMinimize: Iter:  30  F: -1948.1483690444472359  |grad|_K:  4.604e-04  alpha:  1.017e-02  linmin: -1.102e-02  cgtest:  3.762e-01  t[s]:    517.65
LCAOMinimize: Encountered beta<0, resetting CG.
LCAOMinimize: None of the convergence criteria satisfied after 30 iterations.


---- Citations for features of the code used in this run ----

   Software package:
      R. Sundararaman, K. Letchworth-Weaver, K.A. Schwarz, D. Gunceler, Y. Ozhabes and T.A. Arias, 'JDFTx: software for joint density-functional theory', SoftwareX 6, 278 (2017)

   Simplified rotationally-invariant DFT+U:
      S. L. Dudarev et al., Phys. Rev. B 57, 1505 (1998)

   LibXC library of exchange-correlation functions:
      M. A. L. Marques, M. J. T. Oliveira and T. Burnus, Comput. Phys. Commun. 183, 2272 (2012)

   Hammer, Hansen, and Norskov exchange functional:
      B. Hammer, L. B. Hansen, and J. K. Nørskov, Phys. Rev. B 59, 7413 (1999)

   Perdew, Burke & Ernzerhof correlation functional:
      J. P. Perdew, K. Burke, and M. Ernzerhof, Phys. Rev. Lett. 77, 3865 (1996)

   Pseudopotentials:
      M Schlipf and F Gygi, Comput. Phys. Commun. 196, 36 (2015)

   Total energy minimization with Auxiliary Hamiltonian:
      C. Freysoldt, S. Boeck, and J. Neugebauer, Phys. Rev. B 79, 241103(R) (2009)

This list may not be complete. Please suggest additional citations or
report any other bugs at https://github.com/shankar1729/jdftx/issues

Initialization completed successfully at t[s]:    524.82


-------- Electronic minimization -----------
	FillingsUpdate:  mu: +0.135466867  nElectrons: 348.000000  magneticMoment: [ Abs: 19.66031  Tot: -0.00000 ]
ElecMinimize: Iter:   0  F: -1948.148369044448827  |grad|_K:  8.609e-04  alpha:  1.000e+00
	FillingsUpdate:  mu: +0.305717214  nElectrons: 348.000000  magneticMoment: [ Abs: 20.82033  Tot: +0.00000 ]
	SubspaceRotationAdjust: set factor to 0.997
ElecMinimize: Iter:   1  F: -1982.585194434040886  |grad|_K:  1.049e-03  alpha:  4.770e-01  linmin:  7.563e-03  t[s]:    622.69
ElecMinimize: 	Step increased F by 4.591519e-01, reducing alpha to 1.913104e-02.
	FillingsUpdate:  mu: +0.217635749  nElectrons: 348.000000  magneticMoment: [ Abs: 20.69885  Tot: +0.00000 ]
	SubspaceRotationAdjust: set factor to 1.05
ElecMinimize: Iter:   2  F: -1984.856514404195195  |grad|_K:  6.825e-04  alpha:  1.913e-02  linmin: -2.263e-03  t[s]:    741.66
ElecMinimize: 	Predicted alpha/alphaT>3.000000, increasing alphaT to 5.739312e-02.
	FillingsUpdate:  mu: +0.170785889  nElectrons: 348.000000  magneticMoment: [ Abs: 23.95484  Tot: -0.00000 ]
	SubspaceRotationAdjust: set factor to 0.935
ElecMinimize: Iter:   3  F: -1997.528732316310425  |grad|_K:  6.410e-04  alpha:  1.430e-01  linmin: -2.825e-04  t[s]:    837.15
	FillingsUpdate:  mu: +0.263103496  nElectrons: 348.000000  magneticMoment: [ Abs: 24.36838  Tot: +0.00000 ]
	SubspaceRotationAdjust: set factor to 0.884
ElecMinimize: Iter:   4  F: -2000.151904689045523  |grad|_K:  5.420e-04  alpha:  1.886e-02  linmin: -2.757e-03  t[s]:    915.54
ElecMinimize: 	Predicted alpha/alphaT>3.000000, increasing alphaT to 5.657397e-02.
	FillingsUpdate:  mu: +0.649054888  nElectrons: 348.000000  magneticMoment: [ Abs: 23.40407  Tot: +0.00000 ]
	SubspaceRotationAdjust: set factor to 0.525
ElecMinimize: Iter:   5  F: -2002.579189118644308  |grad|_K:  7.750e-04  alpha:  3.409e-02  linmin:  2.719e-05  t[s]:   1027.40
	FillingsUpdate:  mu: +0.611022371  nElectrons: 348.000000  magneticMoment: [ Abs: 23.42423  Tot: +0.00000 ]
	SubspaceRotationAdjust: set factor to 0.363
ElecMinimize: Iter:   6  F: -2003.563337565686425  |grad|_K:  5.506e-04  alpha:  5.444e-03  linmin: -1.878e-03  t[s]:   1108.82
ElecMinimize: 	Predicted alpha/alphaT>3.000000, increasing alphaT to 1.633234e-02.
	FillingsUpdate:  mu: +0.343711475  nElectrons: 348.000000  magneticMoment: [ Abs: 23.36339  Tot: +0.00000 ]
	SubspaceRotationAdjust: set factor to 0.415
ElecMinimize: Iter:   7  F: -2006.229325608233921  |grad|_K:  3.381e-04  alpha:  2.715e-02  linmin: -1.831e-04  t[s]:   1212.31
	FillingsUpdate:  mu: +0.305488682  nElectrons: 348.000000  magneticMoment: [ Abs: 23.32364  Tot: +0.00000 ]
	SubspaceRotationAdjust: set factor to 0.443
ElecMinimize: Iter:   8  F: -2006.678420861621589  |grad|_K:  3.338e-04  alpha:  2.065e-02  linmin: -2.088e-05  t[s]:   1289.94
	FillingsUpdate:  mu: +0.242682160  nElectrons: 348.000000  magneticMoment: [ Abs: 23.28625  Tot: -0.00000 ]
	SubspaceRotationAdjust: set factor to 0.403
ElecMinimize: Iter:   9  F: -2006.941872456397277  |grad|_K:  3.442e-04  alpha:  1.190e-02  linmin: -2.223e-05  t[s]:   1369.02
	FillingsUpdate:  mu: +0.182107507  nElectrons: 348.000000  magneticMoment: [ Abs: 23.28611  Tot: -0.00000 ]
	SubspaceRotationAdjust: set factor to 0.306
ElecMinimize: Iter:  10  F: -2007.155259862576031  |grad|_K:  3.662e-04  alpha:  1.014e-02  linmin:  2.478e-05  t[s]:   1455.21
	FillingsUpdate:  mu: +0.200507743  nElectrons: 348.000000  magneticMoment: [ Abs: 23.23085  Tot: -0.00000 ]
	SubspaceRotationAdjust: set factor to 0.221
ElecMinimize: Iter:  11  F: -2007.433940404470377  |grad|_K:  3.416e-04  alpha:  1.147e-02  linmin: -5.534e-04  t[s]:   1540.43
ElecMinimize: 	Step increased F by 7.420086e-01, reducing alpha to 2.460003e-03.
	FillingsUpdate:  mu: +0.198796543  nElectrons: 348.000000  magneticMoment: [ Abs: 23.27820  Tot: +0.00000 ]
	SubspaceRotationAdjust: set factor to 0.176
ElecMinimize: Iter:  12  F: -2007.554412843844830  |grad|_K:  3.012e-04  alpha:  2.460e-03  linmin: -2.386e-03  t[s]:   1666.93
ElecMinimize: 	Predicted alpha/alphaT>3.000000, increasing alphaT to 7.380008e-03.
ElecMinimize: 	Predicted alpha/alphaT>3.000000, increasing alphaT to 2.214002e-02.
	FillingsUpdate:  mu: +0.151747448  nElectrons: 348.000000  magneticMoment: [ Abs: 24.50899  Tot: +0.00000 ]
	SubspaceRotationAdjust: set factor to 0.117
	SubspaceRotationAdjust: resetting CG because factor has changed by 0.116571
ElecMinimize: 	State modified externally: resetting search direction.
ElecMinimize: Iter:  13  F: -2008.413005128948271  |grad|_K:  2.689e-04  alpha:  1.863e-02
ElecMinimize: 	Predicted alpha/alphaT>3.000000, increasing alphaT to 5.590330e-02.
	FillingsUpdate:  mu: +0.217575142  nElectrons: 348.000000  magneticMoment: [ Abs: 25.18458  Tot: -0.00000 ]
	SubspaceRotationAdjust: set factor to 0.0998
ElecMinimize: Iter:  14  F: -2009.909246809819024  |grad|_K:  1.219e-04  alpha:  1.055e-01  linmin: -2.099e-02  t[s]:   1944.91
	FillingsUpdate:  mu: +0.154371875  nElectrons: 348.000000  magneticMoment: [ Abs: 25.86745  Tot: -0.00000 ]
	SubspaceRotationAdjust: set factor to 0.151
ElecMinimize: Iter:  15  F: -2010.600591118795592  |grad|_K:  6.371e-05  alpha:  2.143e-01  linmin: -5.063e-04  t[s]:   2029.72
	FillingsUpdate:  mu: +0.170784029  nElectrons: 348.000000  magneticMoment: [ Abs: 26.00298  Tot: -0.00000 ]
	SubspaceRotationAdjust: set factor to 0.131
ElecMinimize: Iter:  16  F: -2010.808984625167795  |grad|_K:  6.643e-05  alpha:  2.943e-01  linmin:  4.765e-04  t[s]:   2110.20
	FillingsUpdate:  mu: +0.172044082  nElectrons: 348.000000  magneticMoment: [ Abs: 26.18706  Tot: +0.00000 ]
	SubspaceRotationAdjust: set factor to 0.152
ElecMinimize: Iter:  17  F: -2010.944931030836642  |grad|_K:  4.735e-05  alpha:  2.063e-01  linmin: -1.842e-04  t[s]:   2190.78
	FillingsUpdate:  mu: +0.143492821  nElectrons: 348.000000  magneticMoment: [ Abs: 26.74880  Tot: -0.00000 ]
	SubspaceRotationAdjust: set factor to 0.172
ElecMinimize: Iter:  18  F: -2011.087524051838500  |grad|_K:  4.019e-05  alpha:  3.474e-01  linmin: -5.015e-05  t[s]:   2271.87
	FillingsUpdate:  mu: +0.145495209  nElectrons: 348.000000  magneticMoment: [ Abs: 27.13270  Tot: -0.00000 ]
	SubspaceRotationAdjust: set factor to 0.163
ElecMinimize: Iter:  19  F: -2011.179185160574434  |grad|_K:  3.880e-05  alpha:  3.188e-01  linmin:  9.648e-06  t[s]:   2352.98
	FillingsUpdate:  mu: +0.135262446  nElectrons: 348.000000  magneticMoment: [ Abs: 27.74634  Tot: -0.00000 ]
	SubspaceRotationAdjust: set factor to 0.158
ElecMinimize: Iter:  20  F: -2011.255272879933727  |grad|_K:  3.336e-05  alpha:  2.896e-01  linmin:  1.150e-05  t[s]:   2435.80
	FillingsUpdate:  mu: +0.141223431  nElectrons: 348.000000  magneticMoment: [ Abs: 28.27546  Tot: -0.00000 ]
	SubspaceRotationAdjust: set factor to 0.177
ElecMinimize: Iter:  21  F: -2011.334827829109372  |grad|_K:  3.337e-05  alpha:  4.067e-01  linmin: -4.796e-05  t[s]:   2517.00
	FillingsUpdate:  mu: +0.127329030  nElectrons: 348.000000  magneticMoment: [ Abs: 29.19580  Tot: +0.00000 ]
	SubspaceRotationAdjust: set factor to 0.181
ElecMinimize: Iter:  22  F: -2011.422738282295541  |grad|_K:  3.694e-05  alpha:  4.413e-01  linmin:  1.330e-04  t[s]:   2598.86
	FillingsUpdate:  mu: +0.129912805  nElectrons: 348.000000  magneticMoment: [ Abs: 29.46105  Tot: +0.00000 ]
	SubspaceRotationAdjust: set factor to 0.235
ElecMinimize: Iter:  23  F: -2011.450242224262183  |grad|_K:  3.631e-05  alpha:  9.527e-02  linmin: -4.764e-04  t[s]:   2682.09
	FillingsUpdate:  mu: +0.142022897  nElectrons: 348.000000  magneticMoment: [ Abs: 30.02339  Tot: -0.00000 ]
	SubspaceRotationAdjust: set factor to 0.265
ElecMinimize: Iter:  24  F: -2011.521406726076066  |grad|_K:  3.656e-05  alpha:  2.120e-01  linmin:  1.552e-04  t[s]:   2762.17
	FillingsUpdate:  mu: +0.141873804  nElectrons: 348.000000  magneticMoment: [ Abs: 30.02801  Tot: -0.00000 ]
	SubspaceRotationAdjust: set factor to 0.293
ElecMinimize: Iter:  25  F: -2011.521525259408918  |grad|_K:  3.725e-05  alpha:  1.851e-03  linmin: -7.825e-04  t[s]:   2848.85
ElecMinimize: 	Predicted alpha/alphaT>3.000000, increasing alphaT to 5.552299e-03.
ElecMinimize: 	Predicted alpha/alphaT>3.000000, increasing alphaT to 1.665690e-02.
ElecMinimize: 	Predicted alpha/alphaT>3.000000, increasing alphaT to 4.997069e-02.
	FillingsUpdate:  mu: +0.145393232  nElectrons: 348.000000  magneticMoment: [ Abs: 30.25496  Tot: -0.00000 ]
	SubspaceRotationAdjust: set factor to 0.198
ElecMinimize: Iter:  26  F: -2011.538297423286849  |grad|_K:  4.069e-05  alpha:  6.794e-02  linmin:  1.910e-03  t[s]:   2998.07
ElecMinimize: 	Bad step direction: g.d > 0.
ElecMinimize: 	Undoing step.
ElecMinimize: 	Step failed: resetting search direction.
	FillingsUpdate:  mu: +0.145393232  nElectrons: 348.000000  magneticMoment: [ Abs: 30.25496  Tot: -0.00000 ]
	SubspaceRotationAdjust: set factor to 0.18
ElecMinimize: Iter:  27  F: -2011.538297423290715  |grad|_K:  3.619e-05  alpha:  0.000e+00
	FillingsUpdate:  mu: +0.127830278  nElectrons: 348.000000  magneticMoment: [ Abs: 30.37927  Tot: -0.00000 ]
	SubspaceRotationAdjust: set factor to 0.123
ElecMinimize: Iter:  28  F: -2011.562661427956527  |grad|_K:  1.972e-05  alpha:  1.012e-01  linmin: -1.203e-02  t[s]:   3129.91
ElecMinimize: 	Predicted alpha/alphaT>3.000000, increasing alphaT to 3.037262e-01.
	FillingsUpdate:  mu: +0.126269383  nElectrons: 348.000000  magneticMoment: [ Abs: 30.60750  Tot: -0.00000 ]
	SubspaceRotationAdjust: set factor to 0.147
ElecMinimize: Iter:  29  F: -2011.589554595781919  |grad|_K:  1.737e-05  alpha:  3.515e-01  linmin:  3.904e-05  t[s]:   3246.32
	FillingsUpdate:  mu: +0.144205794  nElectrons: 348.000000  magneticMoment: [ Abs: 30.99041  Tot: +0.00000 ]
	SubspaceRotationAdjust: set factor to 0.135
ElecMinimize: Iter:  30  F: -2011.609888672329134  |grad|_K:  1.848e-05  alpha:  3.868e-01  linmin:  8.545e-04  t[s]:   3316.33
	FillingsUpdate:  mu: +0.136945994  nElectrons: 348.000000  magneticMoment: [ Abs: 31.31713  Tot: -0.00000 ]
	SubspaceRotationAdjust: set factor to 0.126
ElecMinimize: Iter:  31  F: -2011.621961686827945  |grad|_K:  1.414e-05  alpha:  2.096e-01  linmin:  1.271e-04  t[s]:   3400.68
	FillingsUpdate:  mu: +0.127067186  nElectrons: 348.000000  magneticMoment: [ Abs: 31.74830  Tot: +0.00000 ]
	SubspaceRotationAdjust: set factor to 0.153
ElecMinimize: Iter:  32  F: -2011.633623495176153  |grad|_K:  1.270e-05  alpha:  3.354e-01  linmin:  1.621e-04  t[s]:   3481.84
	FillingsUpdate:  mu: +0.125774689  nElectrons: 348.000000  magneticMoment: [ Abs: 32.45831  Tot: +0.00000 ]
	SubspaceRotationAdjust: set factor to 0.168
ElecMinimize: Iter:  33  F: -2011.646632502890270  |grad|_K:  1.439e-05  alpha:  4.810e-01  linmin:  2.499e-03  t[s]:   3556.21
	FillingsUpdate:  mu: +0.125480003  nElectrons: 348.000000  magneticMoment: [ Abs: 32.70596  Tot: +0.00000 ]
	SubspaceRotationAdjust: set factor to 0.21
ElecMinimize: Iter:  34  F: -2011.651582833418388  |grad|_K:  1.331e-05  alpha:  1.072e-01  linmin: -7.334e-03  t[s]:   3637.71
	FillingsUpdate:  mu: +0.130941325  nElectrons: 348.000000  magneticMoment: [ Abs: 33.14013  Tot: -0.00000 ]
	SubspaceRotationAdjust: set factor to 0.158
ElecMinimize: Iter:  35  F: -2011.659526758059656  |grad|_K:  1.598e-05  alpha:  1.874e-01  linmin:  6.061e-04  t[s]:   3717.41
	FillingsUpdate:  mu: +0.134921605  nElectrons: 348.000000  magneticMoment: [ Abs: 33.50920  Tot: +0.00000 ]
	SubspaceRotationAdjust: set factor to 0.217
ElecMinimize: Iter:  36  F: -2011.664354625370379  |grad|_K:  1.438e-05  alpha:  1.143e-01  linmin: -7.895e-06  t[s]:   3798.85
	FillingsUpdate:  mu: +0.136687814  nElectrons: 348.000000  magneticMoment: [ Abs: 33.85752  Tot: -0.00000 ]
	SubspaceRotationAdjust: set factor to 0.22
ElecMinimize: Iter:  37  F: -2011.669255736639798  |grad|_K:  1.586e-05  alpha:  1.351e-01  linmin: -1.049e-04  t[s]:   3880.28
	FillingsUpdate:  mu: +0.133969665  nElectrons: 348.000000  magneticMoment: [ Abs: 34.30036  Tot: -0.00000 ]
	SubspaceRotationAdjust: set factor to 0.281
ElecMinimize: Iter:  38  F: -2011.675051682135745  |grad|_K:  1.419e-05  alpha:  1.303e-01  linmin: -2.818e-06  t[s]:   3961.29
	FillingsUpdate:  mu: +0.132475812  nElectrons: 348.000000  magneticMoment: [ Abs: 34.70247  Tot: -0.00000 ]
	SubspaceRotationAdjust: set factor to 0.278
ElecMinimize: Iter:  39  F: -2011.680055229859363  |grad|_K:  1.662e-05  alpha:  1.414e-01  linmin: -2.829e-04  t[s]:   4041.43
	FillingsUpdate:  mu: +0.127353308  nElectrons: 348.000000  magneticMoment: [ Abs: 35.15702  Tot: +0.00000 ]
	SubspaceRotationAdjust: set factor to 0.347
ElecMinimize: Iter:  40  F: -2011.686828482994315  |grad|_K:  1.368e-05  alpha:  1.352e-01  linmin: -1.566e-05  t[s]:   4120.20
	FillingsUpdate:  mu: +0.128417466  nElectrons: 348.000000  magneticMoment: [ Abs: 35.48160  Tot: -0.00000 ]
	SubspaceRotationAdjust: set factor to 0.382
ElecMinimize: Iter:  41  F: -2011.692481165893241  |grad|_K:  1.434e-05  alpha:  1.697e-01  linmin: -3.446e-04  t[s]:   4199.09
	FillingsUpdate:  mu: +0.130447356  nElectrons: 348.000000  magneticMoment: [ Abs: 35.76059  Tot: -0.00000 ]
	SubspaceRotationAdjust: set factor to 0.359
ElecMinimize: Iter:  42  F: -2011.697232131504279  |grad|_K:  1.230e-05  alpha:  1.242e-01  linmin:  4.934e-06  t[s]:   4279.02
	FillingsUpdate:  mu: +0.133661756  nElectrons: 348.000000  magneticMoment: [ Abs: 36.00882  Tot: +0.00000 ]
	SubspaceRotationAdjust: set factor to 0.454
ElecMinimize: Iter:  43  F: -2011.701280186211761  |grad|_K:  1.087e-05  alpha:  1.526e-01  linmin: -6.126e-05  t[s]:   4359.81
	FillingsUpdate:  mu: +0.135772053  nElectrons: 348.000000  magneticMoment: [ Abs: 36.18671  Tot: -0.00000 ]
	SubspaceRotationAdjust: set factor to 0.446
ElecMinimize: Iter:  44  F: -2011.704309760251590  |grad|_K:  1.063e-05  alpha:  1.457e-01  linmin: -2.718e-04  t[s]:   4440.35
	FillingsUpdate:  mu: +0.134148958  nElectrons: 348.000000  magneticMoment: [ Abs: 36.42659  Tot: -0.00000 ]
	SubspaceRotationAdjust: set factor to 0.422
ElecMinimize: Iter:  45  F: -2011.707009754337605  |grad|_K:  1.050e-05  alpha:  1.300e-01  linmin:  2.239e-04  t[s]:   4521.08
	FillingsUpdate:  mu: +0.135540223  nElectrons: 348.000000  magneticMoment: [ Abs: 36.64551  Tot: -0.00000 ]
	SubspaceRotationAdjust: set factor to 0.462
ElecMinimize: Iter:  46  F: -2011.709672497311431  |grad|_K:  9.633e-06  alpha:  1.413e-01  linmin: -3.131e-04  t[s]:   4596.59
	FillingsUpdate:  mu: +0.129835394  nElectrons: 348.000000  magneticMoment: [ Abs: 37.31100  Tot: +0.00000 ]
	SubspaceRotationAdjust: set factor to 0.362
ElecMinimize: Iter:  47  F: -2011.712994032452798  |grad|_K:  1.915e-05  alpha:  3.080e-01  linmin:  4.843e-03  t[s]:   4677.59
ElecMinimize: 	Bad step direction: g.d > 0.
ElecMinimize: 	Undoing step.
ElecMinimize: 	Step failed: resetting search direction.
	FillingsUpdate:  mu: +0.129835394  nElectrons: 348.000000  magneticMoment: [ Abs: 37.31100  Tot: +0.00000 ]
	SubspaceRotationAdjust: set factor to 0.311
ElecMinimize: Iter:  48  F: -2011.712994032453253  |grad|_K:  1.777e-05  alpha:  0.000e+00
	FillingsUpdate:  mu: +0.139574629  nElectrons: 348.000000  magneticMoment: [ Abs: 37.22431  Tot: -0.00000 ]
	SubspaceRotationAdjust: set factor to 0.201
ElecMinimize: Iter:  49  F: -2011.718274822107560  |grad|_K:  1.322e-05  alpha:  1.322e-01  linmin:  9.619e-03  t[s]:   4802.13
	FillingsUpdate:  mu: +0.135141716  nElectrons: 348.000000  magneticMoment: [ Abs: 37.47469  Tot: +0.00000 ]
	SubspaceRotationAdjust: set factor to 0.163
ElecMinimize: Iter:  50  F: -2011.724314106790871  |grad|_K:  9.670e-06  alpha:  2.491e-01  linmin:  4.984e-03  t[s]:   4882.36
	FillingsUpdate:  mu: +0.136314369  nElectrons: 348.000000  magneticMoment: [ Abs: 37.61064  Tot: -0.00000 ]
	SubspaceRotationAdjust: set factor to 0.188
ElecMinimize: Iter:  51  F: -2011.729162690824978  |grad|_K:  8.375e-06  alpha:  3.345e-01  linmin: -1.162e-03  t[s]:   4961.60
	FillingsUpdate:  mu: +0.139303399  nElectrons: 348.000000  magneticMoment: [ Abs: 37.72434  Tot: +0.00000 ]
	SubspaceRotationAdjust: set factor to 0.166
ElecMinimize: Iter:  52  F: -2011.733379722757263  |grad|_K:  8.398e-06  alpha:  3.299e-01  linmin: -4.800e-04  t[s]:   5042.25
	FillingsUpdate:  mu: +0.137576922  nElectrons: 348.000000  magneticMoment: [ Abs: 37.96965  Tot: -0.00000 ]
	SubspaceRotationAdjust: set factor to 0.185
ElecMinimize: Iter:  53  F: -2011.738913423439499  |grad|_K:  8.270e-06  alpha:  4.282e-01  linmin: -8.044e-04  t[s]:   5120.41
	FillingsUpdate:  mu: +0.137383584  nElectrons: 348.000000  magneticMoment: [ Abs: 38.13263  Tot: -0.00000 ]
	SubspaceRotationAdjust: set factor to 0.208
ElecMinimize: Iter:  54  F: -2011.743802050587874  |grad|_K:  7.703e-06  alpha:  3.784e-01  linmin:  3.951e-04  t[s]:   5200.50
	FillingsUpdate:  mu: +0.138503910  nElectrons: 348.000000  magneticMoment: [ Abs: 38.21646  Tot: -0.00000 ]
	SubspaceRotationAdjust: set factor to 0.224
ElecMinimize: Iter:  55  F: -2011.747096496108725  |grad|_K:  7.346e-06  alpha:  3.278e-01  linmin:  1.250e-04  t[s]:   5280.62
	FillingsUpdate:  mu: +0.140248361  nElectrons: 348.000000  magneticMoment: [ Abs: 38.21112  Tot: -0.00000 ]
	SubspaceRotationAdjust: set factor to 0.209
ElecMinimize: Iter:  56  F: -2011.749457868693753  |grad|_K:  7.222e-06  alpha:  2.533e-01  linmin: -4.698e-05  t[s]:   5359.63
	FillingsUpdate:  mu: +0.136979589  nElectrons: 348.000000  magneticMoment: [ Abs: 38.24525  Tot: +0.00000 ]
	SubspaceRotationAdjust: set factor to 0.24
ElecMinimize: Iter:  57  F: -2011.752195819256031  |grad|_K:  5.582e-06  alpha:  2.959e-01  linmin: -4.602e-04  t[s]:   5438.17
	FillingsUpdate:  mu: +0.138583303  nElectrons: 348.000000  magneticMoment: [ Abs: 38.26410  Tot: -0.00000 ]
	SubspaceRotationAdjust: set factor to 0.264
ElecMinimize: Iter:  58  F: -2011.754320606986994  |grad|_K:  5.128e-06  alpha:  3.722e-01  linmin: -2.204e-04  t[s]:   5515.11
	FillingsUpdate:  mu: +0.138383662  nElectrons: 348.000000  magneticMoment: [ Abs: 38.25338  Tot: -0.00000 ]
	SubspaceRotationAdjust: set factor to 0.2
ElecMinimize: Iter:  59  F: -2011.755478873550601  |grad|_K:  5.891e-06  alpha:  2.384e-01  linmin: -1.165e-04  t[s]:   5596.99
	FillingsUpdate:  mu: +0.137708880  nElectrons: 348.000000  magneticMoment: [ Abs: 38.30045  Tot: +0.00000 ]
	SubspaceRotationAdjust: set factor to 0.177
ElecMinimize: Iter:  60  F: -2011.756684528312235  |grad|_K:  4.367e-06  alpha:  1.983e-01  linmin: -1.024e-04  t[s]:   5674.81
	FillingsUpdate:  mu: +0.136433054  nElectrons: 348.000000  magneticMoment: [ Abs: 38.31550  Tot: -0.00000 ]
	SubspaceRotationAdjust: set factor to 0.189
ElecMinimize: Iter:  61  F: -2011.757774907300018  |grad|_K:  4.128e-06  alpha:  3.355e-01  linmin:  1.193e-03  t[s]:   5749.04
	FillingsUpdate:  mu: +0.135279243  nElectrons: 348.000000  magneticMoment: [ Abs: 38.31974  Tot: -0.00000 ]
	SubspaceRotationAdjust: set factor to 0.156
ElecMinimize: Iter:  62  F: -2011.758699938476639  |grad|_K:  4.757e-06  alpha:  3.448e-01  linmin:  1.342e-03  t[s]:   5824.45
	FillingsUpdate:  mu: +0.137538571  nElectrons: 348.000000  magneticMoment: [ Abs: 38.35282  Tot: -0.00000 ]
	SubspaceRotationAdjust: set factor to 0.166
ElecMinimize: Iter:  63  F: -2011.759258849511752  |grad|_K:  3.948e-06  alpha:  1.647e-01  linmin:  3.666e-04  t[s]:   5899.06
	FillingsUpdate:  mu: +0.137663164  nElectrons: 348.000000  magneticMoment: [ Abs: 38.37210  Tot: -0.00000 ]
	SubspaceRotationAdjust: set factor to 0.195
ElecMinimize: Iter:  64  F: -2011.760058338283670  |grad|_K:  3.495e-06  alpha:  2.981e-01  linmin: -2.458e-04  t[s]:   5978.40
	FillingsUpdate:  mu: +0.136430567  nElectrons: 348.000000  magneticMoment: [ Abs: 38.38379  Tot: -0.00000 ]
	SubspaceRotationAdjust: set factor to 0.173
ElecMinimize: Iter:  65  F: -2011.760744379769903  |grad|_K:  4.358e-06  alpha:  3.154e-01  linmin: -3.675e-05  t[s]:   6055.22
	FillingsUpdate:  mu: +0.138279389  nElectrons: 348.000000  magneticMoment: [ Abs: 38.43612  Tot: -0.00000 ]
	SubspaceRotationAdjust: set factor to 0.149
ElecMinimize: Iter:  66  F: -2011.761364697883891  |grad|_K:  4.318e-06  alpha:  1.913e-01  linmin:  6.618e-05  t[s]:   6134.81
	FillingsUpdate:  mu: +0.137279013  nElectrons: 348.000000  magneticMoment: [ Abs: 38.47453  Tot: -0.00000 ]
	SubspaceRotationAdjust: set factor to 0.173
ElecMinimize: Iter:  67  F: -2011.762382163414031  |grad|_K:  4.035e-06  alpha:  3.110e-01  linmin: -2.015e-04  t[s]:   6213.38
	FillingsUpdate:  mu: +0.135938687  nElectrons: 348.000000  magneticMoment: [ Abs: 38.50738  Tot: +0.00000 ]
	SubspaceRotationAdjust: set factor to 0.182
ElecMinimize: Iter:  68  F: -2011.763374821385469  |grad|_K:  4.202e-06  alpha:  3.407e-01  linmin:  4.763e-05  t[s]:   6293.97
	FillingsUpdate:  mu: +0.138583482  nElectrons: 348.000000  magneticMoment: [ Abs: 38.56294  Tot: -0.00000 ]
	SubspaceRotationAdjust: set factor to 0.185
ElecMinimize: Iter:  69  F: -2011.764153436287188  |grad|_K:  4.098e-06  alpha:  2.555e-01  linmin: -4.815e-05  t[s]:   6375.83
	FillingsUpdate:  mu: +0.137141139  nElectrons: 348.000000  magneticMoment: [ Abs: 38.59812  Tot: +0.00000 ]
	SubspaceRotationAdjust: set factor to 0.221
ElecMinimize: Iter:  70  F: -2011.764954130538399  |grad|_K:  3.694e-06  alpha:  2.716e-01  linmin:  1.575e-04  t[s]:   6457.91
	FillingsUpdate:  mu: +0.135903623  nElectrons: 348.000000  magneticMoment: [ Abs: 38.62459  Tot: +0.00000 ]
	SubspaceRotationAdjust: set factor to 0.256
ElecMinimize: Iter:  71  F: -2011.765535660388196  |grad|_K:  3.767e-06  alpha:  2.480e-01  linmin:  4.183e-05  t[s]:   6535.81
	FillingsUpdate:  mu: +0.138239037  nElectrons: 348.000000  magneticMoment: [ Abs: 38.66414  Tot: -0.00000 ]
	SubspaceRotationAdjust: set factor to 0.295
ElecMinimize: Iter:  72  F: -2011.766088508176153  |grad|_K:  3.411e-06  alpha:  2.224e-01  linmin:  1.595e-04  t[s]:   6613.64
	FillingsUpdate:  mu: +0.139554208  nElectrons: 348.000000  magneticMoment: [ Abs: 38.70120  Tot: -0.00000 ]
	SubspaceRotationAdjust: set factor to 0.261
ElecMinimize: Iter:  73  F: -2011.766558322355195  |grad|_K:  3.989e-06  alpha:  2.358e-01  linmin:  3.613e-04  t[s]:   6687.61
	FillingsUpdate:  mu: +0.138061123  nElectrons: 348.000000  magneticMoment: [ Abs: 38.72618  Tot: -0.00000 ]
	SubspaceRotationAdjust: set factor to 0.309
ElecMinimize: Iter:  74  F: -2011.766946441089431  |grad|_K:  3.307e-06  alpha:  1.471e-01  linmin: -2.068e-05  t[s]:   6763.48
	FillingsUpdate:  mu: +0.137556544  nElectrons: 348.000000  magneticMoment: [ Abs: 38.75683  Tot: +0.00000 ]
	SubspaceRotationAdjust: set factor to 0.34
ElecMinimize: Iter:  75  F: -2011.767404117265414  |grad|_K:  3.531e-06  alpha:  2.383e-01  linmin:  1.865e-05  t[s]:   6843.24
	FillingsUpdate:  mu: +0.139798689  nElectrons: 348.000000  magneticMoment: [ Abs: 38.77963  Tot: -0.00000 ]
	SubspaceRotationAdjust: set factor to 0.349
ElecMinimize: Iter:  76  F: -2011.767668708853989  |grad|_K:  3.562e-06  alpha:  1.133e-01  linmin: -2.996e-04  t[s]:   6921.06
	FillingsUpdate:  mu: +0.139413427  nElectrons: 348.000000  magneticMoment: [ Abs: 38.80081  Tot: +0.00000 ]
	SubspaceRotationAdjust: set factor to 0.373
ElecMinimize: Iter:  77  F: -2011.768111143900342  |grad|_K:  3.765e-06  alpha:  1.903e-01  linmin: -1.421e-04  t[s]:   6999.37
	FillingsUpdate:  mu: +0.137465983  nElectrons: 348.000000  magneticMoment: [ Abs: 38.80398  Tot: +0.00000 ]
	SubspaceRotationAdjust: set factor to 0.329
ElecMinimize: Iter:  78  F: -2011.768352723296857  |grad|_K:  3.503e-06  alpha:  9.377e-02  linmin: -6.205e-05  t[s]:   7075.83
	FillingsUpdate:  mu: +0.137251604  nElectrons: 348.000000  magneticMoment: [ Abs: 38.82228  Tot: +0.00000 ]
	SubspaceRotationAdjust: set factor to 0.41
ElecMinimize: Iter:  79  F: -2011.768736201907586  |grad|_K:  3.331e-06  alpha:  1.772e-01  linmin:  3.038e-05  t[s]:   7152.41
	FillingsUpdate:  mu: +0.138982367  nElectrons: 348.000000  magneticMoment: [ Abs: 38.84007  Tot: +0.00000 ]
	SubspaceRotationAdjust: set factor to 0.359
ElecMinimize: Iter:  80  F: -2011.768934335238328  |grad|_K:  3.199e-06  alpha:  1.049e-01  linmin:  4.056e-05  t[s]:   7230.12
	FillingsUpdate:  mu: +0.138893488  nElectrons: 348.000000  magneticMoment: [ Abs: 38.85396  Tot: +0.00000 ]
	SubspaceRotationAdjust: set factor to 0.432
ElecMinimize: Iter:  81  F: -2011.769209778951563  |grad|_K:  2.438e-06  alpha:  1.556e-01  linmin:  8.556e-05  t[s]:   7309.43
	FillingsUpdate:  mu: +0.138059421  nElectrons: 348.000000  magneticMoment: [ Abs: 38.85984  Tot: -0.00000 ]
	SubspaceRotationAdjust: set factor to 0.396
ElecMinimize: Iter:  82  F: -2011.769412709959397  |grad|_K:  2.957e-06  alpha:  1.986e-01  linmin:  9.346e-05  t[s]:   7387.24
	FillingsUpdate:  mu: +0.139307602  nElectrons: 348.000000  magneticMoment: [ Abs: 38.86886  Tot: +0.00000 ]
	SubspaceRotationAdjust: set factor to 0.349
ElecMinimize: Iter:  83  F: -2011.769550631418042  |grad|_K:  2.374e-06  alpha:  9.350e-02  linmin:  8.408e-05  t[s]:   7463.69
	FillingsUpdate:  mu: +0.139203049  nElectrons: 348.000000  magneticMoment: [ Abs: 38.87266  Tot: -0.00000 ]
	SubspaceRotationAdjust: set factor to 0.45
ElecMinimize: Iter:  84  F: -2011.769743260976611  |grad|_K:  2.127e-06  alpha:  1.983e-01  linmin:  3.517e-05  t[s]:   7541.67
	FillingsUpdate:  mu: +0.138405541  nElectrons: 348.000000  magneticMoment: [ Abs: 38.87176  Tot: -0.00000 ]
	SubspaceRotationAdjust: set factor to 0.392
ElecMinimize: Iter:  85  F: -2011.769873450343994  |grad|_K:  2.548e-06  alpha:  1.650e-01  linmin:  2.372e-05  t[s]:   7620.39
	FillingsUpdate:  mu: +0.139794235  nElectrons: 348.000000  magneticMoment: [ Abs: 38.87664  Tot: -0.00000 ]
	SubspaceRotationAdjust: set factor to 0.394
ElecMinimize: Iter:  86  F: -2011.769989711500330  |grad|_K:  1.904e-06  alpha:  1.039e-01  linmin:  1.275e-05  t[s]:   7696.76
	FillingsUpdate:  mu: +0.140190205  nElectrons: 348.000000  magneticMoment: [ Abs: 38.87669  Tot: +0.00000 ]
	SubspaceRotationAdjust: set factor to 0.515
ElecMinimize: Iter:  87  F: -2011.770123197692101  |grad|_K:  1.801e-06  alpha:  2.105e-01  linmin: -2.304e-05  t[s]:   7774.56
	FillingsUpdate:  mu: +0.139291128  nElectrons: 348.000000  magneticMoment: [ Abs: 38.87198  Tot: +0.00000 ]
	SubspaceRotationAdjust: set factor to 0.437
ElecMinimize: Iter:  88  F: -2011.770219897936840  |grad|_K:  2.309e-06  alpha:  1.699e-01  linmin: -5.289e-08  t[s]:   7849.96
	FillingsUpdate:  mu: +0.140208053  nElectrons: 348.000000  magneticMoment: [ Abs: 38.87214  Tot: -0.00000 ]
	SubspaceRotationAdjust: set factor to 0.421
ElecMinimize: Iter:  89  F: -2011.770316804224876  |grad|_K:  1.897e-06  alpha:  1.053e-01  linmin:  1.561e-05  t[s]:   7927.27
	FillingsUpdate:  mu: +0.139956339  nElectrons: 348.000000  magneticMoment: [ Abs: 38.86573  Tot: +0.00000 ]
	SubspaceRotationAdjust: set factor to 0.525
ElecMinimize: Iter:  90  F: -2011.770454944948142  |grad|_K:  1.841e-06  alpha:  2.204e-01  linmin:  1.547e-05  t[s]:   8005.92
	FillingsUpdate:  mu: +0.139004131  nElectrons: 348.000000  magneticMoment: [ Abs: 38.85540  Tot: +0.00000 ]
	SubspaceRotationAdjust: set factor to 0.518
ElecMinimize: Iter:  91  F: -2011.770572093018018  |grad|_K:  2.267e-06  alpha:  1.982e-01  linmin:  6.998e-08  t[s]:   8083.11
	FillingsUpdate:  mu: +0.140382013  nElectrons: 348.000000  magneticMoment: [ Abs: 38.84996  Tot: -0.00000 ]
	SubspaceRotationAdjust: set factor to 0.462
ElecMinimize: Iter:  92  F: -2011.770664912764687  |grad|_K:  2.061e-06  alpha:  1.071e-01  linmin:  7.966e-05  t[s]:   8162.39
	FillingsUpdate:  mu: +0.139959357  nElectrons: 348.000000  magneticMoment: [ Abs: 38.83252  Tot: -0.00000 ]
	SubspaceRotationAdjust: set factor to 0.524
ElecMinimize: Iter:  93  F: -2011.770802492344728  |grad|_K:  1.918e-06  alpha:  1.876e-01  linmin: -1.927e-05  t[s]:   8235.14
	FillingsUpdate:  mu: +0.139713098  nElectrons: 348.000000  magneticMoment: [ Abs: 38.81305  Tot: -0.00000 ]
	SubspaceRotationAdjust: set factor to 0.6
ElecMinimize: Iter:  94  F: -2011.770960328349247  |grad|_K:  2.075e-06  alpha:  2.447e-01  linmin:  1.341e-05  t[s]:   8312.93
	FillingsUpdate:  mu: +0.140936896  nElectrons: 348.000000  magneticMoment: [ Abs: 38.80039  Tot: -0.00000 ]
	SubspaceRotationAdjust: set factor to 0.593
ElecMinimize: Iter:  95  F: -2011.771095902816114  |grad|_K:  2.285e-06  alpha:  1.839e-01  linmin: -5.637e-05  t[s]:   8391.56
	FillingsUpdate:  mu: +0.139413696  nElectrons: 348.000000  magneticMoment: [ Abs: 38.78293  Tot: +0.00000 ]
	SubspaceRotationAdjust: set factor to 0.543
ElecMinimize: Iter:  96  F: -2011.771215948501776  |grad|_K:  2.174e-06  alpha:  1.293e-01  linmin:  2.609e-06  t[s]:   8472.47
	FillingsUpdate:  mu: +0.140165686  nElectrons: 348.000000  magneticMoment: [ Abs: 38.76820  Tot: +0.00000 ]
	SubspaceRotationAdjust: set factor to 0.673
ElecMinimize: Iter:  97  F: -2011.771360687037486  |grad|_K:  1.941e-06  alpha:  1.739e-01  linmin: -1.122e-04  t[s]:   8549.54
	FillingsUpdate:  mu: +0.140823936  nElectrons: 348.000000  magneticMoment: [ Abs: 38.75386  Tot: -0.00000 ]
	SubspaceRotationAdjust: set factor to 0.781
ElecMinimize: Iter:  98  F: -2011.771509745169851  |grad|_K:  2.018e-06  alpha:  2.205e-01  linmin: -1.070e-04  t[s]:   8625.72
	FillingsUpdate:  mu: +0.139213103  nElectrons: 348.000000  magneticMoment: [ Abs: 38.73850  Tot: -0.00000 ]
	SubspaceRotationAdjust: set factor to 0.726
ElecMinimize: Iter:  99  F: -2011.771622164209930  |grad|_K:  2.386e-06  alpha:  1.519e-01  linmin:  2.611e-06  t[s]:   8700.84
	FillingsUpdate:  mu: +0.140786172  nElectrons: 348.000000  magneticMoment: [ Abs: 38.73245  Tot: +0.00000 ]
	SubspaceRotationAdjust: set factor to 0.812
ElecMinimize: Iter: 100  F: -2011.771748752370740  |grad|_K:  2.033e-06  alpha:  1.281e-01  linmin: -6.330e-05  t[s]:   8777.75
	FillingsUpdate:  mu: +0.140944837  nElectrons: 348.000000  magneticMoment: [ Abs: 38.72191  Tot: -0.00000 ]
	SubspaceRotationAdjust: set factor to 1.01
	SubspaceRotationAdjust: resetting CG because factor has changed by 8.62389
ElecMinimize: 	State modified externally: resetting search direction.
ElecMinimize: Iter: 101  F: -2011.771911964189030  |grad|_K:  2.115e-06  alpha:  2.232e-01
	FillingsUpdate:  mu: +0.138658194  nElectrons: 348.000000  magneticMoment: [ Abs: 38.71624  Tot: +0.00000 ]
	SubspaceRotationAdjust: set factor to 0.569
ElecMinimize: Iter: 102  F: -2011.772098027704487  |grad|_K:  3.371e-06  alpha:  2.379e-01  linmin:  1.682e-04  t[s]:   8944.10
	FillingsUpdate:  mu: +0.140910527  nElectrons: 348.000000  magneticMoment: [ Abs: 38.72851  Tot: +0.00000 ]
	SubspaceRotationAdjust: set factor to 0.364
ElecMinimize: Iter: 103  F: -2011.772208105646769  |grad|_K:  1.923e-06  alpha:  6.152e-02  linmin:  8.685e-04  t[s]:   9021.21
ElecMinimize: 	Predicted alpha/alphaT>3.000000, increasing alphaT to 1.845688e-01.
	FillingsUpdate:  mu: +0.141278310  nElectrons: 348.000000  magneticMoment: [ Abs: 38.73961  Tot: +0.00000 ]
	SubspaceRotationAdjust: set factor to 0.468
ElecMinimize: Iter: 104  F: -2011.772414776948381  |grad|_K:  1.696e-06  alpha:  3.442e-01  linmin: -1.855e-05  t[s]:   9127.35
	FillingsUpdate:  mu: +0.139245187  nElectrons: 348.000000  magneticMoment: [ Abs: 38.73760  Tot: -0.00000 ]
	SubspaceRotationAdjust: set factor to 0.356
ElecMinimize: Iter: 105  F: -2011.772506365253548  |grad|_K:  1.665e-06  alpha:  1.724e-01  linmin: -4.598e-04  t[s]:   9205.50
	FillingsUpdate:  mu: +0.140666992  nElectrons: 348.000000  magneticMoment: [ Abs: 38.75078  Tot: +0.00000 ]
	SubspaceRotationAdjust: set factor to 0.349
ElecMinimize: Iter: 106  F: -2011.772608181240685  |grad|_K:  1.052e-06  alpha:  2.032e-01  linmin: -2.058e-04  t[s]:   9276.77
	FillingsUpdate:  mu: +0.140825221  nElectrons: 348.000000  magneticMoment: [ Abs: 38.76041  Tot: +0.00000 ]
	SubspaceRotationAdjust: set factor to 0.414
ElecMinimize: Iter: 107  F: -2011.772688807811619  |grad|_K:  1.046e-06  alpha:  4.102e-01  linmin: -6.155e-05  t[s]:   9354.08
	FillingsUpdate:  mu: +0.139490817  nElectrons: 348.000000  magneticMoment: [ Abs: 38.76532  Tot: +0.00000 ]
	SubspaceRotationAdjust: set factor to 0.305
ElecMinimize: Iter: 108  F: -2011.772752114431569  |grad|_K:  1.351e-06  alpha:  3.256e-01  linmin:  1.724e-04  t[s]:   9427.46
	FillingsUpdate:  mu: +0.141071000  nElectrons: 348.000000  magneticMoment: [ Abs: 38.78093  Tot: +0.00000 ]
	SubspaceRotationAdjust: set factor to 0.225
ElecMinimize: Iter: 109  F: -2011.772810542976913  |grad|_K:  1.195e-06  alpha:  1.874e-01  linmin:  4.031e-05  t[s]:   9501.29
	FillingsUpdate:  mu: +0.140895850  nElectrons: 348.000000  magneticMoment: [ Abs: 38.79768  Tot: +0.00000 ]
	SubspaceRotationAdjust: set factor to 0.26
ElecMinimize: Iter: 110  F: -2011.772904485771278  |grad|_K:  1.211e-06  alpha:  3.831e-01  linmin:  3.253e-04  t[s]:   9578.17
	FillingsUpdate:  mu: +0.139572109  nElectrons: 348.000000  magneticMoment: [ Abs: 38.81036  Tot: -0.00000 ]
	SubspaceRotationAdjust: set factor to 0.228
ElecMinimize: Iter: 111  F: -2011.772999817461368  |grad|_K:  1.580e-06  alpha:  3.841e-01  linmin:  4.267e-04  t[s]:   9654.27
	FillingsUpdate:  mu: +0.140953598  nElectrons: 348.000000  magneticMoment: [ Abs: 38.83302  Tot: +0.00000 ]
	SubspaceRotationAdjust: set factor to 0.181
ElecMinimize: Iter: 112  F: -2011.773104590856065  |grad|_K:  1.538e-06  alpha:  2.514e-01  linmin: -5.106e-06  t[s]:   9732.53
	FillingsUpdate:  mu: +0.140469385  nElectrons: 348.000000  magneticMoment: [ Abs: 38.85832  Tot: +0.00000 ]
	SubspaceRotationAdjust: set factor to 0.208
ElecMinimize: Iter: 113  F: -2011.773253486813246  |grad|_K:  1.525e-06  alpha:  3.613e-01  linmin:  7.671e-05  t[s]:   9808.35
	FillingsUpdate:  mu: +0.139249883  nElectrons: 348.000000  magneticMoment: [ Abs: 38.87668  Tot: -0.00000 ]
	SubspaceRotationAdjust: set factor to 0.174
ElecMinimize: Iter: 114  F: -2011.773373836640303  |grad|_K:  1.576e-06  alpha:  2.956e-01  linmin:  1.595e-04  t[s]:   9886.42
	FillingsUpdate:  mu: +0.140575165  nElectrons: 348.000000  magneticMoment: [ Abs: 38.89598  Tot: +0.00000 ]
	SubspaceRotationAdjust: set factor to 0.145
ElecMinimize: Iter: 115  F: -2011.773463088451081  |grad|_K:  1.257e-06  alpha:  2.080e-01  linmin:  5.674e-06  t[s]:   9962.96
	FillingsUpdate:  mu: +0.140673202  nElectrons: 348.000000  magneticMoment: [ Abs: 38.90886  Tot: -0.00000 ]
	SubspaceRotationAdjust: set factor to 0.187
ElecMinimize: Iter: 116  F: -2011.773551537474759  |grad|_K:  1.175e-06  alpha:  3.206e-01  linmin:  1.404e-05  t[s]:  10037.64
	FillingsUpdate:  mu: +0.139605350  nElectrons: 348.000000  magneticMoment: [ Abs: 38.91319  Tot: -0.00000 ]
	SubspaceRotationAdjust: set factor to 0.157
ElecMinimize: Iter: 117  F: -2011.773618334492085  |grad|_K:  1.172e-06  alpha:  2.764e-01  linmin:  6.575e-05  t[s]:  10113.96
	FillingsUpdate:  mu: +0.140258726  nElectrons: 348.000000  magneticMoment: [ Abs: 38.92266  Tot: +0.00000 ]
	SubspaceRotationAdjust: set factor to 0.153
ElecMinimize: Iter: 118  F: -2011.773688413359650  |grad|_K:  1.090e-06  alpha:  2.935e-01  linmin:  1.733e-05  t[s]:  10193.46
	FillingsUpdate:  mu: +0.140501847  nElectrons: 348.000000  magneticMoment: [ Abs: 38.93064  Tot: -0.00000 ]
	SubspaceRotationAdjust: set factor to 0.183
ElecMinimize: Iter: 119  F: -2011.773766003394940  |grad|_K:  1.105e-06  alpha:  3.741e-01  linmin:  1.429e-05  t[s]:  10273.87
	FillingsUpdate:  mu: +0.139703904  nElectrons: 348.000000  magneticMoment: [ Abs: 38.93212  Tot: +0.00000 ]
	SubspaceRotationAdjust: set factor to 0.157
ElecMinimize: Iter: 120  F: -2011.773835406068201  |grad|_K:  1.207e-06  alpha:  3.247e-01  linmin:  4.089e-05  t[s]:  10351.88
	FillingsUpdate:  mu: +0.140421622  nElectrons: 348.000000  magneticMoment: [ Abs: 38.93660  Tot: -0.00000 ]
	SubspaceRotationAdjust: set factor to 0.141
ElecMinimize: Iter: 121  F: -2011.773905090553626  |grad|_K:  1.071e-06  alpha:  2.742e-01  linmin:  2.147e-05  t[s]:  10427.66
	FillingsUpdate:  mu: +0.140269656  nElectrons: 348.000000  magneticMoment: [ Abs: 38.93479  Tot: +0.00000 ]
	SubspaceRotationAdjust: set factor to 0.169
ElecMinimize: Iter: 122  F: -2011.773985119004237  |grad|_K:  1.052e-06  alpha:  4.001e-01  linmin:  2.357e-05  t[s]:  10503.59
	FillingsUpdate:  mu: +0.139440227  nElectrons: 348.000000  magneticMoment: [ Abs: 38.92923  Tot: -0.00000 ]
	SubspaceRotationAdjust: set factor to 0.157
ElecMinimize: Iter: 123  F: -2011.774051909337231  |grad|_K:  1.099e-06  alpha:  3.457e-01  linmin:  9.488e-06  t[s]:  10580.20
	FillingsUpdate:  mu: +0.140334614  nElectrons: 348.000000  magneticMoment: [ Abs: 38.92916  Tot: +0.00000 ]
	SubspaceRotationAdjust: set factor to 0.129
	SubspaceRotationAdjust: resetting CG because factor has changed by 0.128699
ElecMinimize: 	State modified externally: resetting search direction.
ElecMinimize: Iter: 124  F: -2011.774112749536016  |grad|_K:  9.979e-07  alpha:  2.881e-01
	FillingsUpdate:  mu: +0.139817599  nElectrons: 348.000000  magneticMoment: [ Abs: 38.92677  Tot: -0.00000 ]
	SubspaceRotationAdjust: set factor to 0.161
ElecMinimize: Iter: 125  F: -2011.774145263264700  |grad|_K:  5.700e-07  alpha:  1.867e-01  linmin:  1.419e-06  t[s]:  10749.92
	FillingsUpdate:  mu: +0.140175739  nElectrons: 348.000000  magneticMoment: [ Abs: 38.92607  Tot: -0.00000 ]
	SubspaceRotationAdjust: set factor to 0.184
ElecMinimize: Iter: 126  F: -2011.774170221645363  |grad|_K:  5.604e-07  alpha:  4.390e-01  linmin: -3.602e-05  t[s]:  10828.48
	FillingsUpdate:  mu: +0.140047343  nElectrons: 348.000000  magneticMoment: [ Abs: 38.91980  Tot: +0.00000 ]
	SubspaceRotationAdjust: set factor to 0.204
ElecMinimize: Iter: 127  F: -2011.774202122310953  |grad|_K:  6.972e-07  alpha:  5.799e-01  linmin: -3.051e-05  t[s]:  10908.48
	FillingsUpdate:  mu: +0.140489727  nElectrons: 348.000000  magneticMoment: [ Abs: 38.91123  Tot: +0.00000 ]
	SubspaceRotationAdjust: set factor to 0.197
ElecMinimize: Iter: 128  F: -2011.774241504407428  |grad|_K:  8.727e-07  alpha:  4.622e-01  linmin:  7.733e-06  t[s]:  10979.21
	FillingsUpdate:  mu: +0.139756892  nElectrons: 348.000000  magneticMoment: [ Abs: 38.89637  Tot: -0.00000 ]
	SubspaceRotationAdjust: set factor to 0.153
ElecMinimize: Iter: 129  F: -2011.774280080731387  |grad|_K:  9.223e-07  alpha:  2.922e-01  linmin:  1.030e-05  t[s]:  11055.87
	FillingsUpdate:  mu: +0.140227871  nElectrons: 348.000000  magneticMoment: [ Abs: 38.88180  Tot: -0.00000 ]
	SubspaceRotationAdjust: set factor to 0.136
ElecMinimize: Iter: 130  F: -2011.774329722823950  |grad|_K:  8.055e-07  alpha:  3.342e-01  linmin:  1.956e-05  t[s]:  11136.56
	FillingsUpdate:  mu: +0.140119063  nElectrons: 348.000000  magneticMoment: [ Abs: 38.86373  Tot: -0.00000 ]
	SubspaceRotationAdjust: set factor to 0.142
ElecMinimize: Iter: 131  F: -2011.774380900149708  |grad|_K:  7.683e-07  alpha:  4.521e-01  linmin:  1.996e-06  t[s]:  11214.13
	FillingsUpdate:  mu: +0.140042732  nElectrons: 348.000000  magneticMoment: [ Abs: 38.84548  Tot: +0.00000 ]
	SubspaceRotationAdjust: set factor to 0.154
ElecMinimize: Iter: 132  F: -2011.774429485248675  |grad|_K:  7.668e-07  alpha:  4.708e-01  linmin:  1.572e-06  t[s]:  11288.84
	FillingsUpdate:  mu: +0.140391725  nElectrons: 348.000000  magneticMoment: [ Abs: 38.82902  Tot: +0.00000 ]
	SubspaceRotationAdjust: set factor to 0.152
ElecMinimize: Iter: 133  F: -2011.774474951036154  |grad|_K:  7.890e-07  alpha:  4.425e-01  linmin: -3.694e-05  t[s]:  11366.55
	FillingsUpdate:  mu: +0.139912155  nElectrons: 348.000000  magneticMoment: [ Abs: 38.81210  Tot: +0.00000 ]
	SubspaceRotationAdjust: set factor to 0.137
ElecMinimize: Iter: 134  F: -2011.774516425576849  |grad|_K:  7.182e-07  alpha:  3.792e-01  linmin:  5.824e-06  t[s]:  11441.73
	FillingsUpdate:  mu: +0.140527247  nElectrons: 348.000000  magneticMoment: [ Abs: 38.80364  Tot: -0.00000 ]
	SubspaceRotationAdjust: set factor to 0.126
ElecMinimize: Iter: 135  F: -2011.774549420733820  |grad|_K:  5.709e-07  alpha:  3.661e-01  linmin: -8.313e-05  t[s]:  11519.02
	FillingsUpdate:  mu: +0.140375941  nElectrons: 348.000000  magneticMoment: [ Abs: 38.79764  Tot: +0.00000 ]
	SubspaceRotationAdjust: set factor to 0.138
ElecMinimize: Iter: 136  F: -2011.774570145701773  |grad|_K:  4.738e-07  alpha:  3.613e-01  linmin:  1.068e-05  t[s]:  11595.89
	FillingsUpdate:  mu: +0.140312234  nElectrons: 348.000000  magneticMoment: [ Abs: 38.79418  Tot: -0.00000 ]
	SubspaceRotationAdjust: set factor to 0.16
ElecMinimize: Iter: 137  F: -2011.774583983238244  |grad|_K:  3.944e-07  alpha:  3.527e-01  linmin:  3.077e-06  t[s]:  11672.37
	FillingsUpdate:  mu: +0.140483695  nElectrons: 348.000000  magneticMoment: [ Abs: 38.79274  Tot: +0.00000 ]
	SubspaceRotationAdjust: set factor to 0.178
ElecMinimize: Iter: 138  F: -2011.774594592508492  |grad|_K:  3.662e-07  alpha:  3.900e-01  linmin: -3.141e-05  t[s]:  11749.58
	FillingsUpdate:  mu: +0.140254083  nElectrons: 348.000000  magneticMoment: [ Abs: 38.79085  Tot: +0.00000 ]
	SubspaceRotationAdjust: set factor to 0.183
ElecMinimize: Iter: 139  F: -2011.774604033131936  |grad|_K:  3.638e-07  alpha:  4.016e-01  linmin:  9.312e-06  t[s]:  11826.24
	FillingsUpdate:  mu: +0.140553074  nElectrons: 348.000000  magneticMoment: [ Abs: 38.79228  Tot: -0.00000 ]
	SubspaceRotationAdjust: set factor to 0.185
ElecMinimize: Iter: 140  F: -2011.774612851731945  |grad|_K:  3.693e-07  alpha:  3.813e-01  linmin: -1.503e-05  t[s]:  11902.95
	FillingsUpdate:  mu: +0.140363270  nElectrons: 348.000000  magneticMoment: [ Abs: 38.79324  Tot: +0.00000 ]
	SubspaceRotationAdjust: set factor to 0.194
ElecMinimize: Iter: 141  F: -2011.774623441684753  |grad|_K:  3.893e-07  alpha:  4.435e-01  linmin:  4.339e-06  t[s]:  11979.01
	FillingsUpdate:  mu: +0.140454716  nElectrons: 348.000000  magneticMoment: [ Abs: 38.79719  Tot: +0.00000 ]
	SubspaceRotationAdjust: set factor to 0.212
ElecMinimize: Iter: 142  F: -2011.774636855961262  |grad|_K:  3.708e-07  alpha:  5.064e-01  linmin: -9.108e-06  t[s]:  12058.16
	FillingsUpdate:  mu: +0.140396298  nElectrons: 348.000000  magneticMoment: [ Abs: 38.79997  Tot: +0.00000 ]
	SubspaceRotationAdjust: set factor to 0.236
ElecMinimize: Iter: 143  F: -2011.774645142149893  |grad|_K:  3.536e-07  alpha:  3.442e-01  linmin: -6.418e-08  t[s]:  12135.81
	FillingsUpdate:  mu: +0.140631570  nElectrons: 348.000000  magneticMoment: [ Abs: 38.80694  Tot: -0.00000 ]
	SubspaceRotationAdjust: set factor to 0.245
ElecMinimize: Iter: 144  F: -2011.774658607817173  |grad|_K:  4.646e-07  alpha:  6.156e-01  linmin: -6.965e-06  t[s]:  12212.27
	FillingsUpdate:  mu: +0.140316776  nElectrons: 348.000000  magneticMoment: [ Abs: 38.81146  Tot: +0.00000 ]
	SubspaceRotationAdjust: set factor to 0.224
ElecMinimize: Iter: 145  F: -2011.774672238881294  |grad|_K:  4.757e-07  alpha:  3.597e-01  linmin: -6.336e-06  t[s]:  12290.03
	FillingsUpdate:  mu: +0.140708944  nElectrons: 348.000000  magneticMoment: [ Abs: 38.81679  Tot: +0.00000 ]
	SubspaceRotationAdjust: set factor to 0.178
ElecMinimize: Iter: 146  F: -2011.774680989419494  |grad|_K:  4.220e-07  alpha:  2.204e-01  linmin: -6.195e-06  t[s]:  12366.44
	FillingsUpdate:  mu: +0.140498889  nElectrons: 348.000000  magneticMoment: [ Abs: 38.81959  Tot: -0.00000 ]
	SubspaceRotationAdjust: set factor to 0.192
ElecMinimize: Iter: 147  F: -2011.774691306331761  |grad|_K:  3.628e-07  alpha:  3.313e-01  linmin:  1.432e-05  t[s]:  12443.39
	FillingsUpdate:  mu: +0.140517384  nElectrons: 348.000000  magneticMoment: [ Abs: 38.82258  Tot: +0.00000 ]
	SubspaceRotationAdjust: set factor to 0.232
ElecMinimize: Iter: 148  F: -2011.774700869525077  |grad|_K:  3.535e-07  alpha:  4.159e-01  linmin:  3.888e-06  t[s]:  12521.59
	FillingsUpdate:  mu: +0.140750605  nElectrons: 348.000000  magneticMoment: [ Abs: 38.82577  Tot: +0.00000 ]
	SubspaceRotationAdjust: set factor to 0.229
ElecMinimize: Iter: 149  F: -2011.774709396109301  |grad|_K:  4.121e-07  alpha:  3.901e-01  linmin:  2.176e-05  t[s]:  12599.07
	FillingsUpdate:  mu: +0.140375484  nElectrons: 348.000000  magneticMoment: [ Abs: 38.82543  Tot: +0.00000 ]
	SubspaceRotationAdjust: set factor to 0.193
ElecMinimize: Iter: 150  F: -2011.774717429894736  |grad|_K:  4.601e-07  alpha:  2.701e-01  linmin:  4.575e-06  t[s]:  12676.37
	FillingsUpdate:  mu: +0.140602957  nElectrons: 348.000000  magneticMoment: [ Abs: 38.82821  Tot: -0.00000 ]
	SubspaceRotationAdjust: set factor to 0.196
ElecMinimize: Iter: 151  F: -2011.774730832968544  |grad|_K:  4.337e-07  alpha:  3.626e-01  linmin:  2.746e-05  t[s]:  12753.70
	FillingsUpdate:  mu: +0.140610071  nElectrons: 348.000000  magneticMoment: [ Abs: 38.82895  Tot: -0.00000 ]
	SubspaceRotationAdjust: set factor to 0.22
ElecMinimize: Iter: 152  F: -2011.774745437272259  |grad|_K:  4.525e-07  alpha:  4.459e-01  linmin:  8.828e-06  t[s]:  12832.70
	FillingsUpdate:  mu: +0.140373704  nElectrons: 348.000000  magneticMoment: [ Abs: 38.82771  Tot: +0.00000 ]
	SubspaceRotationAdjust: set factor to 0.216
ElecMinimize: Iter: 153  F: -2011.774757697899531  |grad|_K:  4.519e-07  alpha:  3.424e-01  linmin:  6.668e-06  t[s]:  12911.04
	FillingsUpdate:  mu: +0.140729732  nElectrons: 348.000000  magneticMoment: [ Abs: 38.82938  Tot: +0.00000 ]
	SubspaceRotationAdjust: set factor to 0.177
ElecMinimize: Iter: 154  F: -2011.774766795675987  |grad|_K:  4.630e-07  alpha:  2.545e-01  linmin:  5.987e-06  t[s]:  12989.28
	FillingsUpdate:  mu: +0.140522162  nElectrons: 348.000000  magneticMoment: [ Abs: 38.82814  Tot: -0.00000 ]
	SubspaceRotationAdjust: set factor to 0.175
ElecMinimize: Iter: 155  F: -2011.774777943832987  |grad|_K:  4.068e-07  alpha:  2.978e-01  linmin:  2.486e-05  t[s]:  13065.50
	FillingsUpdate:  mu: +0.140535597  nElectrons: 348.000000  magneticMoment: [ Abs: 38.82812  Tot: -0.00000 ]
	SubspaceRotationAdjust: set factor to 0.201
ElecMinimize: Iter: 156  F: -2011.774790658656457  |grad|_K:  4.211e-07  alpha:  4.411e-01  linmin:  8.125e-06  t[s]:  13143.66
	FillingsUpdate:  mu: +0.140791483  nElectrons: 348.000000  magneticMoment: [ Abs: 38.82928  Tot: -0.00000 ]
	SubspaceRotationAdjust: set factor to 0.194
ElecMinimize: Iter: 157  F: -2011.774802161171010  |grad|_K:  4.635e-07  alpha:  3.712e-01  linmin:  7.077e-06  t[s]:  13223.69
	FillingsUpdate:  mu: +0.140481887  nElectrons: 348.000000  magneticMoment: [ Abs: 38.82734  Tot: +0.00000 ]
	SubspaceRotationAdjust: set factor to 0.16
ElecMinimize: Iter: 158  F: -2011.774811420983497  |grad|_K:  4.206e-07  alpha:  2.461e-01  linmin:  6.539e-07  t[s]:  13303.30
	FillingsUpdate:  mu: +0.140657638  nElectrons: 348.000000  magneticMoment: [ Abs: 38.82781  Tot: -0.00000 ]
	SubspaceRotationAdjust: set factor to 0.177
ElecMinimize: Iter: 159  F: -2011.774820906898412  |grad|_K:  3.482e-07  alpha:  3.066e-01  linmin:  2.465e-06  t[s]:  13381.43
	FillingsUpdate:  mu: +0.140726315  nElectrons: 348.000000  magneticMoment: [ Abs: 38.82767  Tot: +0.00000 ]
	SubspaceRotationAdjust: set factor to 0.21
ElecMinimize: Iter: 160  F: -2011.774830017670183  |grad|_K:  3.595e-07  alpha:  4.299e-01  linmin:  5.666e-07  t[s]:  13460.63
	FillingsUpdate:  mu: +0.140515481  nElectrons: 348.000000  magneticMoment: [ Abs: 38.82619  Tot: +0.00000 ]
	SubspaceRotationAdjust: set factor to 0.2
ElecMinimize: Iter: 161  F: -2011.774837673705633  |grad|_K:  4.088e-07  alpha:  3.387e-01  linmin:  4.185e-06  t[s]:  13538.47
	FillingsUpdate:  mu: +0.140793313  nElectrons: 348.000000  magneticMoment: [ Abs: 38.82745  Tot: +0.00000 ]
	SubspaceRotationAdjust: set factor to 0.171
ElecMinimize: Iter: 162  F: -2011.774844983837284  |grad|_K:  3.834e-07  alpha:  2.501e-01  linmin:  2.234e-06  t[s]:  13617.33
	FillingsUpdate:  mu: +0.140692017  nElectrons: 348.000000  magneticMoment: [ Abs: 38.82649  Tot: +0.00000 ]
	SubspaceRotationAdjust: set factor to 0.189
ElecMinimize: Iter: 163  F: -2011.774854188579411  |grad|_K:  3.507e-07  alpha:  3.581e-01  linmin: -2.881e-06  t[s]:  13694.41
	FillingsUpdate:  mu: +0.140644435  nElectrons: 348.000000  magneticMoment: [ Abs: 38.82565  Tot: +0.00000 ]
	SubspaceRotationAdjust: set factor to 0.208
ElecMinimize: Iter: 164  F: -2011.774864854114412  |grad|_K:  4.063e-07  alpha:  4.956e-01  linmin: -1.626e-06  t[s]:  13770.78
	FillingsUpdate:  mu: +0.140866115  nElectrons: 348.000000  magneticMoment: [ Abs: 38.82638  Tot: +0.00000 ]
	SubspaceRotationAdjust: set factor to 0.187
ElecMinimize: Iter: 165  F: -2011.774874565415985  |grad|_K:  4.306e-07  alpha:  3.365e-01  linmin: -8.688e-08  t[s]:  13847.99
	FillingsUpdate:  mu: +0.140603528  nElectrons: 348.000000  magneticMoment: [ Abs: 38.82422  Tot: -0.00000 ]
	SubspaceRotationAdjust: set factor to 0.148
ElecMinimize: Iter: 166  F: -2011.774881809171120  |grad|_K:  3.788e-07  alpha:  2.227e-01  linmin: -4.582e-07  t[s]:  13925.01
	FillingsUpdate:  mu: +0.140687603  nElectrons: 348.000000  magneticMoment: [ Abs: 38.82375  Tot: -0.00000 ]
	SubspaceRotationAdjust: set factor to 0.166
ElecMinimize: Iter: 167  F: -2011.774891104301787  |grad|_K:  3.489e-07  alpha:  3.700e-01  linmin: -1.257e-05  t[s]:  14003.26
	FillingsUpdate:  mu: +0.140767735  nElectrons: 348.000000  magneticMoment: [ Abs: 38.82314  Tot: +0.00000 ]
	SubspaceRotationAdjust: set factor to 0.184
ElecMinimize: Iter: 168  F: -2011.774899050863041  |grad|_K:  3.370e-07  alpha:  3.725e-01  linmin: -6.958e-06  t[s]:  14077.76
	FillingsUpdate:  mu: +0.140572652  nElectrons: 348.000000  magneticMoment: [ Abs: 38.82081  Tot: -0.00000 ]
	SubspaceRotationAdjust: set factor to 0.167
ElecMinimize: Iter: 169  F: -2011.774905294107612  |grad|_K:  3.591e-07  alpha:  3.137e-01  linmin:  2.062e-05  t[s]:  14157.23
	FillingsUpdate:  mu: +0.140763994  nElectrons: 348.000000  magneticMoment: [ Abs: 38.82044  Tot: -0.00000 ]
	SubspaceRotationAdjust: set factor to 0.158
ElecMinimize: Iter: 170  F: -2011.774912130984603  |grad|_K:  3.438e-07  alpha:  3.040e-01  linmin: -1.833e-05  t[s]:  14235.39
	FillingsUpdate:  mu: +0.140692858  nElectrons: 348.000000  magneticMoment: [ Abs: 38.81776  Tot: +0.00000 ]
	SubspaceRotationAdjust: set factor to 0.187
ElecMinimize: Iter: 171  F: -2011.774920370999780  |grad|_K:  3.326e-07  alpha:  3.980e-01  linmin:  2.089e-05  t[s]:  14309.86
	FillingsUpdate:  mu: +0.140578026  nElectrons: 348.000000  magneticMoment: [ Abs: 38.81451  Tot: -0.00000 ]
	SubspaceRotationAdjust: set factor to 0.209
ElecMinimize: Iter: 172  F: -2011.774928000318141  |grad|_K:  3.614e-07  alpha:  3.953e-01  linmin:  2.442e-05  t[s]:  14386.24
	FillingsUpdate:  mu: +0.140827519  nElectrons: 348.000000  magneticMoment: [ Abs: 38.81308  Tot: +0.00000 ]
	SubspaceRotationAdjust: set factor to 0.187
ElecMinimize: Iter: 173  F: -2011.774935395181274  |grad|_K:  4.394e-07  alpha:  3.252e-01  linmin: -1.869e-05  t[s]:  14464.44
	FillingsUpdate:  mu: +0.140642893  nElectrons: 348.000000  magneticMoment: [ Abs: 38.80722  Tot: -0.00000 ]
	SubspaceRotationAdjust: set factor to 0.168
ElecMinimize: Iter: 174  F: -2011.774944964412725  |grad|_K:  4.269e-07  alpha:  2.819e-01  linmin:  3.900e-05  t[s]:  14542.57
	FillingsUpdate:  mu: +0.140750140  nElectrons: 348.000000  magneticMoment: [ Abs: 38.79936  Tot: -0.00000 ]
	SubspaceRotationAdjust: set factor to 0.189
ElecMinimize: Iter: 175  F: -2011.774961110994354  |grad|_K:  4.801e-07  alpha:  5.113e-01  linmin:  3.270e-05  t[s]:  14620.96
	FillingsUpdate:  mu: +0.140823623  nElectrons: 348.000000  magneticMoment: [ Abs: 38.79056  Tot: -0.00000 ]
	SubspaceRotationAdjust: set factor to 0.205
ElecMinimize: Iter: 176  F: -2011.774978775759337  |grad|_K:  5.190e-07  alpha:  4.408e-01  linmin:  8.629e-06  t[s]:  14698.83
	FillingsUpdate:  mu: +0.140471577  nElectrons: 348.000000  magneticMoment: [ Abs: 38.78092  Tot: +0.00000 ]
	SubspaceRotationAdjust: set factor to 0.191
ElecMinimize: Iter: 177  F: -2011.774994003997563  |grad|_K:  5.756e-07  alpha:  3.214e-01  linmin:  1.362e-05  t[s]:  14779.31
	FillingsUpdate:  mu: +0.140709319  nElectrons: 348.000000  magneticMoment: [ Abs: 38.77601  Tot: -0.00000 ]
	SubspaceRotationAdjust: set factor to 0.171
ElecMinimize: Iter: 178  F: -2011.775007914000071  |grad|_K:  5.057e-07  alpha:  2.415e-01  linmin: -1.154e-05  t[s]:  14858.75
	FillingsUpdate:  mu: +0.140570206  nElectrons: 348.000000  magneticMoment: [ Abs: 38.76830  Tot: -0.00000 ]
	SubspaceRotationAdjust: set factor to 0.196
ElecMinimize: Iter: 179  F: -2011.775023242040106  |grad|_K:  4.640e-07  alpha:  3.427e-01  linmin:  3.741e-05  t[s]:  14938.19
	FillingsUpdate:  mu: +0.140488324  nElectrons: 348.000000  magneticMoment: [ Abs: 38.76086  Tot: -0.00000 ]
	SubspaceRotationAdjust: set factor to 0.23
ElecMinimize: Iter: 180  F: -2011.775037615716883  |grad|_K:  4.659e-07  alpha:  3.845e-01  linmin:  2.105e-05  t[s]:  15016.46
	FillingsUpdate:  mu: +0.140729230  nElectrons: 348.000000  magneticMoment: [ Abs: 38.75670  Tot: -0.00000 ]
	SubspaceRotationAdjust: set factor to 0.212
ElecMinimize: Iter: 181  F: -2011.775048820152278  |grad|_K:  5.028e-07  alpha:  2.958e-01  linmin:  5.336e-06  t[s]:  15096.99
	FillingsUpdate:  mu: +0.140466937  nElectrons: 348.000000  magneticMoment: [ Abs: 38.75071  Tot: +0.00000 ]
	SubspaceRotationAdjust: set factor to 0.202
ElecMinimize: Iter: 182  F: -2011.775057975129585  |grad|_K:  4.224e-07  alpha:  2.078e-01  linmin: -2.541e-06  t[s]:  15176.30
	FillingsUpdate:  mu: +0.140565438  nElectrons: 348.000000  magneticMoment: [ Abs: 38.74682  Tot: -0.00000 ]
	SubspaceRotationAdjust: set factor to 0.259
ElecMinimize: Iter: 183  F: -2011.775068362396269  |grad|_K:  3.627e-07  alpha:  3.334e-01  linmin:  3.255e-05  t[s]:  15254.43
	FillingsUpdate:  mu: +0.140625412  nElectrons: 348.000000  magneticMoment: [ Abs: 38.74364  Tot: +0.00000 ]
	SubspaceRotationAdjust: set factor to 0.324
ElecMinimize: Iter: 184  F: -2011.775076840350721  |grad|_K:  3.738e-07  alpha:  3.702e-01  linmin:  1.208e-05  t[s]:  15332.03
	FillingsUpdate:  mu: +0.140453830  nElectrons: 348.000000  magneticMoment: [ Abs: 38.73953  Tot: +0.00000 ]
	SubspaceRotationAdjust: set factor to 0.26
ElecMinimize: Iter: 185  F: -2011.775084233252073  |grad|_K:  4.697e-07  alpha:  3.037e-01  linmin: -1.684e-05  t[s]:  15411.27
	FillingsUpdate:  mu: +0.140689236  nElectrons: 348.000000  magneticMoment: [ Abs: 38.73894  Tot: +0.00000 ]
	SubspaceRotationAdjust: set factor to 0.227
ElecMinimize: Iter: 186  F: -2011.775089780293001  |grad|_K:  3.842e-07  alpha:  1.431e-01  linmin: -6.858e-06  t[s]:  15488.73
	FillingsUpdate:  mu: +0.140632653  nElectrons: 348.000000  magneticMoment: [ Abs: 38.73651  Tot: +0.00000 ]
	SubspaceRotationAdjust: set factor to 0.305
ElecMinimize: Iter: 187  F: -2011.775097708436078  |grad|_K:  3.451e-07  alpha:  3.064e-01  linmin: -1.153e-05  t[s]:  15565.59
	FillingsUpdate:  mu: +0.140492184  nElectrons: 348.000000  magneticMoment: [ Abs: 38.73447  Tot: -0.00000 ]
	SubspaceRotationAdjust: set factor to 0.275
ElecMinimize: Iter: 188  F: -2011.775104632601597  |grad|_K:  4.235e-07  alpha:  3.317e-01  linmin: -1.788e-05  t[s]:  15645.35
	FillingsUpdate:  mu: +0.140722725  nElectrons: 348.000000  magneticMoment: [ Abs: 38.73523  Tot: +0.00000 ]
	SubspaceRotationAdjust: set factor to 0.237
ElecMinimize: Iter: 189  F: -2011.775109452496054  |grad|_K:  3.938e-07  alpha:  1.534e-01  linmin:  3.617e-06  t[s]:  15723.65
[...]
	FillingsUpdate:  mu: +0.140808634  nElectrons: 348.000000  magneticMoment: [ Abs: 38.71076  Tot: +0.00000 ]
	SubspaceRotationAdjust: set factor to 0.386
ElecMinimize: Iter:  20  F: -2011.793705436886057  |grad|_K:  6.406e-08  alpha:  3.597e-01  linmin: -3.899e-06  t[s]:  54248.46
ElecMinimize: Converged (|Delta F|<1.000000e-06 for 5 iters).
Setting wave functions to eigenvectors of Hamiltonian

# Ionic positions in lattice coordinates:
ion Ni   0.001458785654547   0.001230292662014   0.151107910891210 1
ion Ni   0.498620781407001   0.499916886138270   0.142900572638174 1
ion Ni   0.249811494107399   0.247759729473670   0.053614166437037 1
ion Ni   0.249656206155480   0.753223907387198   0.051272551605122 1
ion Co   0.488988565433480   0.001357074094467   0.150763753443417 1
ion Co  -0.248925688940303   0.245656625753495   0.053672719016555 1
ion Co  -0.249731277926945   0.752841643443716   0.051832144806403 1
ion Co   0.000000000000000   0.000000000000000  -0.050000000000000 0
ion V   0.002375871809930   0.503388386154864   0.148766018229054 1
ion V   0.500000000000000   0.000000000000000  -0.050000000000000 0
ion V   0.500000000000000   0.500000000000000  -0.050000000000000 0
ion V   0.250000000000000   0.250000000000000  -0.150000000000000 0
ion V   0.250000000000000   0.750000000000000  -0.150000000000000 0
ion V  -0.250000000000000   0.250000000000000  -0.150000000000000 0
ion V  -0.250000000000000   0.750000000000000  -0.150000000000000 0
ion Cr   0.000000000000000   0.500000000000000  -0.050000000000000 0
ion O   0.237642121522796   0.255562117640179   0.149679549352767 1
ion O   0.242695548804910   0.743728171666790   0.145237403496290 1
ion O  -0.239692873532783   0.262083848154929   0.148440703391297 1
ion O  -0.236249894169731   0.743869413240067   0.143021536942982 1
ion O   0.005318464373454  -0.004078579412293   0.049971319300535 1
ion O   0.493230037376441   0.001705290296316   0.051304067912692 1
ion O   0.009524775282781   0.498621243343722   0.048206839026747 1
ion O   0.493055831143375   0.505296921770844   0.047487758154528 1
ion O   0.250000000000000   0.250000000000000  -0.050000000000000 0
ion O   0.250000000000000   0.750000000000000  -0.050000000000000 0
ion O  -0.250000000000000   0.250000000000000  -0.050000000000000 0
ion O  -0.250000000000000   0.750000000000000  -0.050000000000000 0
ion O   0.000000000000000   0.000000000000000  -0.150000000000000 0
ion O   0.500000000000000   0.000000000000000  -0.150000000000000 0
ion O   0.000000000000000   0.500000000000000  -0.150000000000000 0
ion O   0.500000000000000   0.500000000000000  -0.150000000000000 0
ion O  -0.009074735762021  -0.019493741388943   0.239583469489907 1
ion H   0.093879313664229   0.087809443255356   0.255625355188842 1

# Forces in Lattice coordinates:
force Ni  -0.002725534872605  -0.004470318247377  -0.001730346496959 1
force Ni  -0.000554769048236  -0.001968052106113   0.042148312113319 1
force Ni   0.001924760468865   0.001229098638933  -0.002592645806307 1
force Ni   0.003110355070226  -0.001493789450910   0.045679815718602 1
force Co   0.002580238859328  -0.001393211187413  -0.014195956661501 1
force Co  -0.004899175916181   0.004381531352928   0.020271726541459 1
force Co  -0.002660792107229  -0.002682776445198   0.035920246996290 1
force Co   0.039605555820576   0.011503487714200   0.525082119144330 0
force V  -0.001788498127707   0.004415085295117  -0.032316607333482 1
force V  -0.124469798378976   0.010575268767544   0.679438717087938 0
force V  -0.117870252060908  -0.010451331645842   0.478478223455652 0
force V   0.031785906698955  -0.036671497939009  -0.294328341461607 0
force V   0.031578152488971   0.036749958427333  -0.315998416874884 0
force V   0.025670982517065  -0.025021097310952  -0.494291568869802 0
force V   0.025447517173114   0.025604053730886  -0.524396433636914 0
force Cr   0.007667736338969  -0.011646223677280   0.482622942593119 0
force O   0.001842693630619   0.004216357875710  -0.009194155986787 1
force O   0.000806320798654  -0.005284169081875   0.000213673254695 1
force O  -0.001798843680485  -0.000162522001174   0.019509156411633 1
force O  -0.003182945601905  -0.004367654793040   0.010365331082680 1
force O   0.003522996212136  -0.000896837427514   0.021143779771348 1
force O  -0.001528397957950   0.002788021951944   0.020904555576073 1
force O   0.001690514174406  -0.000433818644489   0.026503860767206 1
force O   0.002920424511087   0.000562873076221   0.037242378361208 1
force O   0.046278539524287  -0.051712006417336  -0.084518196530158 0
force O   0.051679763092556   0.057418143618021  -0.079152610770642 0
force O  -0.067372730000097  -0.064576904998097  -0.090869845744498 0
force O  -0.078304090466445   0.059642173276997   0.154128546533913 0
force O   0.010242069706392  -0.002421993188594  -0.179724194353708 0
force O   0.036828925851790  -0.003332986573117  -0.296611426810684 0
force O   0.029461225407508   0.003175334095395   0.340058057122778 0
force O   0.040394794974995   0.002067295937482  -0.380006839877523 0
force O  -0.005356034724549  -0.018960405481165  -0.011160108702277 1
force H  -0.005438220231304  -0.008051559899788   0.035503828663711 1

# Energy components:
   Eewald =     5755.2643497825938539
       EH =     7572.5771091199376315
     Eloc =   -15502.4831741639336542
      Enl =     -521.2299601153563344
   Epulay =       -0.0004831769518162
      Exc =     -246.7256692838099639
       KE =      929.6512267375624106
        U =        1.1540012865443523
-------------------------------------
     Etot =    -2011.7925998134146539
       TS =        0.0011056234713061
-------------------------------------
        F =    -2011.7937054368860572

IonicMinimize: Iter:  11  F: -2011.793705436886057  |grad|_K:  4.842e-04  alpha:  1.000e+00  linmin: -2.255e-02  t[s]:  54260.81

#--- Lowdin population analysis ---
# oxidation-state Ni +3.630 +3.584 +3.451 +3.517
# magnetic-moments Ni +0.852 +0.678 +0.923 +0.969
# oxidation-state Co +1.311 +1.198 +1.021 +1.210
# magnetic-moments Co -2.770 -2.624 -0.995 -2.666
# oxidation-state V +1.374 +1.031 +1.017 +1.038 +1.040 +1.043 +1.046
# magnetic-moments V +2.115 +2.705 +2.714 -2.915 -2.914 +2.934 +2.940
# oxidation-state Cr +2.879
# magnetic-moments Cr -3.651
# oxidation-state O -0.785 -0.763 -0.849 -0.803 -0.843 -0.888 -0.813 -0.831 -0.887 -0.884 -0.941 -0.928 -0.988 -0.958 -0.921 -0.962 -0.757
# magnetic-moments O +0.117 +0.150 -0.080 +0.037 +0.156 +0.093 +0.177 +0.228 +0.009 +0.014 -0.080 -0.048 -0.052 -0.005 +0.047 -0.003 +0.180
# oxidation-state H +0.364
# magnetic-moments H -0.003


-------- Electronic minimization -----------
	FillingsUpdate:  mu: +0.157295579  nElectrons: 348.000000  magneticMoment: [ Abs: 38.71909  Tot: +0.00000 ]
ElecMinimize: Iter:   0  F: -2011.419521495499566  |grad|_K:  9.982e-05  alpha:  1.000e+00
	FillingsUpdate:  mu: +0.138348688  nElectrons: 348.000000  magneticMoment: [ Abs: 38.68334  Tot: +0.00000 ]
	SubspaceRotationAdjust: set factor to 0.405
ElecMinimize: Iter:   1  F: -2011.762080764086704  |grad|_K:  2.238e-05  alpha:  2.014e-01  linmin:  5.238e-03  t[s]:  54363.36
	FillingsUpdate:  mu: +0.141072214  nElectrons: 348.000000  magneticMoment: [ Abs: 38.77884  Tot: +0.00000 ]
	SubspaceRotationAdjust: set factor to 0.362
ElecMinimize: Iter:   2  F: -2011.782423697095510  |grad|_K:  1.169e-05  alpha:  2.372e-01  linmin: -6.611e-04  t[s]:  54436.46
	FillingsUpdate:  mu: +0.136389931  nElectrons: 348.000000  magneticMoment: [ Abs: 38.67766  Tot: -0.00000 ]
	SubspaceRotationAdjust: set factor to 0.237
ElecMinimize: Iter:   3  F: -2011.786065545951715  |grad|_K:  8.356e-06  alpha:  1.447e-01  linmin:  8.492e-05  t[s]:  54511.68
	FillingsUpdate:  mu: +0.139732125  nElectrons: 348.000000  magneticMoment: [ Abs: 38.71399  Tot: -0.00000 ]
	SubspaceRotationAdjust: set factor to 0.347
ElecMinimize: Iter:   4  F: -2011.789520245081349  |grad|_K:  5.090e-06  alpha:  2.838e-01  linmin: -8.839e-06  t[s]:  54588.08
	FillingsUpdate:  mu: +0.141433159  nElectrons: 348.000000  magneticMoment: [ Abs: 38.74112  Tot: +0.00000 ]
	SubspaceRotationAdjust: set factor to 0.299
ElecMinimize: Iter:   5  F: -2011.791246936776133  |grad|_K:  4.667e-06  alpha:  3.808e-01  linmin: -7.410e-06  t[s]:  54664.72
	FillingsUpdate:  mu: +0.137535413  nElectrons: 348.000000  magneticMoment: [ Abs: 38.69736  Tot: +0.00000 ]
	SubspaceRotationAdjust: set factor to 0.225
ElecMinimize: Iter:   6  F: -2011.792003160730701  |grad|_K:  4.069e-06  alpha:  1.948e-01  linmin: -5.086e-05  t[s]:  54746.49
	FillingsUpdate:  mu: +0.140070227  nElectrons: 348.000000  magneticMoment: [ Abs: 38.70910  Tot: +0.00000 ]
	SubspaceRotationAdjust: set factor to 0.337
ElecMinimize: Iter:   7  F: -2011.793012244337433  |grad|_K:  2.609e-06  alpha:  3.468e-01  linmin:  1.833e-05  t[s]:  54824.38
	FillingsUpdate:  mu: +0.141719863  nElectrons: 348.000000  magneticMoment: [ Abs: 38.72994  Tot: -0.00000 ]
	SubspaceRotationAdjust: set factor to 0.283
ElecMinimize: Iter:   8  F: -2011.793381756355984  |grad|_K:  2.516e-06  alpha:  3.111e-01  linmin: -1.484e-05  t[s]:  54903.62
	FillingsUpdate:  mu: +0.139775108  nElectrons: 348.000000  magneticMoment: [ Abs: 38.71105  Tot: +0.00000 ]
	SubspaceRotationAdjust: set factor to 0.19
ElecMinimize: Iter:   9  F: -2011.793580645724660  |grad|_K:  1.496e-06  alpha:  1.788e-01  linmin: -8.786e-06  t[s]:  54982.15
	FillingsUpdate:  mu: +0.140270152  nElectrons: 348.000000  magneticMoment: [ Abs: 38.71451  Tot: -0.00000 ]
	SubspaceRotationAdjust: set factor to 0.237
ElecMinimize: Iter:  10  F: -2011.793694427801029  |grad|_K:  9.479e-07  alpha:  2.904e-01  linmin:  4.325e-06  t[s]:  55059.55
	FillingsUpdate:  mu: +0.140833476  nElectrons: 348.000000  magneticMoment: [ Abs: 38.71965  Tot: -0.00000 ]
	SubspaceRotationAdjust: set factor to 0.223
ElecMinimize: Iter:  11  F: -2011.793740528572016  |grad|_K:  6.739e-07  alpha:  2.935e-01  linmin: -3.916e-07  t[s]:  55137.89
	FillingsUpdate:  mu: +0.140292016  nElectrons: 348.000000  magneticMoment: [ Abs: 38.71560  Tot: -0.00000 ]
	SubspaceRotationAdjust: set factor to 0.175
ElecMinimize: Iter:  12  F: -2011.793761490446741  |grad|_K:  4.468e-07  alpha:  2.639e-01  linmin: -7.701e-07  t[s]:  55214.26
	FillingsUpdate:  mu: +0.140472170  nElectrons: 348.000000  magneticMoment: [ Abs: 38.71821  Tot: +0.00000 ]
	SubspaceRotationAdjust: set factor to 0.182
ElecMinimize: Iter:  13  F: -2011.793771918950597  |grad|_K:  3.149e-07  alpha:  2.986e-01  linmin: -4.981e-06  t[s]:  55291.47
	FillingsUpdate:  mu: +0.140533607  nElectrons: 348.000000  magneticMoment: [ Abs: 38.71891  Tot: +0.00000 ]
	SubspaceRotationAdjust: set factor to 0.212
ElecMinimize: Iter:  14  F: -2011.793777211135193  |grad|_K:  2.235e-07  alpha:  3.051e-01  linmin: -2.012e-06  t[s]:  55367.94
	FillingsUpdate:  mu: +0.140407473  nElectrons: 348.000000  magneticMoment: [ Abs: 38.71798  Tot: +0.00000 ]
	SubspaceRotationAdjust: set factor to 0.212
ElecMinimize: Iter:  15  F: -2011.793780061056850  |grad|_K:  1.760e-07  alpha:  3.261e-01  linmin:  8.659e-07  t[s]:  55448.47
	FillingsUpdate:  mu: +0.140483774  nElectrons: 348.000000  magneticMoment: [ Abs: 38.71929  Tot: +0.00000 ]
	SubspaceRotationAdjust: set factor to 0.219
ElecMinimize: Iter:  16  F: -2011.793781877758875  |grad|_K:  1.404e-07  alpha:  3.353e-01  linmin:  5.052e-07  t[s]:  55525.71
	FillingsUpdate:  mu: +0.140443789  nElectrons: 348.000000  magneticMoment: [ Abs: 38.71919  Tot: +0.00000 ]
	SubspaceRotationAdjust: set factor to 0.259
ElecMinimize: Iter:  17  F: -2011.793783107549416  |grad|_K:  1.211e-07  alpha:  3.566e-01  linmin:  1.419e-06  t[s]:  55605.50
	FillingsUpdate:  mu: +0.140414746  nElectrons: 348.000000  magneticMoment: [ Abs: 38.71908  Tot: +0.00000 ]
	SubspaceRotationAdjust: set factor to 0.296
ElecMinimize: Iter:  18  F: -2011.793784112753656  |grad|_K:  1.089e-07  alpha:  3.920e-01  linmin: -2.500e-06  t[s]:  55683.61
	FillingsUpdate:  mu: +0.140486311  nElectrons: 348.000000  magneticMoment: [ Abs: 38.72010  Tot: -0.00000 ]
	SubspaceRotationAdjust: set factor to 0.272
ElecMinimize: Iter:  19  F: -2011.793784793279883  |grad|_K:  1.073e-07  alpha:  3.279e-01  linmin:  7.103e-07  t[s]:  55761.22
	FillingsUpdate:  mu: +0.140398793  nElectrons: 348.000000  magneticMoment: [ Abs: 38.71948  Tot: -0.00000 ]
	SubspaceRotationAdjust: set factor to 0.238
ElecMinimize: Iter:  20  F: -2011.793785384981675  |grad|_K:  9.044e-08  alpha:  2.937e-01  linmin:  2.747e-06  t[s]:  55838.25
	FillingsUpdate:  mu: +0.140444138  nElectrons: 348.000000  magneticMoment: [ Abs: 38.72000  Tot: +0.00000 ]
	SubspaceRotationAdjust: set factor to 0.266
ElecMinimize: Iter:  21  F: -2011.793785901809315  |grad|_K:  7.910e-08  alpha:  3.615e-01  linmin: -2.474e-06  t[s]:  55916.64
	FillingsUpdate:  mu: +0.140461051  nElectrons: 348.000000  magneticMoment: [ Abs: 38.72028  Tot: +0.00000 ]
	SubspaceRotationAdjust: set factor to 0.314
ElecMinimize: Iter:  22  F: -2011.793786332779064  |grad|_K:  7.387e-08  alpha:  3.940e-01  linmin:  1.063e-05  t[s]:  55994.64
	FillingsUpdate:  mu: +0.140402157  nElectrons: 348.000000  magneticMoment: [ Abs: 38.71990  Tot: +0.00000 ]
	SubspaceRotationAdjust: set factor to 0.319
ElecMinimize: Iter:  23  F: -2011.793786704094600  |grad|_K:  8.037e-08  alpha:  3.897e-01  linmin:  7.111e-06  t[s]:  56071.86
ElecMinimize: Converged (|Delta F|<1.000000e-06 for 5 iters).
Setting wave functions to eigenvectors of Hamiltonian

# Ionic positions in lattice coordinates:
ion Ni   0.001406869522158   0.001068260858649   0.151544182772067 1
ion Ni   0.498449240668995   0.500096567715281   0.142960096946740 1
ion Ni   0.249906647530205   0.248258374844924   0.053488281454766 1
ion Ni   0.249304667268513   0.753364256483745   0.051409651186217 1
ion Co   0.486668610732839   0.001476255311524   0.150444257962753 1
ion Co  -0.248474049197160   0.245919548409030   0.053766067779588 1
ion Co  -0.249822398127972   0.752931743308802   0.051834170294883 1
ion Co   0.000000000000000   0.000000000000000  -0.050000000000000 0
ion V   0.001908522518427   0.503849258733850   0.148885364142291 1
ion V   0.500000000000000   0.000000000000000  -0.050000000000000 0
ion V   0.500000000000000   0.500000000000000  -0.050000000000000 0
ion V   0.250000000000000   0.250000000000000  -0.150000000000000 0
ion V   0.250000000000000   0.750000000000000  -0.150000000000000 0
ion V  -0.250000000000000   0.250000000000000  -0.150000000000000 0
ion V  -0.250000000000000   0.750000000000000  -0.150000000000000 0
ion Cr   0.000000000000000   0.500000000000000  -0.050000000000000 0
ion O   0.236998720756346   0.255523976716741   0.149976940643564 1
ion O   0.242467943209303   0.743251629195742   0.145535422926227 1
ion O  -0.239809119372983   0.261779331639240   0.148986309297249 1
ion O  -0.235976674869098   0.743674617550976   0.143046469836001 1
ion O   0.005367232564392  -0.004100482315178   0.050273247133888 1
ion O   0.493023439059298   0.003152918780317   0.051013841203932 1
ion O   0.010060107378243   0.498026001954655   0.048506918521143 1
ion O   0.493068314970492   0.506010631133882   0.047545333210128 1
ion O   0.250000000000000   0.250000000000000  -0.050000000000000 0
ion O   0.250000000000000   0.750000000000000  -0.050000000000000 0
ion O  -0.250000000000000   0.250000000000000  -0.050000000000000 0
ion O  -0.250000000000000   0.750000000000000  -0.050000000000000 0
ion O   0.000000000000000   0.000000000000000  -0.150000000000000 0
ion O   0.500000000000000   0.000000000000000  -0.150000000000000 0
ion O   0.000000000000000   0.500000000000000  -0.150000000000000 0
ion O   0.500000000000000   0.500000000000000  -0.150000000000000 0
ion O  -0.009145933120885  -0.023991038765736   0.240267796603723 1
ion H   0.091661175958746   0.084597110075136   0.256986879320954 1

# Forces in Lattice coordinates:
force Ni  -0.010201634030381  -0.005221266319552   0.063194533292831 1
force Ni   0.001487012521540  -0.005495488094222   0.052303930218192 1
force Ni  -0.000325694779048   0.001202118270899   0.041556493971824 1
force Ni   0.006251911946389  -0.002685241337022   0.041592520743774 1
force Co   0.011787086856687   0.001410234747344   0.016772144078209 1
force Co  -0.007455840935731   0.001724061071119   0.074949692635322 1
force Co  -0.001339894062372  -0.000412571161127   0.056415735423696 1
force Co   0.039252772490467   0.011259433650670   0.538008156701753 0
force V   0.003087329766112  -0.003382496699600  -0.020582899373338 1
force V  -0.124595612036467   0.011036987221259   0.667985887236743 0
force V  -0.117637487382384  -0.009713102153312   0.486956809894106 0
force V   0.032007366636556  -0.036809326422672  -0.297976316204441 0
force V   0.031805494717648   0.036922538298108  -0.318463507782127 0
force V   0.025515770747772  -0.025359661528124  -0.496130891758366 0
force V   0.025237518841206   0.025979340649336  -0.526659476456575 0
force Cr   0.007351252593054  -0.010902291889097   0.494116485778962 0
force O   0.006233259196509   0.002344012441539  -0.062282371607754 1
force O   0.007035654267232   0.000176097818948  -0.051510782834782 1
force O   0.001265696553028   0.004145553103339  -0.045499791588124 1
force O  -0.007066018034469  -0.002612456910952  -0.004205337138227 1
force O   0.002127400674528   0.000463852802619  -0.020941023070576 1
force O  -0.001034244482765  -0.003684347057806   0.063206581492472 1
force O  -0.002474957061471   0.000283289196209  -0.007433152168928 1
force O   0.003626956640194  -0.003012502353428   0.030790409773452 1
force O   0.048940345799335  -0.055160140419590  -0.081621372970720 0
force O   0.053776351803258   0.060972951667123  -0.073688369361732 0
force O  -0.068878877235497  -0.066740187176711  -0.088036953747303 0
force O  -0.080134314800326   0.062856436147618   0.157855513981522 0
force O   0.010236248366032  -0.002359453579587  -0.179128570722771 0
force O   0.036795199604018  -0.003500089635607  -0.300628760106293 0
force O   0.029672229658228   0.003196232871278   0.343979515380942 0
force O   0.040328288041102   0.001867370079575  -0.380257142496984 0
force O   0.008864618014430   0.008690976297355  -0.075768332949109 1
force H  -0.019946369093583  -0.024067047085106  -0.004211657598830 1

# Energy components:
   Eewald =     5749.6621858141634220
       EH =     7566.8661573918861905
     Eloc =   -15491.1595230934854044
      Enl =     -521.2263286423980162
   Epulay =       -0.0004831769518162
      Exc =     -246.7204192657992223
       KE =      929.6315956616222138
        U =        1.1541335143463962
-------------------------------------
     Etot =    -2011.7926817966165345
       TS =        0.0011049074780832
-------------------------------------
        F =    -2011.7937867040946003

IonicMinimize: Iter:  12  F: -2011.793786704094600  |grad|_K:  8.311e-04  alpha:  1.000e+00  linmin:  1.665e-02  t[s]:  56084.11
IonicMinimize: Converged (|Delta F|<1.000000e-04 for 3 iters).

#--- Lowdin population analysis ---
# oxidation-state Ni +3.634 +3.585 +3.454 +3.517
# magnetic-moments Ni +0.854 +0.678 +0.925 +0.969
# oxidation-state Co +1.311 +1.198 +1.020 +1.209
# magnetic-moments Co -2.770 -2.625 -0.997 -2.666
# oxidation-state V +1.375 +1.031 +1.017 +1.038 +1.040 +1.043 +1.046
# magnetic-moments V +2.110 +2.704 +2.715 -2.915 -2.914 +2.934 +2.940
# oxidation-state Cr +2.878
# magnetic-moments Cr -3.655
# oxidation-state O -0.786 -0.763 -0.849 -0.801 -0.843 -0.889 -0.813 -0.830 -0.887 -0.885 -0.941 -0.928 -0.988 -0.958 -0.921 -0.962 -0.757
# magnetic-moments O +0.118 +0.150 -0.079 +0.037 +0.158 +0.092 +0.178 +0.229 +0.009 +0.013 -0.081 -0.049 -0.052 -0.005 +0.047 -0.003 +0.184
# oxidation-state H +0.365
# magnetic-moments H -0.003


Dumping 'run.ionpos' ... done
Dumping 'run.lattice' ... done
Dumping 'run.Ecomponents' ... done
End date and time: Sat May 17 12:52:59 2025  (Duration: 0-15:34:47.24)
Done!
