/var/spool/slurmd/job44151/slurm_script: line 9: module: command not found
/var/spool/slurmd/job44151/slurm_script: line 10: module: command not found

*************** JDFTx 1.7.0  ***************

Start date and time: Fri May  9 17:46:58 2025
Executable /data2/jt577/jdftx_eat_withLibXC/build/jdftx with command-line: -i /data2/jt577/May_2025/Relax_Mag/rel16+1_6/OH/runs/calc_/run.in
Running on hosts (process indices):  node3402 (0-8)
Divided in process groups (process indices):  0 (0)  1 (1)  2 (2)  3 (3)  4 (4)  5 (5)  6 (6)  7 (7)  8 (8)
Resource initialization completed at t[s]:      0.00
Run totals: 9 processes, 90 threads, 0 GPUs


Input parsed successfully to the following command list (including defaults):

add-mix 
add-U 	Ni d 0.22 \
	Co d 0.2 \
	V d 0.12 \
	Cr d 0.16
basis kpoint-dependent
coords-type Lattice
core-overlap-check vector
coulomb-interaction Periodic
davidson-band-ratio 1.1
dump End IonicPositions Lattice Ecomponents
dump-name run.$VAR
elec-cutoff 30
elec-eigen-algo Davidson
elec-ex-corr gga-x-rpbe gga-c-pbe
elec-smearing Fermi 0.001
electronic-minimize  \
	dirUpdateScheme      FletcherReeves \
	linminMethod         DirUpdateRecommended \
	nIterations          1000 \
	history              15 \
	knormThreshold       0 \
	energyDiffThreshold  1e-06 \
	nEnergyDiff          5 \
	alphaTstart          1 \
	alphaTmin            1e-10 \
	updateTestStepSize   yes \
	alphaTreduceFactor   0.1 \
	alphaTincreaseFactor 3 \
	nAlphaAdjustMax      3 \
	wolfeEnergy          0.0001 \
	wolfeGradient        0.9 \
	fdTest               no
exchange-regularization WignerSeitzTruncated
fluid None
fluid-ex-corr (null) lda-PZ
fluid-gummel-loop 10 1.000000e-05
fluid-minimize  \
	dirUpdateScheme      PolakRibiere \
	linminMethod         DirUpdateRecommended \
	nIterations          100 \
	history              15 \
	knormThreshold       0 \
	energyDiffThreshold  0 \
	nEnergyDiff          2 \
	alphaTstart          1 \
	alphaTmin            1e-10 \
	updateTestStepSize   yes \
	alphaTreduceFactor   0.1 \
	alphaTincreaseFactor 3 \
	nAlphaAdjustMax      3 \
	wolfeEnergy          0.0001 \
	wolfeGradient        0.9 \
	fdTest               no
fluid-solvent H2O 55.338 ScalarEOS \
	epsBulk 78.4 \
	pMol 0.92466 \
	epsInf 1.77 \
	Pvap 1.06736e-10 \
	sigmaBulk 4.62e-05 \
	Rvdw 2.61727 \
	Res 1.42 \
	tauNuc 343133 \
	poleEl 15 7 1
forces-output-coords Positions
initial-magnetic-moments  \
	Ni 1 -1 1 1 \
	Co -1 -1 -1 -1 \
	V 1 1 1 -1 -1 1 1 \
	Cr -1
initial-state run.$VAR
ion Ni  0.000000000000000   0.000000000000000   0.150000000000000 1
ion Ni  0.500000000000000   0.500000000000000   0.150000000000000 1
ion Ni  0.250000000000000   0.250000000000000   0.050000000000000 1
ion Ni  0.250000000000000   0.750000000000000   0.050000000000000 1
ion Co  0.500000000000000   0.000000000000000   0.150000000000000 1
ion Co -0.250000000000000   0.250000000000000   0.050000000000000 1
ion Co -0.250000000000000   0.750000000000000   0.050000000000000 1
ion Co  0.000000000000000   0.000000000000000  -0.050000000000000 0
ion V  0.000000000000000   0.500000000000000   0.150000000000000 1
ion V  0.500000000000000   0.000000000000000  -0.050000000000000 0
ion V  0.500000000000000   0.500000000000000  -0.050000000000000 0
ion V  0.250000000000000   0.250000000000000  -0.150000000000000 0
ion V  0.250000000000000   0.750000000000000  -0.150000000000000 0
ion V -0.250000000000000   0.250000000000000  -0.150000000000000 0
ion V -0.250000000000000   0.750000000000000  -0.150000000000000 0
ion Cr  0.000000000000000   0.500000000000000  -0.050000000000000 0
ion O  0.250000000000000   0.250000000000000   0.150000000000000 1
ion O  0.250000000000000   0.750000000000000   0.150000000000000 1
ion O -0.250000000000000   0.250000000000000   0.150000000000000 1
ion O -0.250000000000000   0.750000000000000   0.150000000000000 1
ion O  0.000000000000000   0.000000000000000   0.050000000000000 1
ion O  0.500000000000000   0.000000000000000   0.050000000000000 1
ion O  0.000000000000000   0.500000000000000   0.050000000000000 1
ion O  0.500000000000000   0.500000000000000   0.050000000000000 1
ion O  0.250000000000000   0.250000000000000  -0.050000000000000 0
ion O  0.250000000000000   0.750000000000000  -0.050000000000000 0
ion O -0.250000000000000   0.250000000000000  -0.050000000000000 0
ion O -0.250000000000000   0.750000000000000  -0.050000000000000 0
ion O  0.000000000000000   0.000000000000000  -0.150000000000000 0
ion O  0.500000000000000   0.000000000000000  -0.150000000000000 0
ion O  0.000000000000000   0.500000000000000  -0.150000000000000 0
ion O  0.500000000000000   0.500000000000000  -0.150000000000000 0
ion O -0.008040138212305  -0.008269777577920   0.235000196603227 1
ion H  0.095742872057713   0.094897636790041   0.252810710255288 1
ion-species SG15/$ID_ONCV_PBE.upf
ion-width 0
ionic-minimize  \
	dirUpdateScheme      L-BFGS \
	linminMethod         DirUpdateRecommended \
	nIterations          1000 \
	history              15 \
	knormThreshold       0.0001 \
	energyDiffThreshold  0.0001 \
	nEnergyDiff          3 \
	alphaTstart          1 \
	alphaTmin            1e-10 \
	updateTestStepSize   yes \
	alphaTreduceFactor   0.1 \
	alphaTincreaseFactor 3 \
	nAlphaAdjustMax      3 \
	wolfeEnergy          0.0001 \
	wolfeGradient        0.9 \
	fdTest               no
kpoint   0.500000000000   0.500000000000   0.500000000000  1.00000000000000
kpoint-folding 3 3 1 
latt-move-scale 1 1 1
latt-scale 1 1 1 
lattice  \
	   8.140000000000001    8.140000000000001    0.000000000000000  \
	   8.140000000000001   -8.140000000000001    0.000000000000000  \
	   0.000000000000000    0.000000000000000   40.700000000000003 
lattice-minimize  \
	dirUpdateScheme      L-BFGS \
	linminMethod         DirUpdateRecommended \
	nIterations          0 \
	history              15 \
	knormThreshold       0 \
	energyDiffThreshold  1e-06 \
	nEnergyDiff          2 \
	alphaTstart          1 \
	alphaTmin            1e-10 \
	updateTestStepSize   yes \
	alphaTreduceFactor   0.1 \
	alphaTincreaseFactor 3 \
	nAlphaAdjustMax      3 \
	wolfeEnergy          0.0001 \
	wolfeGradient        0.9 \
	fdTest               no
lcao-params -1 1e-06 0.001
pcm-variant GLSSA13
spintype z-spin
subspace-rotation-factor 1 yes
symmetries none
symmetry-threshold 0.0001


Applied RMS atom displacement 0 bohrs to make symmetries exact.

---------- Initializing the Grid ----------
R = 
[         8.14         8.14            0  ]
[         8.14        -8.14            0  ]
[            0            0         40.7  ]
unit cell volume = 5393.53
G =
[   0.385945   0.385945         -0  ]
[   0.385945  -0.385945         -0  ]
[         -0         -0   0.154378  ]
Minimum fftbox size, Smin = [  60  60  204  ]
Chosen fftbox size, S = [  60  60  210  ]

---------- Exchange Correlation functional ----------
Initialized LibXC exchange functional 'Hammer, Hansen, and Norskov'
Initialized LibXC correlation functional 'Perdew, Burke & Ernzerhof'

---------- Setting up pseudopotentials ----------
Width of ionic core gaussian charges (only for fluid interactions / plotting) set to 0

Reading pseudopotential file '/data2/jt577/jdftx_eat_withLibXC/build/pseudopotentials/SG15/Ni_ONCV_PBE.upf':
  'Ni' pseudopotential, 'PBE' functional
  Generated using ONCVPSP code by D. R. Hamann
  Author: Martin Schlipf and Francois Gygi  Date: 150915.
  18 valence electrons, 4 orbitals, 6 projectors, 1292 radial grid points, with lMax = 2
  Transforming local potential to a uniform radial grid of dG=0.02 with 1419 points.
  Transforming nonlocal projectors to a uniform radial grid of dG=0.02 with 528 points.
    3S    l: 0   occupation:  2.0   eigenvalue: -4.081355
    3P    l: 1   occupation:  6.0   eigenvalue: -2.623460
    4S    l: 0   occupation:  2.0   eigenvalue: -0.207378
    3D    l: 2   occupation:  8.0   eigenvalue: -0.326118
  Transforming atomic orbitals to a uniform radial grid of dG=0.02 with 528 points.
  WARNING: large normalization error in atomic orbital 1s (integral: 0.000006).
  Core radius for overlap checks: 1.99 bohrs.
  Reading pulay file /data2/jt577/jdftx_eat_withLibXC/build/pseudopotentials/SG15/Ni_ONCV_PBE.pulay ... using dE_dnG = -7.250568e-04 computed for Ecut = 30.

Reading pseudopotential file '/data2/jt577/jdftx_eat_withLibXC/build/pseudopotentials/SG15/Co_ONCV_PBE.upf':
  'Co' pseudopotential, 'PBE' functional
  Generated using ONCVPSP code by D. R. Hamann
  Author: Martin Schlipf and Francois Gygi  Date: 150915.
  17 valence electrons, 4 orbitals, 6 projectors, 1388 radial grid points, with lMax = 2
  Transforming local potential to a uniform radial grid of dG=0.02 with 1419 points.
  Transforming nonlocal projectors to a uniform radial grid of dG=0.02 with 528 points.
    3S    l: 0   occupation:  2.0   eigenvalue: -3.763303
    3P    l: 1   occupation:  6.0   eigenvalue: -2.412101
    4S    l: 0   occupation:  2.0   eigenvalue: -0.201022
    3D    l: 2   occupation:  7.0   eigenvalue: -0.301498
  Transforming atomic orbitals to a uniform radial grid of dG=0.02 with 528 points.
  Core radius for overlap checks: 1.94 bohrs.
  Reading pulay file /data2/jt577/jdftx_eat_withLibXC/build/pseudopotentials/SG15/Co_ONCV_PBE.pulay ... using dE_dnG = -9.787391e-05 computed for Ecut = 30.

Reading pseudopotential file '/data2/jt577/jdftx_eat_withLibXC/build/pseudopotentials/SG15/V_ONCV_PBE.upf':
  'V' pseudopotential, 'PBE' functional
  Generated using ONCVPSP code by D. R. Hamann
  Author: Martin Schlipf and Francois Gygi  Date: 150915.
  13 valence electrons, 4 orbitals, 6 projectors, 1536 radial grid points, with lMax = 2
  Transforming local potential to a uniform radial grid of dG=0.02 with 1419 points.
  Transforming nonlocal projectors to a uniform radial grid of dG=0.02 with 528 points.
    3S    l: 0   occupation:  2.0   eigenvalue: -2.581105
    3P    l: 1   occupation:  6.0   eigenvalue: -1.618486
    4S    l: 0   occupation:  2.0   eigenvalue: -0.172804
    3D    l: 2   occupation:  3.0   eigenvalue: -0.189795
  Transforming atomic orbitals to a uniform radial grid of dG=0.02 with 528 points.
  Core radius for overlap checks: 1.80 bohrs.
  Reading pulay file /data2/jt577/jdftx_eat_withLibXC/build/pseudopotentials/SG15/V_ONCV_PBE.pulay ... using dE_dnG = -1.698632e-04 computed for Ecut = 30.

Reading pseudopotential file '/data2/jt577/jdftx_eat_withLibXC/build/pseudopotentials/SG15/Cr_ONCV_PBE.upf':
  'Cr' pseudopotential, 'PBE' functional
  Generated using ONCVPSP code by D. R. Hamann
  Author: Martin Schlipf and Francois Gygi  Date: 150915.
  14 valence electrons, 4 orbitals, 6 projectors, 1160 radial grid points, with lMax = 2
  Transforming local potential to a uniform radial grid of dG=0.02 with 1419 points.
  Transforming nonlocal projectors to a uniform radial grid of dG=0.02 with 528 points.
    3S    l: 0   occupation:  2.0   eigenvalue: -2.865131
    3P    l: 1   occupation:  6.0   eigenvalue: -1.810600
    4S    l: 0   occupation:  2.0   eigenvalue: -0.180525
    3D    l: 2   occupation:  4.0   eigenvalue: -0.220312
  Transforming atomic orbitals to a uniform radial grid of dG=0.02 with 528 points.
  WARNING: large normalization error in atomic orbital 1s (integral: 0.000001).
  Core radius for overlap checks: 2.10 bohrs.
  Reading pulay file /data2/jt577/jdftx_eat_withLibXC/build/pseudopotentials/SG15/Cr_ONCV_PBE.pulay ... using dE_dnG = -9.817895e-06 computed for Ecut = 30.

Reading pseudopotential file '/data2/jt577/jdftx_eat_withLibXC/build/pseudopotentials/SG15/O_ONCV_PBE.upf':
  'O' pseudopotential, 'PBE' functional
  Generated using ONCVPSP code by D. R. Hamann
  Author: Martin Schlipf and Francois Gygi  Date: 150915.
  6 valence electrons, 2 orbitals, 4 projectors, 936 radial grid points, with lMax = 1
  Transforming local potential to a uniform radial grid of dG=0.02 with 1419 points.
  Transforming nonlocal projectors to a uniform radial grid of dG=0.02 with 528 points.
    2S    l: 0   occupation:  2.0   eigenvalue: -0.880572
    2P    l: 1   occupation:  4.0   eigenvalue: -0.331869
  Transforming atomic orbitals to a uniform radial grid of dG=0.02 with 528 points.
  Core radius for overlap checks: 1.29 bohrs.
  Reading pulay file /data2/jt577/jdftx_eat_withLibXC/build/pseudopotentials/SG15/O_ONCV_PBE.pulay ... using dE_dnG = -8.209514e-03 computed for Ecut = 30.

Reading pseudopotential file '/data2/jt577/jdftx_eat_withLibXC/build/pseudopotentials/SG15/H_ONCV_PBE.upf':
  'H' pseudopotential, 'PBE' functional
  Generated using ONCVPSP code by D. R. Hamann
  Author: Martin Schlipf and Francois Gygi  Date: 150915.
  1 valence electrons, 1 orbitals, 2 projectors, 1166 radial grid points, with lMax = 0
  Transforming local potential to a uniform radial grid of dG=0.02 with 1419 points.
  Transforming nonlocal projectors to a uniform radial grid of dG=0.02 with 528 points.
    1S    l: 0   occupation:  1.0   eigenvalue: -0.238602
  Transforming atomic orbitals to a uniform radial grid of dG=0.02 with 528 points.
  Core radius for overlap checks: 1.01 bohrs.
  Reading pulay file /data2/jt577/jdftx_eat_withLibXC/build/pseudopotentials/SG15/H_ONCV_PBE.pulay ... using dE_dnG = -8.245991e-05 computed for Ecut = 30.

Initialized 6 species with 34 total atoms.

Folded 1 k-points by 3x3x1 to 9 k-points.

---------- Setting up k-points, bands, fillings ----------
No reducable k-points. 
Computing the number of bands and number of electrons
Calculating initial fillings.
nElectrons: 348.000000   nBands: 229   nStates: 18

----- Setting up reduced wavefunction bases (one per k-point) -----
average nbasis = 42312.000 , ideal nbasis = 42330.081

---------- Setting up ewald sum ----------
Optimum gaussian width for ewald sums = 3.887061 bohr.
Real space sum over 605 unit cells with max indices [  5  5  2  ]
Reciprocal space sum over 5915 terms with max indices [  6  6  17  ]

---------- Allocating electronic variables ----------
Initializing wave functions:  linear combination of atomic orbitals
Ni (M=1) pseudo-atom majority spin occupations:   s ( 1 0.5 )  p ( 3 )  d ( 5 )
Ni (M=1) pseudo-atom minority spin occupations:   s ( 1 0 )  p ( 3 )  d ( 4.5 )
Co (M=1) pseudo-atom majority spin occupations:   s ( 1 0 )  p ( 3 )  d ( 5 )
Co (M=1) pseudo-atom minority spin occupations:   s ( 1 0 )  p ( 3 )  d ( 4 )
V (M=1) pseudo-atom majority spin occupations:   s ( 1 0 )  p ( 3 )  d ( 3 )
V (M=1) pseudo-atom minority spin occupations:   s ( 1 0 )  p ( 3 )  d ( 2 )
Cr (M=1) pseudo-atom majority spin occupations:   s ( 1 0 )  p ( 3 )  d ( 3.5 )
Cr (M=1) pseudo-atom minority spin occupations:   s ( 1 0 )  p ( 3 )  d ( 2.5 )
O pseudo-atom occupations:   s ( 2 )  p ( 4 )
H pseudo-atom occupations:   s ( 1 )
	FillingsUpdate:  mu: -0.292649593  nElectrons: 348.000000  magneticMoment: [ Abs: 3.86597  Tot: -0.00000 ]
LCAOMinimize: Iter:   0  F: -1880.6364635259369607  |grad|_K:  2.450e-02  alpha:  1.000e+00
LCAOMinimize: 	Step increased F by 7.282574e+01, reducing alpha to 4.191919e-02.
	FillingsUpdate:  mu: +0.720608411  nElectrons: 348.000000  magneticMoment: [ Abs: 3.41409  Tot: +0.00000 ]
LCAOMinimize: Iter:   1  F: -1901.7388172399676023  |grad|_K:  3.286e-02  alpha:  4.192e-02  linmin:  1.450e-02  cgtest: -1.426e-01  t[s]:     54.51
LCAOMinimize: 	Step increased F by 2.985117e+00, reducing alpha to 1.929711e-03.
	FillingsUpdate:  mu: +0.793689596  nElectrons: 348.000000  magneticMoment: [ Abs: 3.26818  Tot: +0.00000 ]
LCAOMinimize: Iter:   2  F: -1903.2193919691512747  |grad|_K:  3.295e-02  alpha:  1.930e-03  linmin: -2.413e-02  cgtest:  8.947e-01  t[s]:     79.84
LCAOMinimize: 	Predicted alpha/alphaT>3.000000, increasing alphaT to 5.789132e-03.
	FillingsUpdate:  mu: +0.649357441  nElectrons: 348.000000  magneticMoment: [ Abs: 3.76365  Tot: +0.00000 ]
LCAOMinimize: Iter:   3  F: -1908.9166651954656118  |grad|_K:  2.119e-02  alpha:  8.230e-03  linmin: -6.580e-02  cgtest:  6.590e-01  t[s]:     98.60
LCAOMinimize: Encountered beta<0, resetting CG.
LCAOMinimize: 	Predicted alpha/alphaT>3.000000, increasing alphaT to 2.468874e-02.
	FillingsUpdate:  mu: +0.164130667  nElectrons: 348.000000  magneticMoment: [ Abs: 6.48052  Tot: +0.00000 ]
LCAOMinimize: Iter:   4  F: -1916.2846487324995906  |grad|_K:  2.951e-02  alpha:  4.238e-02  linmin:  1.240e-02  cgtest:  6.710e-02  t[s]:    117.50
	FillingsUpdate:  mu: +0.166867977  nElectrons: 348.000000  magneticMoment: [ Abs: 7.24928  Tot: +0.00000 ]
LCAOMinimize: Iter:   5  F: -1917.8850403954781996  |grad|_K:  2.734e-02  alpha:  3.590e-03  linmin: -1.216e-02  cgtest:  1.030e+00  t[s]:    132.32
LCAOMinimize: Encountered beta<0, resetting CG.
LCAOMinimize: 	Predicted alpha/alphaT>3.000000, increasing alphaT to 1.076990e-02.
	FillingsUpdate:  mu: +0.362149392  nElectrons: 348.000000  magneticMoment: [ Abs: 6.90719  Tot: +0.00000 ]
LCAOMinimize: Iter:   6  F: -1923.4108609668101053  |grad|_K:  1.198e-02  alpha:  1.532e-02  linmin: -2.289e-02  cgtest:  1.978e-02  t[s]:    151.21
LCAOMinimize: 	Predicted alpha/alphaT>3.000000, increasing alphaT to 4.595090e-02.
	FillingsUpdate:  mu: +0.584808193  nElectrons: 348.000000  magneticMoment: [ Abs: 8.29797  Tot: +0.00000 ]
LCAOMinimize: Iter:   7  F: -1936.1814446770442828  |grad|_K:  2.016e-02  alpha:  1.359e-01  linmin:  1.880e-02  cgtest: -4.784e-02  t[s]:    170.12
LCAOMinimize: 	Bad step direction: g.d > 0.
LCAOMinimize: 	Undoing step.
LCAOMinimize: 	Step failed: resetting search direction.
	FillingsUpdate:  mu: +0.584808193  nElectrons: 348.000000  magneticMoment: [ Abs: 8.29797  Tot: +0.00000 ]
LCAOMinimize: Iter:   8  F: -1936.1814446770442828  |grad|_K:  2.016e-02  alpha:  0.000e+00
LCAOMinimize: 	Step increased F by 2.175675e-01, reducing alpha to 4.177198e-03.
	FillingsUpdate:  mu: +0.469630457  nElectrons: 348.000000  magneticMoment: [ Abs: 8.01910  Tot: +0.00000 ]
LCAOMinimize: Iter:   9  F: -1937.8027984364662188  |grad|_K:  1.907e-02  alpha:  4.177e-03  linmin: -1.098e-01  cgtest:  7.538e-01  t[s]:    205.68
	FillingsUpdate:  mu: +0.301555045  nElectrons: 348.000000  magneticMoment: [ Abs: 7.69942  Tot: -0.00000 ]
LCAOMinimize: Iter:  10  F: -1940.2294336347060835  |grad|_K:  1.082e-02  alpha:  9.557e-03  linmin: -4.592e-02  cgtest:  4.696e-01  t[s]:    220.17
LCAOMinimize: 	Predicted alpha/alphaT>3.000000, increasing alphaT to 2.866979e-02.
	FillingsUpdate:  mu: +0.439259009  nElectrons: 348.000000  magneticMoment: [ Abs: 12.04826  Tot: -0.00000 ]
LCAOMinimize: Iter:  11  F: -1941.9681900305877207  |grad|_K:  1.923e-02  alpha:  4.216e-02  linmin:  1.970e-02  cgtest: -4.558e-01  t[s]:    238.98
	FillingsUpdate:  mu: +0.388300407  nElectrons: 348.000000  magneticMoment: [ Abs: 12.75839  Tot: -0.00000 ]
LCAOMinimize: Iter:  12  F: -1942.7453799779641486  |grad|_K:  1.659e-02  alpha:  4.375e-03  linmin: -1.906e-02  cgtest:  1.122e+00  t[s]:    253.50
LCAOMinimize: Encountered beta<0, resetting CG.
LCAOMinimize: 	Predicted alpha/alphaT>3.000000, increasing alphaT to 1.312426e-02.
	FillingsUpdate:  mu: +0.074233090  nElectrons: 348.000000  magneticMoment: [ Abs: 9.91863  Tot: +0.00000 ]
LCAOMinimize: Iter:  13  F: -1944.6091607592538821  |grad|_K:  1.099e-02  alpha:  1.787e-02  linmin:  8.428e-02  cgtest: -4.784e-01  t[s]:    272.21
LCAOMinimize: 	Wrong curvature in test step, increasing alphaT to 5.360605e-02.
	FillingsUpdate:  mu: +0.009601929  nElectrons: 348.000000  magneticMoment: [ Abs: 10.09318  Tot: -0.00000 ]
LCAOMinimize: Iter:  14  F: -1945.1926902994466673  |grad|_K:  1.247e-02  alpha: -2.002e-01  linmin: -1.807e-02  cgtest:  8.980e-01  t[s]:    286.01
LCAOMinimize: 	Step increased F by 7.077967e+01, reducing alpha to 1.069995e-02.
	FillingsUpdate:  mu: +0.153987009  nElectrons: 348.000000  magneticMoment: [ Abs: 11.82140  Tot: +0.00000 ]
LCAOMinimize: Iter:  15  F: -1946.3063417278028737  |grad|_K:  4.179e-03  alpha:  1.070e-02  linmin:  2.894e-03  cgtest:  1.380e-01  t[s]:    310.94
LCAOMinimize: 	Predicted alpha/alphaT>3.000000, increasing alphaT to 3.209984e-02.
LCAOMinimize: 	Predicted alpha/alphaT>3.000000, increasing alphaT to 9.629951e-02.
	FillingsUpdate:  mu: +0.160573096  nElectrons: 348.000000  magneticMoment: [ Abs: 13.18555  Tot: -0.00000 ]
LCAOMinimize: Iter:  16  F: -1947.1082084011982261  |grad|_K:  7.348e-03  alpha:  1.016e-01  linmin:  1.968e-02  cgtest: -4.185e-01  t[s]:    333.91
LCAOMinimize: 	Step increased F by 2.920465e-02, reducing alpha to 3.857751e-04.
	FillingsUpdate:  mu: +0.160563708  nElectrons: 348.000000  magneticMoment: [ Abs: 13.22966  Tot: +0.00000 ]
LCAOMinimize: Iter:  17  F: -1947.1140477424867186  |grad|_K:  7.355e-03  alpha:  3.858e-04  linmin: -6.708e-03  cgtest:  9.941e-01  t[s]:    359.13
LCAOMinimize: 	Predicted alpha/alphaT>3.000000, increasing alphaT to 1.157325e-03.
LCAOMinimize: 	Predicted alpha/alphaT>3.000000, increasing alphaT to 3.471976e-03.
LCAOMinimize: 	Predicted alpha/alphaT>3.000000, increasing alphaT to 1.041593e-02.
LCAOMinimize: 	Step increased F by 1.546875e-01, reducing alpha to 2.462943e-03.
	FillingsUpdate:  mu: +0.152267928  nElectrons: 348.000000  magneticMoment: [ Abs: 13.38144  Tot: -0.00000 ]
LCAOMinimize: Iter:  18  F: -1947.2354510950935946  |grad|_K:  6.283e-03  alpha:  2.463e-03  linmin: -1.086e-01  cgtest:  9.493e-01  t[s]:    392.68
LCAOMinimize: Encountered beta<0, resetting CG.
LCAOMinimize: 	Predicted alpha/alphaT>3.000000, increasing alphaT to 7.388830e-03.
	FillingsUpdate:  mu: +0.174242557  nElectrons: 348.000000  magneticMoment: [ Abs: 13.92887  Tot: +0.00000 ]
LCAOMinimize: Iter:  19  F: -1947.4372038800754581  |grad|_K:  4.404e-03  alpha:  1.291e-02  linmin:  3.571e-02  cgtest: -2.079e-01  t[s]:    411.52
	FillingsUpdate:  mu: +0.095643676  nElectrons: 348.000000  magneticMoment: [ Abs: 14.13682  Tot: -0.00000 ]
LCAOMinimize: Iter:  20  F: -1947.5504368039503333  |grad|_K:  2.334e-03  alpha:  1.886e-02  linmin: -5.580e-03  cgtest:  6.093e-01  t[s]:    426.21
LCAOMinimize: Encountered beta<0, resetting CG.
	FillingsUpdate:  mu: +0.095564289  nElectrons: 348.000000  magneticMoment: [ Abs: 14.24958  Tot: +0.00000 ]
LCAOMinimize: Iter:  21  F: -1947.5968784052963656  |grad|_K:  2.178e-03  alpha:  1.783e-02  linmin:  2.398e-03  cgtest: -9.615e-02  t[s]:    440.74
	FillingsUpdate:  mu: +0.154227030  nElectrons: 348.000000  magneticMoment: [ Abs: 15.01157  Tot: -0.00000 ]
LCAOMinimize: Iter:  22  F: -1947.6596306521321367  |grad|_K:  2.262e-03  alpha:  3.129e-02  linmin:  5.010e-03  cgtest: -1.594e-01  t[s]:    455.40
	FillingsUpdate:  mu: +0.178650107  nElectrons: 348.000000  magneticMoment: [ Abs: 16.51676  Tot: +0.00000 ]
LCAOMinimize: Iter:  23  F: -1947.7837837212932754  |grad|_K:  2.427e-03  alpha:  6.164e-02  linmin: -2.234e-04  cgtest:  9.865e-01  t[s]:    469.87
	FillingsUpdate:  mu: +0.121154408  nElectrons: 348.000000  magneticMoment: [ Abs: 16.50734  Tot: +0.00000 ]
LCAOMinimize: Iter:  24  F: -1947.8073103581482428  |grad|_K:  2.490e-03  alpha:  2.147e-02  linmin:  2.695e-02  cgtest: -5.642e-01  t[s]:    484.37
	FillingsUpdate:  mu: +0.110685049  nElectrons: 348.000000  magneticMoment: [ Abs: 16.66384  Tot: +0.00000 ]
LCAOMinimize: Iter:  25  F: -1947.8121748873247725  |grad|_K:  2.811e-03  alpha:  8.394e-03  linmin:  3.723e-04  cgtest:  9.972e-01  t[s]:    498.93
	FillingsUpdate:  mu: +0.129234618  nElectrons: 348.000000  magneticMoment: [ Abs: 17.00811  Tot: -0.00000 ]
LCAOMinimize: Iter:  26  F: -1947.8543345907114599  |grad|_K:  9.828e-04  alpha:  1.217e-02  linmin:  4.342e-02  cgtest: -4.718e-01  t[s]:    513.27
LCAOMinimize: 	Predicted alpha/alphaT>3.000000, increasing alphaT to 3.650432e-02.
	FillingsUpdate:  mu: +0.148520840  nElectrons: 348.000000  magneticMoment: [ Abs: 17.82265  Tot: -0.00000 ]
LCAOMinimize: Iter:  27  F: -1947.8788452400156075  |grad|_K:  1.995e-03  alpha:  9.656e-02  linmin:  6.605e-04  cgtest:  8.168e-01  t[s]:    531.73
	FillingsUpdate:  mu: +0.129141532  nElectrons: 348.000000  magneticMoment: [ Abs: 18.11363  Tot: -0.00000 ]
LCAOMinimize: Iter:  28  F: -1947.8954632823952124  |grad|_K:  1.952e-03  alpha:  2.743e-02  linmin:  8.505e-03  cgtest: -8.842e-01  t[s]:    546.25
LCAOMinimize: 	Step increased F by 3.375172e-02, reducing alpha to 6.101785e-03.
	FillingsUpdate:  mu: +0.128267188  nElectrons: 348.000000  magneticMoment: [ Abs: 18.34637  Tot: -0.00000 ]
LCAOMinimize: Iter:  29  F: -1947.8999950912873373  |grad|_K:  2.084e-03  alpha:  6.102e-03  linmin: -1.861e-03  cgtest:  9.928e-01  t[s]:    571.07
	FillingsUpdate:  mu: +0.130005521  nElectrons: 348.000000  magneticMoment: [ Abs: 18.69707  Tot: +0.00000 ]
LCAOMinimize: Iter:  30  F: -1947.9237201980765803  |grad|_K:  9.160e-04  alpha:  1.262e-02  linmin:  3.001e-02  cgtest: -3.630e-01  t[s]:    585.79
LCAOMinimize: None of the convergence criteria satisfied after 30 iterations.


---- Citations for features of the code used in this run ----

   Software package:
      R. Sundararaman, K. Letchworth-Weaver, K.A. Schwarz, D. Gunceler, Y. Ozhabes and T.A. Arias, 'JDFTx: software for joint density-functional theory', SoftwareX 6, 278 (2017)

   Simplified rotationally-invariant DFT+U:
      S. L. Dudarev et al., Phys. Rev. B 57, 1505 (1998)

   LibXC library of exchange-correlation functions:
      M. A. L. Marques, M. J. T. Oliveira and T. Burnus, Comput. Phys. Commun. 183, 2272 (2012)

   Hammer, Hansen, and Norskov exchange functional:
      B. Hammer, L. B. Hansen, and J. K. Nørskov, Phys. Rev. B 59, 7413 (1999)

   Perdew, Burke & Ernzerhof correlation functional:
      J. P. Perdew, K. Burke, and M. Ernzerhof, Phys. Rev. Lett. 77, 3865 (1996)

   Pseudopotentials:
      M Schlipf and F Gygi, Comput. Phys. Commun. 196, 36 (2015)

   Total energy minimization with Auxiliary Hamiltonian:
      C. Freysoldt, S. Boeck, and J. Neugebauer, Phys. Rev. B 79, 241103(R) (2009)

This list may not be complete. Please suggest additional citations or
report any other bugs at https://github.com/shankar1729/jdftx/issues

Initialization completed successfully at t[s]:    592.76


-------- Electronic minimization -----------
	FillingsUpdate:  mu: +0.130005754  nElectrons: 348.000000  magneticMoment: [ Abs: 18.69707  Tot: +0.00000 ]
ElecMinimize: Iter:   0  F: -1947.923720198080218  |grad|_K:  8.620e-04  alpha:  1.000e+00
	FillingsUpdate:  mu: +0.332504925  nElectrons: 348.000000  magneticMoment: [ Abs: 18.73922  Tot: +0.00000 ]
	SubspaceRotationAdjust: set factor to 0.997
ElecMinimize: Iter:   1  F: -1982.094608201660776  |grad|_K:  1.024e-03  alpha:  4.758e-01  linmin:  8.163e-03  t[s]:    680.42
	FillingsUpdate:  mu: +0.540635491  nElectrons: 348.000000  magneticMoment: [ Abs: 21.53892  Tot: -0.00000 ]
	SubspaceRotationAdjust: set factor to 0.73
ElecMinimize: Iter:   2  F: -1985.717981345979069  |grad|_K:  8.567e-04  alpha:  3.901e-02  linmin:  5.752e-04  t[s]:    759.33
	FillingsUpdate:  mu: +0.215797653  nElectrons: 348.000000  magneticMoment: [ Abs: 22.56964  Tot: +0.00000 ]
	SubspaceRotationAdjust: set factor to 0.507
ElecMinimize: Iter:   3  F: -1993.949007738918453  |grad|_K:  6.644e-04  alpha:  7.259e-02  linmin: -4.577e-04  t[s]:    837.05
	FillingsUpdate:  mu: +0.858187651  nElectrons: 348.000000  magneticMoment: [ Abs: 24.89308  Tot: +0.00000 ]
	SubspaceRotationAdjust: set factor to 0.273
ElecMinimize: Iter:   4  F: -2000.074804861109669  |grad|_K:  9.114e-04  alpha:  1.041e-01  linmin:  4.193e-03  t[s]:    915.29
	FillingsUpdate:  mu: +0.858892198  nElectrons: 348.000000  magneticMoment: [ Abs: 24.89681  Tot: -0.00000 ]
	SubspaceRotationAdjust: set factor to 0.183
ElecMinimize: Iter:   5  F: -2000.081100977308097  |grad|_K:  7.105e-04  alpha:  1.783e-04  linmin: -9.392e-05  t[s]:    992.23
ElecMinimize: 	Predicted alpha/alphaT>3.000000, increasing alphaT to 5.349607e-04.
ElecMinimize: 	Predicted alpha/alphaT>3.000000, increasing alphaT to 1.604882e-03.
ElecMinimize: 	Predicted alpha/alphaT>3.000000, increasing alphaT to 4.814647e-03.
	FillingsUpdate:  mu: +0.783685223  nElectrons: 348.000000  magneticMoment: [ Abs: 25.23222  Tot: -0.00000 ]
	SubspaceRotationAdjust: set factor to 0.164
ElecMinimize: Iter:   6  F: -2002.108034610665527  |grad|_K:  5.128e-04  alpha:  1.841e-02  linmin: -1.486e-03  t[s]:   1128.12
ElecMinimize: 	Predicted alpha/alphaT>3.000000, increasing alphaT to 5.524203e-02.
	FillingsUpdate:  mu: +0.325036679  nElectrons: 348.000000  magneticMoment: [ Abs: 25.73028  Tot: +0.00000 ]
	SubspaceRotationAdjust: set factor to 0.229
ElecMinimize: Iter:   7  F: -2005.657796360297652  |grad|_K:  3.625e-04  alpha:  5.886e-02  linmin:  2.258e-03  t[s]:   1236.27
	FillingsUpdate:  mu: +0.301541114  nElectrons: 348.000000  magneticMoment: [ Abs: 25.87245  Tot: -0.00000 ]
	SubspaceRotationAdjust: set factor to 0.287
ElecMinimize: Iter:   8  F: -2005.873966281142657  |grad|_K:  3.677e-04  alpha:  1.701e-02  linmin: -2.569e-04  t[s]:   1313.14
	FillingsUpdate:  mu: +0.176958270  nElectrons: 348.000000  magneticMoment: [ Abs: 26.37584  Tot: +0.00000 ]
	SubspaceRotationAdjust: set factor to 0.246
ElecMinimize: Iter:   9  F: -2006.648175387773563  |grad|_K:  3.776e-04  alpha:  3.063e-02  linmin:  1.090e-04  t[s]:   1391.52
	FillingsUpdate:  mu: +0.173176696  nElectrons: 348.000000  magneticMoment: [ Abs: 26.89421  Tot: -0.00000 ]
	SubspaceRotationAdjust: set factor to 0.183
ElecMinimize: Iter:  10  F: -2007.355836587404383  |grad|_K:  3.312e-04  alpha:  2.905e-02  linmin:  3.985e-05  t[s]:   1470.90
	FillingsUpdate:  mu: +0.190048787  nElectrons: 348.000000  magneticMoment: [ Abs: 27.13585  Tot: +0.00000 ]
	SubspaceRotationAdjust: set factor to 0.174
ElecMinimize: Iter:  11  F: -2007.818692201399472  |grad|_K:  2.524e-04  alpha:  2.469e-02  linmin: -8.269e-05  t[s]:   1550.47
	FillingsUpdate:  mu: +0.213682787  nElectrons: 348.000000  magneticMoment: [ Abs: 27.19986  Tot: -0.00000 ]
	SubspaceRotationAdjust: set factor to 0.231
ElecMinimize: Iter:  12  F: -2008.255436841886421  |grad|_K:  2.225e-04  alpha:  3.767e-02  linmin: -1.442e-04  t[s]:   1629.90
	FillingsUpdate:  mu: +0.187577297  nElectrons: 348.000000  magneticMoment: [ Abs: 27.21937  Tot: +0.00000 ]
	SubspaceRotationAdjust: set factor to 0.303
ElecMinimize: Iter:  13  F: -2008.668033303827087  |grad|_K:  2.208e-04  alpha:  4.572e-02  linmin: -2.186e-05  t[s]:   1703.83
	FillingsUpdate:  mu: +0.173573866  nElectrons: 348.000000  magneticMoment: [ Abs: 27.17394  Tot: +0.00000 ]
	SubspaceRotationAdjust: set factor to 0.403
ElecMinimize: Iter:  14  F: -2009.026854348425559  |grad|_K:  2.172e-04  alpha:  4.176e-02  linmin: -1.052e-05  t[s]:   1777.88
	FillingsUpdate:  mu: +0.188553271  nElectrons: 348.000000  magneticMoment: [ Abs: 27.20244  Tot: +0.00000 ]
	SubspaceRotationAdjust: set factor to 0.497
ElecMinimize: Iter:  15  F: -2009.278317482795728  |grad|_K:  2.030e-04  alpha:  2.927e-02  linmin: -1.195e-05  t[s]:   1855.62
	FillingsUpdate:  mu: +0.185392874  nElectrons: 348.000000  magneticMoment: [ Abs: 27.28034  Tot: +0.00000 ]
	SubspaceRotationAdjust: set factor to 0.429
ElecMinimize: Iter:  16  F: -2009.491607210210077  |grad|_K:  2.407e-04  alpha:  2.943e-02  linmin: -5.283e-05  t[s]:   1931.32
	FillingsUpdate:  mu: +0.190930286  nElectrons: 348.000000  magneticMoment: [ Abs: 27.67657  Tot: -0.00000 ]
	SubspaceRotationAdjust: set factor to 0.415
ElecMinimize: Iter:  17  F: -2009.662687516133701  |grad|_K:  2.142e-04  alpha:  1.795e-02  linmin:  4.770e-05  t[s]:   2007.11
	FillingsUpdate:  mu: +0.197483411  nElectrons: 348.000000  magneticMoment: [ Abs: 28.43569  Tot: -0.00000 ]
	SubspaceRotationAdjust: set factor to 0.542
ElecMinimize: Iter:  18  F: -2009.853277099124853  |grad|_K:  1.842e-04  alpha:  2.501e-02  linmin:  5.883e-05  t[s]:   2082.97
	FillingsUpdate:  mu: +0.195765198  nElectrons: 348.000000  magneticMoment: [ Abs: 29.19359  Tot: +0.00000 ]
	SubspaceRotationAdjust: set factor to 0.678
ElecMinimize: Iter:  19  F: -2010.010677610397124  |grad|_K:  1.684e-04  alpha:  2.768e-02  linmin:  2.076e-05  t[s]:   2156.90
	FillingsUpdate:  mu: +0.162334701  nElectrons: 348.000000  magneticMoment: [ Abs: 29.99802  Tot: -0.00000 ]
	SubspaceRotationAdjust: set factor to 0.802
ElecMinimize: Iter:  20  F: -2010.139246804138565  |grad|_K:  1.674e-04  alpha:  2.631e-02  linmin:  1.261e-05  t[s]:   2237.87
	FillingsUpdate:  mu: +0.148533519  nElectrons: 348.000000  magneticMoment: [ Abs: 30.90388  Tot: +0.00000 ]
	SubspaceRotationAdjust: set factor to 0.83
ElecMinimize: Iter:  21  F: -2010.260927132695770  |grad|_K:  1.812e-04  alpha:  2.509e-02  linmin:  7.199e-06  t[s]:   2317.36
	FillingsUpdate:  mu: +0.157393286  nElectrons: 348.000000  magneticMoment: [ Abs: 31.70324  Tot: -0.00000 ]
	SubspaceRotationAdjust: set factor to 0.727
ElecMinimize: Iter:  22  F: -2010.411399636213901  |grad|_K:  1.869e-04  alpha:  2.637e-02  linmin: -7.857e-06  t[s]:   2392.64
	FillingsUpdate:  mu: +0.177811175  nElectrons: 348.000000  magneticMoment: [ Abs: 32.01255  Tot: -0.00000 ]
	SubspaceRotationAdjust: set factor to 0.775
ElecMinimize: Iter:  23  F: -2010.527859134679829  |grad|_K:  1.624e-04  alpha:  1.788e-02  linmin:  1.255e-05  t[s]:   2474.80
	FillingsUpdate:  mu: +0.182224568  nElectrons: 348.000000  magneticMoment: [ Abs: 32.20480  Tot: +0.00000 ]
	SubspaceRotationAdjust: set factor to 0.773
ElecMinimize: Iter:  24  F: -2010.613014272944838  |grad|_K:  1.607e-04  alpha:  1.875e-02  linmin:  1.902e-05  t[s]:   2555.03
	FillingsUpdate:  mu: +0.214882373  nElectrons: 348.000000  magneticMoment: [ Abs: 32.35997  Tot: -0.00000 ]
	SubspaceRotationAdjust: set factor to 0.701
ElecMinimize: Iter:  25  F: -2010.681401824127079  |grad|_K:  1.624e-04  alpha:  1.587e-02  linmin: -3.264e-05  t[s]:   2632.55
	FillingsUpdate:  mu: +0.196527359  nElectrons: 348.000000  magneticMoment: [ Abs: 32.58402  Tot: +0.00000 ]
	SubspaceRotationAdjust: set factor to 0.651
ElecMinimize: Iter:  26  F: -2010.813169411042509  |grad|_K:  1.535e-04  alpha:  2.699e-02  linmin: -2.836e-05  t[s]:   2712.59
	FillingsUpdate:  mu: +0.158441007  nElectrons: 348.000000  magneticMoment: [ Abs: 32.54563  Tot: -0.00000 ]
	SubspaceRotationAdjust: set factor to 0.865
ElecMinimize: Iter:  27  F: -2010.897663879373113  |grad|_K:  1.278e-04  alpha:  1.867e-02  linmin:  5.431e-05  t[s]:   2784.13
	FillingsUpdate:  mu: +0.122858161  nElectrons: 348.000000  magneticMoment: [ Abs: 32.69757  Tot: +0.00000 ]
	SubspaceRotationAdjust: set factor to 1.04
ElecMinimize: Iter:  28  F: -2010.953589703585067  |grad|_K:  1.267e-04  alpha:  2.073e-02  linmin: -7.393e-05  t[s]:   2860.00
	FillingsUpdate:  mu: +0.124335189  nElectrons: 348.000000  magneticMoment: [ Abs: 33.26132  Tot: +0.00000 ]
	SubspaceRotationAdjust: set factor to 1.09
ElecMinimize: Iter:  29  F: -2011.034287608159275  |grad|_K:  1.306e-04  alpha:  2.739e-02  linmin:  1.626e-04  t[s]:   2942.51
	FillingsUpdate:  mu: +0.124431341  nElectrons: 348.000000  magneticMoment: [ Abs: 33.27378  Tot: -0.00000 ]
	SubspaceRotationAdjust: set factor to 1.11
ElecMinimize: Iter:  30  F: -2011.036265519970357  |grad|_K:  1.320e-04  alpha:  4.136e-04  linmin: -6.206e-04  t[s]:   3022.98
ElecMinimize: 	Predicted alpha/alphaT>3.000000, increasing alphaT to 1.240876e-03.
ElecMinimize: 	Predicted alpha/alphaT>3.000000, increasing alphaT to 3.722629e-03.
ElecMinimize: 	Predicted alpha/alphaT>3.000000, increasing alphaT to 1.116789e-02.
ElecMinimize: 	Step increased F by 5.388533e-02, reducing alpha to 1.481402e-03.
	FillingsUpdate:  mu: +0.124310980  nElectrons: 348.000000  magneticMoment: [ Abs: 33.32702  Tot: +0.00000 ]
	SubspaceRotationAdjust: set factor to 1.14
ElecMinimize: Iter:  31  F: -2011.051453332180245  |grad|_K:  1.297e-04  alpha:  1.481e-03  linmin: -1.321e-03  t[s]:   3211.19
ElecMinimize: 	Predicted alpha/alphaT>3.000000, increasing alphaT to 4.444205e-03.
ElecMinimize: 	Predicted alpha/alphaT>3.000000, increasing alphaT to 1.333262e-02.
	FillingsUpdate:  mu: +0.118673614  nElectrons: 348.000000  magneticMoment: [ Abs: 33.64123  Tot: -0.00000 ]
	SubspaceRotationAdjust: set factor to 1.38
ElecMinimize: Iter:  32  F: -2011.132647200636711  |grad|_K:  1.084e-04  alpha:  7.280e-03  linmin: -7.489e-04  t[s]:   3356.78
	FillingsUpdate:  mu: +0.122697296  nElectrons: 348.000000  magneticMoment: [ Abs: 33.75825  Tot: +0.00000 ]
	SubspaceRotationAdjust: set factor to 1.6
ElecMinimize: Iter:  33  F: -2011.147185878719483  |grad|_K:  1.053e-04  alpha:  3.218e-03  linmin: -2.530e-04  t[s]:   3434.19
	FillingsUpdate:  mu: +0.124169055  nElectrons: 348.000000  magneticMoment: [ Abs: 33.81622  Tot: +0.00000 ]
	SubspaceRotationAdjust: set factor to 1.64
ElecMinimize: Iter:  34  F: -2011.152008849674985  |grad|_K:  1.073e-04  alpha:  1.864e-03  linmin: -2.911e-05  t[s]:   3513.92
	FillingsUpdate:  mu: +0.124131504  nElectrons: 348.000000  magneticMoment: [ Abs: 33.84794  Tot: +0.00000 ]
	SubspaceRotationAdjust: set factor to 1.58
ElecMinimize: Iter:  35  F: -2011.154673057230184  |grad|_K:  1.077e-04  alpha:  1.248e-03  linmin: -1.436e-06  t[s]:   3591.53
	FillingsUpdate:  mu: +0.123858338  nElectrons: 348.000000  magneticMoment: [ Abs: 33.86665  Tot: +0.00000 ]
	SubspaceRotationAdjust: set factor to 1.49
ElecMinimize: Iter:  36  F: -2011.156849209308575  |grad|_K:  1.060e-04  alpha:  1.060e-03  linmin:  2.212e-05  t[s]:   3672.92
	FillingsUpdate:  mu: +0.124869826  nElectrons: 348.000000  magneticMoment: [ Abs: 33.87537  Tot: +0.00000 ]
	SubspaceRotationAdjust: set factor to 1.39
ElecMinimize: Iter:  37  F: -2011.158637809316815  |grad|_K:  1.033e-04  alpha:  9.191e-04  linmin:  2.356e-05  t[s]:   3752.57
	FillingsUpdate:  mu: +0.128837290  nElectrons: 348.000000  magneticMoment: [ Abs: 33.87757  Tot: -0.00000 ]
	SubspaceRotationAdjust: set factor to 1.29
ElecMinimize: Iter:  38  F: -2011.160178202321504  |grad|_K:  1.004e-04  alpha:  8.376e-04  linmin:  2.695e-05  t[s]:   3832.10
	FillingsUpdate:  mu: +0.132839577  nElectrons: 348.000000  magneticMoment: [ Abs: 33.87585  Tot: +0.00000 ]
	SubspaceRotationAdjust: set factor to 1.2
ElecMinimize: Iter:  39  F: -2011.161528086074213  |grad|_K:  9.798e-05  alpha:  7.786e-04  linmin:  2.658e-05  t[s]:   3913.49
	FillingsUpdate:  mu: +0.135968483  nElectrons: 348.000000  magneticMoment: [ Abs: 33.87223  Tot: -0.00000 ]
	SubspaceRotationAdjust: set factor to 1.09
ElecMinimize: Iter:  40  F: -2011.162757074477213  |grad|_K:  9.600e-05  alpha:  7.447e-04  linmin:  2.583e-05  t[s]:   3991.67
	FillingsUpdate:  mu: +0.137890175  nElectrons: 348.000000  magneticMoment: [ Abs: 33.86822  Tot: -0.00000 ]
	SubspaceRotationAdjust: set factor to 0.966
ElecMinimize: Iter:  41  F: -2011.163918639944541  |grad|_K:  9.425e-05  alpha:  7.330e-04  linmin:  2.391e-05  t[s]:   4067.97
	FillingsUpdate:  mu: +0.139030827  nElectrons: 348.000000  magneticMoment: [ Abs: 33.86510  Tot: -0.00000 ]
	SubspaceRotationAdjust: set factor to 0.839
ElecMinimize: Iter:  42  F: -2011.165057962531364  |grad|_K:  9.241e-05  alpha:  7.449e-04  linmin:  2.110e-05  t[s]:   4144.38
	FillingsUpdate:  mu: +0.139703865  nElectrons: 348.000000  magneticMoment: [ Abs: 33.86404  Tot: +0.00000 ]
	SubspaceRotationAdjust: set factor to 0.714
ElecMinimize: Iter:  43  F: -2011.166209780188638  |grad|_K:  9.017e-05  alpha:  7.817e-04  linmin:  1.739e-05  t[s]:   4227.00
	FillingsUpdate:  mu: +0.139964731  nElectrons: 348.000000  magneticMoment: [ Abs: 33.86616  Tot: -0.00000 ]
	SubspaceRotationAdjust: set factor to 0.598
ElecMinimize: Iter:  44  F: -2011.167398392040923  |grad|_K:  8.733e-05  alpha:  8.448e-04  linmin:  1.310e-05  t[s]:   4307.63
	FillingsUpdate:  mu: +0.139770167  nElectrons: 348.000000  magneticMoment: [ Abs: 33.87251  Tot: +0.00000 ]
	SubspaceRotationAdjust: set factor to 0.495
ElecMinimize: Iter:  45  F: -2011.168635859224651  |grad|_K:  8.376e-05  alpha:  9.351e-04  linmin:  8.866e-06  t[s]:   4388.32
	FillingsUpdate:  mu: +0.139184334  nElectrons: 348.000000  magneticMoment: [ Abs: 33.88388  Tot: +0.00000 ]
	SubspaceRotationAdjust: set factor to 0.407
ElecMinimize: Iter:  46  F: -2011.169920444326408  |grad|_K:  7.952e-05  alpha:  1.052e-03  linmin:  5.451e-06  t[s]:   4469.08
	FillingsUpdate:  mu: +0.138408919  nElectrons: 348.000000  magneticMoment: [ Abs: 33.90054  Tot: +0.00000 ]
	SubspaceRotationAdjust: set factor to 0.334
ElecMinimize: Iter:  47  F: -2011.171237589470820  |grad|_K:  7.476e-05  alpha:  1.195e-03  linmin:  3.216e-06  t[s]:   4547.24
	FillingsUpdate:  mu: +0.137545102  nElectrons: 348.000000  magneticMoment: [ Abs: 33.92218  Tot: -0.00000 ]
	SubspaceRotationAdjust: set factor to 0.274
ElecMinimize: Iter:  48  F: -2011.172565208848027  |grad|_K:  6.971e-05  alpha:  1.361e-03  linmin:  1.817e-06  t[s]:   4621.04
	FillingsUpdate:  mu: +0.136479988  nElectrons: 348.000000  magneticMoment: [ Abs: 33.94804  Tot: +0.00000 ]
	SubspaceRotationAdjust: set factor to 0.224
ElecMinimize: Iter:  49  F: -2011.173881281498552  |grad|_K:  6.459e-05  alpha:  1.550e-03  linmin:  4.964e-07  t[s]:   4701.98
	FillingsUpdate:  mu: +0.135141469  nElectrons: 348.000000  magneticMoment: [ Abs: 33.97715  Tot: +0.00000 ]
	SubspaceRotationAdjust: set factor to 0.184
ElecMinimize: Iter:  50  F: -2011.175169176839518  |grad|_K:  5.959e-05  alpha:  1.766e-03  linmin: -1.301e-06  t[s]:   4778.77
	FillingsUpdate:  mu: +0.133613837  nElectrons: 348.000000  magneticMoment: [ Abs: 34.00859  Tot: -0.00000 ]
	SubspaceRotationAdjust: set factor to 0.152
ElecMinimize: Iter:  51  F: -2011.176418781752318  |grad|_K:  5.486e-05  alpha:  2.012e-03  linmin: -3.660e-06  t[s]:   4861.57
	FillingsUpdate:  mu: +0.132341073  nElectrons: 348.000000  magneticMoment: [ Abs: 34.04159  Tot: +0.00000 ]
	SubspaceRotationAdjust: set factor to 0.126
	SubspaceRotationAdjust: resetting CG because factor has changed by 0.125604
ElecMinimize: 	State modified externally: resetting search direction.
ElecMinimize: Iter:  52  F: -2011.177625304803087  |grad|_K:  4.780e-05  alpha:  2.291e-03
ElecMinimize: 	Predicted alpha/alphaT>3.000000, increasing alphaT to 6.871530e-03.
ElecMinimize: 	Predicted alpha/alphaT>3.000000, increasing alphaT to 2.061459e-02.
ElecMinimize: 	Predicted alpha/alphaT>3.000000, increasing alphaT to 6.184377e-02.
	FillingsUpdate:  mu: +0.133186038  nElectrons: 348.000000  magneticMoment: [ Abs: 34.41588  Tot: +0.00000 ]
	SubspaceRotationAdjust: set factor to 0.126
ElecMinimize: Iter:  53  F: -2011.346565682534901  |grad|_K:  3.595e-05  alpha:  4.119e-01  linmin: -4.160e-03  t[s]:   5100.72
	FillingsUpdate:  mu: +0.132963021  nElectrons: 348.000000  magneticMoment: [ Abs: 34.64887  Tot: +0.00000 ]
	SubspaceRotationAdjust: set factor to 0.15
ElecMinimize: Iter:  54  F: -2011.447750864176669  |grad|_K:  2.911e-05  alpha:  4.310e-01  linmin: -3.552e-03  t[s]:   5175.84
	FillingsUpdate:  mu: +0.133054678  nElectrons: 348.000000  magneticMoment: [ Abs: 35.02435  Tot: +0.00000 ]
	SubspaceRotationAdjust: set factor to 0.152
ElecMinimize: Iter:  55  F: -2011.512155075086412  |grad|_K:  2.283e-05  alpha:  4.111e-01  linmin: -1.382e-03  t[s]:   5259.05
	FillingsUpdate:  mu: +0.126162832  nElectrons: 348.000000  magneticMoment: [ Abs: 35.30989  Tot: +0.00000 ]
	SubspaceRotationAdjust: set factor to 0.166
ElecMinimize: Iter:  56  F: -2011.552173531982135  |grad|_K:  1.820e-05  alpha:  4.243e-01  linmin: -2.112e-03  t[s]:   5336.65
	FillingsUpdate:  mu: +0.130311298  nElectrons: 348.000000  magneticMoment: [ Abs: 35.74895  Tot: +0.00000 ]
	SubspaceRotationAdjust: set factor to 0.168
ElecMinimize: Iter:  57  F: -2011.577031935163404  |grad|_K:  1.572e-05  alpha:  3.997e-01  linmin:  1.164e-04  t[s]:   5416.25
	FillingsUpdate:  mu: +0.136090567  nElectrons: 348.000000  magneticMoment: [ Abs: 36.05933  Tot: -0.00000 ]
	SubspaceRotationAdjust: set factor to 0.178
ElecMinimize: Iter:  58  F: -2011.595883000899676  |grad|_K:  1.234e-05  alpha:  4.342e-01  linmin: -1.148e-03  t[s]:   5496.19
	FillingsUpdate:  mu: +0.133450269  nElectrons: 348.000000  magneticMoment: [ Abs: 36.45598  Tot: -0.00000 ]
	SubspaceRotationAdjust: set factor to 0.201
ElecMinimize: Iter:  59  F: -2011.608410913997659  |grad|_K:  1.107e-05  alpha:  4.400e-01  linmin: -8.504e-05  t[s]:   5579.84
	FillingsUpdate:  mu: +0.132356058  nElectrons: 348.000000  magneticMoment: [ Abs: 36.86666  Tot: -0.00000 ]
	SubspaceRotationAdjust: set factor to 0.225
ElecMinimize: Iter:  60  F: -2011.618189793217653  |grad|_K:  1.157e-05  alpha:  4.535e-01  linmin: -1.617e-05  t[s]:   5659.75
	FillingsUpdate:  mu: +0.131323793  nElectrons: 348.000000  magneticMoment: [ Abs: 37.62187  Tot: -0.00000 ]
	SubspaceRotationAdjust: set factor to 0.258
ElecMinimize: Iter:  61  F: -2011.629816156524839  |grad|_K:  1.365e-05  alpha:  5.007e-01  linmin:  4.240e-04  t[s]:   5738.08
	FillingsUpdate:  mu: +0.134772976  nElectrons: 348.000000  magneticMoment: [ Abs: 38.52638  Tot: -0.00000 ]
	SubspaceRotationAdjust: set factor to 0.3
ElecMinimize: Iter:  62  F: -2011.641628120592713  |grad|_K:  1.292e-05  alpha:  3.997e-01  linmin: -3.525e-04  t[s]:   5819.01
	FillingsUpdate:  mu: +0.141470794  nElectrons: 348.000000  magneticMoment: [ Abs: 39.41866  Tot: -0.00000 ]
	SubspaceRotationAdjust: set factor to 0.338
ElecMinimize: Iter:  63  F: -2011.654732956094904  |grad|_K:  1.328e-05  alpha:  4.255e-01  linmin: -4.683e-04  t[s]:   5901.69
	FillingsUpdate:  mu: +0.143500163  nElectrons: 348.000000  magneticMoment: [ Abs: 40.03667  Tot: +0.00000 ]
	SubspaceRotationAdjust: set factor to 0.279
ElecMinimize: Iter:  64  F: -2011.665434739360080  |grad|_K:  1.421e-05  alpha:  2.718e-01  linmin: -6.498e-04  t[s]:   5974.17
	FillingsUpdate:  mu: +0.148345282  nElectrons: 348.000000  magneticMoment: [ Abs: 40.62512  Tot: -0.00000 ]
	SubspaceRotationAdjust: set factor to 0.269
ElecMinimize: Iter:  65  F: -2011.673101123168408  |grad|_K:  1.567e-05  alpha:  2.101e-01  linmin: -1.939e-04  t[s]:   6054.50
	FillingsUpdate:  mu: +0.143879498  nElectrons: 348.000000  magneticMoment: [ Abs: 40.93480  Tot: +0.00000 ]
	SubspaceRotationAdjust: set factor to 0.36
ElecMinimize: Iter:  66  F: -2011.681674906657236  |grad|_K:  1.264e-05  alpha:  1.283e-01  linmin: -3.846e-03  t[s]:   6132.55
	FillingsUpdate:  mu: +0.143271529  nElectrons: 348.000000  magneticMoment: [ Abs: 40.99512  Tot: +0.00000 ]
	SubspaceRotationAdjust: set factor to 0.433
ElecMinimize: Iter:  67  F: -2011.683974489151296  |grad|_K:  1.207e-05  alpha:  2.493e-02  linmin: -7.795e-03  t[s]:   6213.66
	FillingsUpdate:  mu: +0.143818810  nElectrons: 348.000000  magneticMoment: [ Abs: 41.20653  Tot: +0.00000 ]
	SubspaceRotationAdjust: set factor to 0.241
ElecMinimize: Iter:  68  F: -2011.685309688460165  |grad|_K:  2.779e-05  alpha:  5.090e-02  linmin:  1.192e-02  t[s]:   6292.17
ElecMinimize: 	Bad step direction: g.d > 0.
ElecMinimize: 	Undoing step.
ElecMinimize: 	Step failed: resetting search direction.
	FillingsUpdate:  mu: +0.143818810  nElectrons: 348.000000  magneticMoment: [ Abs: 41.20653  Tot: +0.00000 ]
	SubspaceRotationAdjust: set factor to 0.145
ElecMinimize: Iter:  69  F: -2011.685309688460165  |grad|_K:  2.157e-05  alpha:  0.000e+00
	FillingsUpdate:  mu: +0.140902594  nElectrons: 348.000000  magneticMoment: [ Abs: 41.17898  Tot: -0.00000 ]
	SubspaceRotationAdjust: set factor to 0.172
ElecMinimize: Iter:  70  F: -2011.691077322996989  |grad|_K:  6.854e-06  alpha:  6.770e-02  linmin: -1.615e-02  t[s]:   6416.56
ElecMinimize: 	Predicted alpha/alphaT>3.000000, increasing alphaT to 2.031041e-01.
	FillingsUpdate:  mu: +0.146291689  nElectrons: 348.000000  magneticMoment: [ Abs: 41.23449  Tot: +0.00000 ]
	SubspaceRotationAdjust: set factor to 0.129
ElecMinimize: Iter:  71  F: -2011.695206353620733  |grad|_K:  8.926e-06  alpha:  4.164e-01  linmin: -2.263e-03  t[s]:   6524.38
	FillingsUpdate:  mu: +0.142093629  nElectrons: 348.000000  magneticMoment: [ Abs: 41.38332  Tot: -0.00000 ]
	SubspaceRotationAdjust: set factor to 0.134
ElecMinimize: Iter:  72  F: -2011.699747501914544  |grad|_K:  8.379e-06  alpha:  3.013e-01  linmin: -1.021e-04  t[s]:   6597.78
	FillingsUpdate:  mu: +0.140632381  nElectrons: 348.000000  magneticMoment: [ Abs: 41.50548  Tot: -0.00000 ]
	SubspaceRotationAdjust: set factor to 0.165
ElecMinimize: Iter:  73  F: -2011.705550390351391  |grad|_K:  9.788e-06  alpha:  4.702e-01  linmin:  9.732e-05  t[s]:   6678.70
	FillingsUpdate:  mu: +0.139243377  nElectrons: 348.000000  magneticMoment: [ Abs: 41.50274  Tot: -0.00000 ]
	SubspaceRotationAdjust: set factor to 0.174
ElecMinimize: Iter:  74  F: -2011.710839725412143  |grad|_K:  8.347e-06  alpha:  3.317e-01  linmin: -8.256e-05  t[s]:   6761.08
	FillingsUpdate:  mu: +0.137202705  nElectrons: 348.000000  magneticMoment: [ Abs: 41.51032  Tot: -0.00000 ]
	SubspaceRotationAdjust: set factor to 0.199
ElecMinimize: Iter:  75  F: -2011.715032934026794  |grad|_K:  6.808e-06  alpha:  3.397e-01  linmin:  3.676e-05  t[s]:   6841.53
	FillingsUpdate:  mu: +0.141275043  nElectrons: 348.000000  magneticMoment: [ Abs: 41.52467  Tot: -0.00000 ]
	SubspaceRotationAdjust: set factor to 0.21
ElecMinimize: Iter:  76  F: -2011.717819458784788  |grad|_K:  6.561e-06  alpha:  3.458e-01  linmin:  1.161e-04  t[s]:   6924.33
	FillingsUpdate:  mu: +0.137318786  nElectrons: 348.000000  magneticMoment: [ Abs: 41.48148  Tot: -0.00000 ]
	SubspaceRotationAdjust: set factor to 0.228
ElecMinimize: Iter:  77  F: -2011.719735880132703  |grad|_K:  5.013e-06  alpha:  2.651e-01  linmin: -1.729e-04  t[s]:   7003.71
	FillingsUpdate:  mu: +0.137932802  nElectrons: 348.000000  magneticMoment: [ Abs: 41.47233  Tot: -0.00000 ]
	SubspaceRotationAdjust: set factor to 0.269
ElecMinimize: Iter:  78  F: -2011.721354469410471  |grad|_K:  4.242e-06  alpha:  3.596e-01  linmin: -1.411e-04  t[s]:   7080.67
	FillingsUpdate:  mu: +0.139384799  nElectrons: 348.000000  magneticMoment: [ Abs: 41.49270  Tot: -0.00000 ]
	SubspaceRotationAdjust: set factor to 0.277
ElecMinimize: Iter:  79  F: -2011.722329139041221  |grad|_K:  3.637e-06  alpha:  3.049e-01  linmin:  8.113e-05  t[s]:   7162.31
	FillingsUpdate:  mu: +0.139172653  nElectrons: 348.000000  magneticMoment: [ Abs: 41.48057  Tot: -0.00000 ]
	SubspaceRotationAdjust: set factor to 0.268
ElecMinimize: Iter:  80  F: -2011.722900125978413  |grad|_K:  3.217e-06  alpha:  2.391e-01  linmin:  2.450e-04  t[s]:   7245.28
	FillingsUpdate:  mu: +0.138419655  nElectrons: 348.000000  magneticMoment: [ Abs: 41.49777  Tot: +0.00000 ]
	SubspaceRotationAdjust: set factor to 0.376
ElecMinimize: Iter:  81  F: -2011.723421099547750  |grad|_K:  2.669e-06  alpha:  2.929e-01  linmin: -4.593e-05  t[s]:   7319.43
	FillingsUpdate:  mu: +0.139045207  nElectrons: 348.000000  magneticMoment: [ Abs: 41.51632  Tot: +0.00000 ]
	SubspaceRotationAdjust: set factor to 0.307
ElecMinimize: Iter:  82  F: -2011.723761517864205  |grad|_K:  3.256e-06  alpha:  2.718e-01  linmin:  1.013e-04  t[s]:   7396.27
	FillingsUpdate:  mu: +0.137115737  nElectrons: 348.000000  magneticMoment: [ Abs: 41.50588  Tot: +0.00000 ]
	SubspaceRotationAdjust: set factor to 0.263
ElecMinimize: Iter:  83  F: -2011.724016894292618  |grad|_K:  2.354e-06  alpha:  1.393e-01  linmin: -1.117e-05  t[s]:   7475.68
	FillingsUpdate:  mu: +0.137285294  nElectrons: 348.000000  magneticMoment: [ Abs: 41.51473  Tot: -0.00000 ]
	SubspaceRotationAdjust: set factor to 0.341
ElecMinimize: Iter:  84  F: -2011.724323342093840  |grad|_K:  2.084e-06  alpha:  3.158e-01  linmin:  1.046e-06  t[s]:   7559.11
	FillingsUpdate:  mu: +0.138300459  nElectrons: 348.000000  magneticMoment: [ Abs: 41.53126  Tot: +0.00000 ]
	SubspaceRotationAdjust: set factor to 0.299
ElecMinimize: Iter:  85  F: -2011.724487983786275  |grad|_K:  2.342e-06  alpha:  2.151e-01  linmin:  6.542e-06  t[s]:   7641.90
	FillingsUpdate:  mu: +0.137352737  nElectrons: 348.000000  magneticMoment: [ Abs: 41.52820  Tot: -0.00000 ]
	SubspaceRotationAdjust: set factor to 0.257
ElecMinimize: Iter:  86  F: -2011.724646182121887  |grad|_K:  1.712e-06  alpha:  1.643e-01  linmin:  2.178e-05  t[s]:   7717.49
	FillingsUpdate:  mu: +0.136815062  nElectrons: 348.000000  magneticMoment: [ Abs: 41.53339  Tot: +0.00000 ]
	SubspaceRotationAdjust: set factor to 0.299
ElecMinimize: Iter:  87  F: -2011.724812823817729  |grad|_K:  1.425e-06  alpha:  3.255e-01  linmin: -2.403e-05  t[s]:   7791.87
	FillingsUpdate:  mu: +0.137129513  nElectrons: 348.000000  magneticMoment: [ Abs: 41.54321  Tot: -0.00000 ]
	SubspaceRotationAdjust: set factor to 0.306
ElecMinimize: Iter:  88  F: -2011.724924486949249  |grad|_K:  1.435e-06  alpha:  3.133e-01  linmin:  1.005e-05  t[s]:   7870.60
	FillingsUpdate:  mu: +0.137061291  nElectrons: 348.000000  magneticMoment: [ Abs: 41.54082  Tot: +0.00000 ]
	SubspaceRotationAdjust: set factor to 0.247
ElecMinimize: Iter:  89  F: -2011.724981927606223  |grad|_K:  1.292e-06  alpha:  1.585e-01  linmin: -3.996e-05  t[s]:   7945.09
	FillingsUpdate:  mu: +0.137096201  nElectrons: 348.000000  magneticMoment: [ Abs: 41.54968  Tot: -0.00000 ]
	SubspaceRotationAdjust: set factor to 0.268
ElecMinimize: Iter:  90  F: -2011.725058841667760  |grad|_K:  1.058e-06  alpha:  2.626e-01  linmin:  2.248e-05  t[s]:   8027.58
	FillingsUpdate:  mu: +0.137026203  nElectrons: 348.000000  magneticMoment: [ Abs: 41.55334  Tot: +0.00000 ]
	SubspaceRotationAdjust: set factor to 0.324
ElecMinimize: Iter:  91  F: -2011.725131181512779  |grad|_K:  1.016e-06  alpha:  3.700e-01  linmin: -9.319e-07  t[s]:   8107.59
	FillingsUpdate:  mu: +0.137124723  nElectrons: 348.000000  magneticMoment: [ Abs: 41.55222  Tot: +0.00000 ]
	SubspaceRotationAdjust: set factor to 0.318
ElecMinimize: Iter:  92  F: -2011.725193873794751  |grad|_K:  1.266e-06  alpha:  3.470e-01  linmin:  1.111e-06  t[s]:   8186.97
	FillingsUpdate:  mu: +0.137234098  nElectrons: 348.000000  magneticMoment: [ Abs: 41.55993  Tot: +0.00000 ]
	SubspaceRotationAdjust: set factor to 0.256
ElecMinimize: Iter:  93  F: -2011.725238947017488  |grad|_K:  1.211e-06  alpha:  1.612e-01  linmin:  1.029e-05  t[s]:   8261.73
	FillingsUpdate:  mu: +0.137128484  nElectrons: 348.000000  magneticMoment: [ Abs: 41.56065  Tot: +0.00000 ]
	SubspaceRotationAdjust: set factor to 0.275
ElecMinimize: Iter:  94  F: -2011.725314195069586  |grad|_K:  1.085e-06  alpha:  2.937e-01  linmin:  4.921e-06  t[s]:   8342.55
	FillingsUpdate:  mu: +0.136985176  nElectrons: 348.000000  magneticMoment: [ Abs: 41.56324  Tot: -0.00000 ]
	SubspaceRotationAdjust: set factor to 0.308
ElecMinimize: Iter:  95  F: -2011.725395508301517  |grad|_K:  1.110e-06  alpha:  3.952e-01  linmin: -3.919e-07  t[s]:   8423.74
	FillingsUpdate:  mu: +0.137177958  nElectrons: 348.000000  magneticMoment: [ Abs: 41.57148  Tot: +0.00000 ]
	SubspaceRotationAdjust: set factor to 0.292
ElecMinimize: Iter:  96  F: -2011.725464634545688  |grad|_K:  1.394e-06  alpha:  3.207e-01  linmin:  4.044e-06  t[s]:   8495.30
	FillingsUpdate:  mu: +0.136778219  nElectrons: 348.000000  magneticMoment: [ Abs: 41.56933  Tot: +0.00000 ]
	SubspaceRotationAdjust: set factor to 0.237
ElecMinimize: Iter:  97  F: -2011.725520060147346  |grad|_K:  1.219e-06  alpha:  1.620e-01  linmin: -1.938e-05  t[s]:   8571.96
	FillingsUpdate:  mu: +0.136730012  nElectrons: 348.000000  magneticMoment: [ Abs: 41.57758  Tot: -0.00000 ]
	SubspaceRotationAdjust: set factor to 0.27
ElecMinimize: Iter:  98  F: -2011.725611167651323  |grad|_K:  1.217e-06  alpha:  3.498e-01  linmin:  1.728e-05  t[s]:   8654.25
	FillingsUpdate:  mu: +0.136935580  nElectrons: 348.000000  magneticMoment: [ Abs: 41.58525  Tot: -0.00000 ]
	SubspaceRotationAdjust: set factor to 0.304
ElecMinimize: Iter:  99  F: -2011.725715338866848  |grad|_K:  1.368e-06  alpha:  4.038e-01  linmin:  1.054e-05  t[s]:   8733.00
	FillingsUpdate:  mu: +0.136984788  nElectrons: 348.000000  magneticMoment: [ Abs: 41.58309  Tot: -0.00000 ]
	SubspaceRotationAdjust: set factor to 0.275
ElecMinimize: Iter: 100  F: -2011.725798885110862  |grad|_K:  1.727e-06  alpha:  2.549e-01  linmin: -7.698e-06  t[s]:   8815.97
	FillingsUpdate:  mu: +0.136952949  nElectrons: 348.000000  magneticMoment: [ Abs: 41.59485  Tot: -0.00000 ]
	SubspaceRotationAdjust: set factor to 0.255
ElecMinimize: Iter: 101  F: -2011.725908933647588  |grad|_K:  1.563e-06  alpha:  2.107e-01  linmin: -1.058e-05  t[s]:   8893.13
	FillingsUpdate:  mu: +0.136827349  nElectrons: 348.000000  magneticMoment: [ Abs: 41.60252  Tot: -0.00000 ]
	SubspaceRotationAdjust: set factor to 0.293
ElecMinimize: Iter: 102  F: -2011.726085824839629  |grad|_K:  1.723e-06  alpha:  4.149e-01  linmin:  8.934e-06  t[s]:   8974.07
	FillingsUpdate:  mu: +0.136764032  nElectrons: 348.000000  magneticMoment: [ Abs: 41.60830  Tot: +0.00000 ]
	SubspaceRotationAdjust: set factor to 0.324
ElecMinimize: Iter: 103  F: -2011.726306409030485  |grad|_K:  2.074e-06  alpha:  4.259e-01  linmin:  1.834e-06  t[s]:   9050.17
	FillingsUpdate:  mu: +0.137710872  nElectrons: 348.000000  magneticMoment: [ Abs: 41.62410  Tot: -0.00000 ]
	SubspaceRotationAdjust: set factor to 0.299
ElecMinimize: Iter: 104  F: -2011.726510863239810  |grad|_K:  2.667e-06  alpha:  2.733e-01  linmin: -3.663e-05  t[s]:   9131.94
	FillingsUpdate:  mu: +0.136737623  nElectrons: 348.000000  magneticMoment: [ Abs: 41.62260  Tot: +0.00000 ]
	SubspaceRotationAdjust: set factor to 0.266
ElecMinimize: Iter: 105  F: -2011.726743382889708  |grad|_K:  2.397e-06  alpha:  1.832e-01  linmin: -3.663e-05  t[s]:   9211.30
	FillingsUpdate:  mu: +0.137150708  nElectrons: 348.000000  magneticMoment: [ Abs: 41.63789  Tot: -0.00000 ]
	SubspaceRotationAdjust: set factor to 0.321
ElecMinimize: Iter: 106  F: -2011.727068226791744  |grad|_K:  2.356e-06  alpha:  3.223e-01  linmin:  1.549e-05  t[s]:   9285.84
	FillingsUpdate:  mu: +0.137908522  nElectrons: 348.000000  magneticMoment: [ Abs: 41.65387  Tot: +0.00000 ]
	SubspaceRotationAdjust: set factor to 0.345
ElecMinimize: Iter: 107  F: -2011.727355663473418  |grad|_K:  2.569e-06  alpha:  2.975e-01  linmin: -1.678e-05  t[s]:   9365.84
	FillingsUpdate:  mu: +0.137170567  nElectrons: 348.000000  magneticMoment: [ Abs: 41.64885  Tot: +0.00000 ]
	SubspaceRotationAdjust: set factor to 0.321
ElecMinimize: Iter: 108  F: -2011.727560373538154  |grad|_K:  2.572e-06  alpha:  1.748e-01  linmin: -1.817e-05  t[s]:   9444.29
	FillingsUpdate:  mu: +0.136998570  nElectrons: 348.000000  magneticMoment: [ Abs: 41.65886  Tot: -0.00000 ]
	SubspaceRotationAdjust: set factor to 0.384
ElecMinimize: Iter: 109  F: -2011.727808348017788  |grad|_K:  2.192e-06  alpha:  2.131e-01  linmin: -8.712e-06  t[s]:   9521.24
	FillingsUpdate:  mu: +0.137114770  nElectrons: 348.000000  magneticMoment: [ Abs: 41.66382  Tot: +0.00000 ]
	SubspaceRotationAdjust: set factor to 0.494
ElecMinimize: Iter: 110  F: -2011.728058208648463  |grad|_K:  2.177e-06  alpha:  2.971e-01  linmin:  1.756e-05  t[s]:   9601.26
	FillingsUpdate:  mu: +0.137039341  nElectrons: 348.000000  magneticMoment: [ Abs: 41.65933  Tot: -0.00000 ]
	SubspaceRotationAdjust: set factor to 0.392
ElecMinimize: Iter: 111  F: -2011.728243053926462  |grad|_K:  2.708e-06  alpha:  2.235e-01  linmin:  9.181e-06  t[s]:   9674.85
	FillingsUpdate:  mu: +0.137346379  nElectrons: 348.000000  magneticMoment: [ Abs: 41.67075  Tot: +0.00000 ]
	SubspaceRotationAdjust: set factor to 0.381
ElecMinimize: Iter: 112  F: -2011.728385485294211  |grad|_K:  2.244e-06  alpha:  1.124e-01  linmin:  1.848e-05  t[s]:   9756.29
	FillingsUpdate:  mu: +0.136924014  nElectrons: 348.000000  magneticMoment: [ Abs: 41.67171  Tot: +0.00000 ]
	SubspaceRotationAdjust: set factor to 0.532
ElecMinimize: Iter: 113  F: -2011.728598410505356  |grad|_K:  2.038e-06  alpha:  2.439e-01  linmin:  2.636e-05  t[s]:   9835.46
	FillingsUpdate:  mu: +0.136885417  nElectrons: 348.000000  magneticMoment: [ Abs: 41.66912  Tot: -0.00000 ]
	SubspaceRotationAdjust: set factor to 0.423
ElecMinimize: Iter: 114  F: -2011.728767759085940  |grad|_K:  2.626e-06  alpha:  2.349e-01  linmin:  1.681e-05  t[s]:   9919.29
	FillingsUpdate:  mu: +0.137300985  nElectrons: 348.000000  magneticMoment: [ Abs: 41.68029  Tot: -0.00000 ]
	SubspaceRotationAdjust: set factor to 0.402
ElecMinimize: Iter: 115  F: -2011.728879680946193  |grad|_K:  2.169e-06  alpha:  9.426e-02  linmin:  2.620e-05  t[s]:   9998.25
	FillingsUpdate:  mu: +0.137238310  nElectrons: 348.000000  magneticMoment: [ Abs: 41.68310  Tot: -0.00000 ]
	SubspaceRotationAdjust: set factor to 0.586
ElecMinimize: Iter: 116  F: -2011.729067910654521  |grad|_K:  2.045e-06  alpha:  2.320e-01  linmin:  2.939e-05  t[s]:  10078.21
	FillingsUpdate:  mu: +0.137084057  nElectrons: 348.000000  magneticMoment: [ Abs: 41.67757  Tot: +0.00000 ]
	SubspaceRotationAdjust: set factor to 0.439
ElecMinimize: Iter: 117  F: -2011.729188605132094  |grad|_K:  2.727e-06  alpha:  1.663e-01  linmin: -1.037e-06  t[s]:  10161.03
	FillingsUpdate:  mu: +0.137262264  nElectrons: 348.000000  magneticMoment: [ Abs: 41.68642  Tot: -0.00000 ]
	SubspaceRotationAdjust: set factor to 0.477
ElecMinimize: Iter: 118  F: -2011.729315330473582  |grad|_K:  1.995e-06  alpha:  9.737e-02  linmin: -2.956e-06  t[s]:  10241.05
	FillingsUpdate:  mu: +0.137592317  nElectrons: 348.000000  magneticMoment: [ Abs: 41.69217  Tot: -0.00000 ]
	SubspaceRotationAdjust: set factor to 0.595
ElecMinimize: Iter: 119  F: -2011.729488354336581  |grad|_K:  2.083e-06  alpha:  2.497e-01  linmin:  2.292e-05  t[s]:  10319.77
	FillingsUpdate:  mu: +0.137455040  nElectrons: 348.000000  magneticMoment: [ Abs: 41.68918  Tot: -0.00000 ]
	SubspaceRotationAdjust: set factor to 0.467
ElecMinimize: Iter: 120  F: -2011.729594176641740  |grad|_K:  2.574e-06  alpha:  1.402e-01  linmin: -5.183e-06  t[s]:  10401.65
	FillingsUpdate:  mu: +0.137581925  nElectrons: 348.000000  magneticMoment: [ Abs: 41.69917  Tot: +0.00000 ]
	SubspaceRotationAdjust: set factor to 0.547
ElecMinimize: Iter: 121  F: -2011.729722115486538  |grad|_K:  1.925e-06  alpha:  1.103e-01  linmin: -3.107e-06  t[s]:  10480.55
	FillingsUpdate:  mu: +0.137544767  nElectrons: 348.000000  magneticMoment: [ Abs: 41.70551  Tot: -0.00000 ]
	SubspaceRotationAdjust: set factor to 0.65
ElecMinimize: Iter: 122  F: -2011.729878366821822  |grad|_K:  1.954e-06  alpha:  2.410e-01  linmin:  4.440e-06  t[s]:  10559.23
	FillingsUpdate:  mu: +0.137521487  nElectrons: 348.000000  magneticMoment: [ Abs: 41.70612  Tot: +0.00000 ]
	SubspaceRotationAdjust: set factor to 0.474
ElecMinimize: Iter: 123  F: -2011.729987930933476  |grad|_K:  2.598e-06  alpha:  1.634e-01  linmin: -1.276e-06  t[s]:  10638.38
	FillingsUpdate:  mu: +0.137796016  nElectrons: 348.000000  magneticMoment: [ Abs: 41.71774  Tot: +0.00000 ]
	SubspaceRotationAdjust: set factor to 0.519
ElecMinimize: Iter: 124  F: -2011.730092421752943  |grad|_K:  1.907e-06  alpha:  8.963e-02  linmin:  9.777e-06  t[s]:  10718.52
	FillingsUpdate:  mu: +0.137970609  nElectrons: 348.000000  magneticMoment: [ Abs: 41.72568  Tot: +0.00000 ]
	SubspaceRotationAdjust: set factor to 0.628
ElecMinimize: Iter: 125  F: -2011.730235810706517  |grad|_K:  1.857e-06  alpha:  2.267e-01  linmin:  7.292e-06  t[s]:  10792.71
	FillingsUpdate:  mu: +0.137904045  nElectrons: 348.000000  magneticMoment: [ Abs: 41.72463  Tot: +0.00000 ]
	SubspaceRotationAdjust: set factor to 0.473
ElecMinimize: Iter: 126  F: -2011.730323028036310  |grad|_K:  2.386e-06  alpha:  1.432e-01  linmin: -9.270e-06  t[s]:  10871.83
	FillingsUpdate:  mu: +0.137879711  nElectrons: 348.000000  magneticMoment: [ Abs: 41.73301  Tot: -0.00000 ]
	SubspaceRotationAdjust: set factor to 0.556
ElecMinimize: Iter: 127  F: -2011.730421265716132  |grad|_K:  1.725e-06  alpha:  9.838e-02  linmin: -5.371e-06  t[s]:  10945.59
	FillingsUpdate:  mu: +0.137949316  nElectrons: 348.000000  magneticMoment: [ Abs: 41.73854  Tot: -0.00000 ]
	SubspaceRotationAdjust: set factor to 0.605
ElecMinimize: Iter: 128  F: -2011.730541294874229  |grad|_K:  1.805e-06  alpha:  2.302e-01  linmin: -6.150e-06  t[s]:  11024.49
	FillingsUpdate:  mu: +0.137834445  nElectrons: 348.000000  magneticMoment: [ Abs: 41.73514  Tot: -0.00000 ]
	SubspaceRotationAdjust: set factor to 0.481
ElecMinimize: Iter: 129  F: -2011.730606247060450  |grad|_K:  2.104e-06  alpha:  1.116e-01  linmin: -2.834e-05  t[s]:  11101.93
	FillingsUpdate:  mu: +0.137782659  nElectrons: 348.000000  magneticMoment: [ Abs: 41.73900  Tot: +0.00000 ]
	SubspaceRotationAdjust: set factor to 0.611
ElecMinimize: Iter: 130  F: -2011.730699016479321  |grad|_K:  1.523e-06  alpha:  1.185e-01  linmin: -1.411e-06  t[s]:  11178.14
	FillingsUpdate:  mu: +0.137820647  nElectrons: 348.000000  magneticMoment: [ Abs: 41.73769  Tot: +0.00000 ]
	SubspaceRotationAdjust: set factor to 0.638
ElecMinimize: Iter: 131  F: -2011.730792389675798  |grad|_K:  1.636e-06  alpha:  2.299e-01  linmin: -5.190e-06  t[s]:  11254.85
	FillingsUpdate:  mu: +0.137680526  nElectrons: 348.000000  magneticMoment: [ Abs: 41.73123  Tot: +0.00000 ]
	SubspaceRotationAdjust: set factor to 0.505
ElecMinimize: Iter: 132  F: -2011.730840513241219  |grad|_K:  1.896e-06  alpha:  1.008e-01  linmin: -2.843e-05  t[s]:  11333.18
	FillingsUpdate:  mu: +0.137746255  nElectrons: 348.000000  magneticMoment: [ Abs: 41.73122  Tot: +0.00000 ]
	SubspaceRotationAdjust: set factor to 0.638
ElecMinimize: Iter: 133  F: -2011.730912900628937  |grad|_K:  1.334e-06  alpha:  1.138e-01  linmin: -5.344e-06  t[s]:  11409.09
	FillingsUpdate:  mu: +0.137820238  nElectrons: 348.000000  magneticMoment: [ Abs: 41.72682  Tot: -0.00000 ]
	SubspaceRotationAdjust: set factor to 0.669
ElecMinimize: Iter: 134  F: -2011.730983446741448  |grad|_K:  1.390e-06  alpha:  2.259e-01  linmin: -4.837e-06  t[s]:  11484.24
	FillingsUpdate:  mu: +0.137688187  nElectrons: 348.000000  magneticMoment: [ Abs: 41.71875  Tot: +0.00000 ]
	SubspaceRotationAdjust: set factor to 0.503
ElecMinimize: Iter: 135  F: -2011.731017766136347  |grad|_K:  1.662e-06  alpha:  1.003e-01  linmin: -1.834e-05  t[s]:  11560.50
	FillingsUpdate:  mu: +0.137601059  nElectrons: 348.000000  magneticMoment: [ Abs: 41.71557  Tot: -0.00000 ]
	SubspaceRotationAdjust: set factor to 0.63
ElecMinimize: Iter: 136  F: -2011.731067296078209  |grad|_K:  1.122e-06  alpha:  1.019e-01  linmin: -3.599e-06  t[s]:  11635.11
	FillingsUpdate:  mu: +0.137647130  nElectrons: 348.000000  magneticMoment: [ Abs: 41.71015  Tot: +0.00000 ]
	SubspaceRotationAdjust: set factor to 0.648
ElecMinimize: Iter: 137  F: -2011.731116211102517  |grad|_K:  1.166e-06  alpha:  2.225e-01  linmin:  1.600e-05  t[s]:  11710.79
	FillingsUpdate:  mu: +0.137528242  nElectrons: 348.000000  magneticMoment: [ Abs: 41.70288  Tot: -0.00000 ]
	SubspaceRotationAdjust: set factor to 0.51
ElecMinimize: Iter: 138  F: -2011.731138918681381  |grad|_K:  1.338e-06  alpha:  9.622e-02  linmin:  5.864e-06  t[s]:  11785.95
	FillingsUpdate:  mu: +0.137462987  nElectrons: 348.000000  magneticMoment: [ Abs: 41.69940  Tot: +0.00000 ]
	SubspaceRotationAdjust: set factor to 0.624
ElecMinimize: Iter: 139  F: -2011.731172226999206  |grad|_K:  9.242e-07  alpha:  1.068e-01  linmin:  2.457e-05  t[s]:  11864.38
	FillingsUpdate:  mu: +0.137403270  nElectrons: 348.000000  magneticMoment: [ Abs: 41.69274  Tot: +0.00000 ]
	SubspaceRotationAdjust: set factor to 0.65
ElecMinimize: Iter: 140  F: -2011.731204159411618  |grad|_K:  9.491e-07  alpha:  2.165e-01  linmin:  1.488e-05  t[s]:  11940.49
	FillingsUpdate:  mu: +0.137295232  nElectrons: 348.000000  magneticMoment: [ Abs: 41.68606  Tot: -0.00000 ]
	SubspaceRotationAdjust: set factor to 0.495
ElecMinimize: Iter: 141  F: -2011.731220283261564  |grad|_K:  1.125e-06  alpha:  1.036e-01  linmin:  8.725e-06  t[s]:  12016.76
	FillingsUpdate:  mu: +0.137332663  nElectrons: 348.000000  magneticMoment: [ Abs: 41.68411  Tot: -0.00000 ]
	SubspaceRotationAdjust: set factor to 0.59
ElecMinimize: Iter: 142  F: -2011.731242204931732  |grad|_K:  7.849e-07  alpha:  9.942e-02  linmin:  1.473e-05  t[s]:  12095.11
	FillingsUpdate:  mu: +0.137279706  nElectrons: 348.000000  magneticMoment: [ Abs: 41.67981  Tot: +0.00000 ]
	SubspaceRotationAdjust: set factor to 0.649
ElecMinimize: Iter: 143  F: -2011.731266018022552  |grad|_K:  8.010e-07  alpha:  2.227e-01  linmin:  4.114e-06  t[s]:  12171.22
	FillingsUpdate:  mu: +0.137167498  nElectrons: 348.000000  magneticMoment: [ Abs: 41.67462  Tot: +0.00000 ]
	SubspaceRotationAdjust: set factor to 0.474
ElecMinimize: Iter: 144  F: -2011.731279735962744  |grad|_K:  1.028e-06  alpha:  1.228e-01  linmin:  2.814e-06  t[s]:  12251.85
	FillingsUpdate:  mu: +0.137085584  nElectrons: 348.000000  magneticMoment: [ Abs: 41.67463  Tot: -0.00000 ]
	SubspaceRotationAdjust: set factor to 0.545
ElecMinimize: Iter: 145  F: -2011.731296570374298  |grad|_K:  7.196e-07  alpha:  9.090e-02  linmin:  2.478e-06  t[s]:  12329.35
	FillingsUpdate:  mu: +0.137039178  nElectrons: 348.000000  magneticMoment: [ Abs: 41.67277  Tot: -0.00000 ]
	SubspaceRotationAdjust: set factor to 0.594
ElecMinimize: Iter: 146  F: -2011.731317192334700  |grad|_K:  7.520e-07  alpha:  2.284e-01  linmin:  9.913e-06  t[s]:  12405.30
	FillingsUpdate:  mu: +0.137008276  nElectrons: 348.000000  magneticMoment: [ Abs: 41.66886  Tot: +0.00000 ]
	SubspaceRotationAdjust: set factor to 0.448
ElecMinimize: Iter: 147  F: -2011.731329217272560  |grad|_K:  9.422e-07  alpha:  1.224e-01  linmin:  3.486e-06  t[s]:  12481.62
	FillingsUpdate:  mu: +0.136974962  nElectrons: 348.000000  magneticMoment: [ Abs: 41.66957  Tot: +0.00000 ]
	SubspaceRotationAdjust: set factor to 0.544
ElecMinimize: Iter: 148  F: -2011.731345661000887  |grad|_K:  6.886e-07  alpha:  1.059e-01  linmin:  6.340e-06  t[s]:  12560.01
	FillingsUpdate:  mu: +0.136976063  nElectrons: 348.000000  magneticMoment: [ Abs: 41.66878  Tot: +0.00000 ]
	SubspaceRotationAdjust: set factor to 0.586
ElecMinimize: Iter: 149  F: -2011.731365253703643  |grad|_K:  7.591e-07  alpha:  2.370e-01  linmin:  3.993e-06  t[s]:  12637.02
	FillingsUpdate:  mu: +0.136946611  nElectrons: 348.000000  magneticMoment: [ Abs: 41.66574  Tot: +0.00000 ]
	SubspaceRotationAdjust: set factor to 0.458
ElecMinimize: Iter: 150  F: -2011.731376930839815  |grad|_K:  9.250e-07  alpha:  1.163e-01  linmin:  3.350e-06  t[s]:  12717.21
	FillingsUpdate:  mu: +0.136908999  nElectrons: 348.000000  magneticMoment: [ Abs: 41.66782  Tot: +0.00000 ]
	SubspaceRotationAdjust: set factor to 0.556
ElecMinimize: Iter: 151  F: -2011.731394248813558  |grad|_K:  6.970e-07  alpha:  1.159e-01  linmin:  6.151e-06  t[s]:  12795.92
	FillingsUpdate:  mu: +0.136850144  nElectrons: 348.000000  magneticMoment: [ Abs: 41.66803  Tot: -0.00000 ]
	SubspaceRotationAdjust: set factor to 0.633
ElecMinimize: Iter: 152  F: -2011.731414466820524  |grad|_K:  7.667e-07  alpha:  2.386e-01  linmin:  2.283e-06  t[s]:  12869.49
	FillingsUpdate:  mu: +0.136816344  nElectrons: 348.000000  magneticMoment: [ Abs: 41.66462  Tot: +0.00000 ]
	SubspaceRotationAdjust: set factor to 0.486
ElecMinimize: Iter: 153  F: -2011.731426530815270  |grad|_K:  9.627e-07  alpha:  1.177e-01  linmin:  3.276e-06  t[s]:  12944.50
	FillingsUpdate:  mu: +0.136743265  nElectrons: 348.000000  magneticMoment: [ Abs: 41.66587  Tot: +0.00000 ]
	SubspaceRotationAdjust: set factor to 0.555
ElecMinimize: Iter: 154  F: -2011.731443445279183  |grad|_K:  7.123e-07  alpha:  1.044e-01  linmin:  3.533e-06  t[s]:  13020.54
	FillingsUpdate:  mu: +0.136772314  nElectrons: 348.000000  magneticMoment: [ Abs: 41.66478  Tot: -0.00000 ]
	SubspaceRotationAdjust: set factor to 0.734
ElecMinimize: Iter: 155  F: -2011.731464229124413  |grad|_K:  7.369e-07  alpha:  2.345e-01  linmin: -2.585e-08  t[s]:  13098.58
	FillingsUpdate:  mu: +0.136818883  nElectrons: 348.000000  magneticMoment: [ Abs: 41.66093  Tot: -0.00000 ]
	SubspaceRotationAdjust: set factor to 0.512
ElecMinimize: Iter: 156  F: -2011.731478800287277  |grad|_K:  1.056e-06  alpha:  1.536e-01  linmin:  1.507e-08  t[s]:  13175.59
	FillingsUpdate:  mu: +0.136775735  nElectrons: 348.000000  magneticMoment: [ Abs: 41.66243  Tot: -0.00000 ]
	SubspaceRotationAdjust: set factor to 0.512
ElecMinimize: Iter: 157  F: -2011.731492576609753  |grad|_K:  7.463e-07  alpha:  7.060e-02  linmin: -6.393e-07  t[s]:  13253.31
ElecMinimize: 	Predicted alpha/alphaT>3.000000, increasing alphaT to 2.118118e-01.
	FillingsUpdate:  mu: +0.136744488  nElectrons: 348.000000  magneticMoment: [ Abs: 41.66023  Tot: +0.00000 ]
	SubspaceRotationAdjust: set factor to 0.676
ElecMinimize: Iter: 158  F: -2011.731514317013080  |grad|_K:  7.562e-07  alpha:  2.232e-01  linmin:  9.111e-07  t[s]:  13362.20
	FillingsUpdate:  mu: +0.136792182  nElectrons: 348.000000  magneticMoment: [ Abs: 41.65594  Tot: +0.00000 ]
	SubspaceRotationAdjust: set factor to 0.486
ElecMinimize: Iter: 159  F: -2011.731528961091499  |grad|_K:  1.059e-06  alpha:  1.465e-01  linmin: -1.595e-06  t[s]:  13440.56
	FillingsUpdate:  mu: +0.136737803  nElectrons: 348.000000  magneticMoment: [ Abs: 41.65697  Tot: +0.00000 ]
	SubspaceRotationAdjust: set factor to 0.523
ElecMinimize: Iter: 160  F: -2011.731545098430843  |grad|_K:  7.550e-07  alpha:  8.220e-02  linmin: -3.200e-06  t[s]:  13514.19
	FillingsUpdate:  mu: +0.136740762  nElectrons: 348.000000  magneticMoment: [ Abs: 41.65429  Tot: +0.00000 ]
	SubspaceRotationAdjust: set factor to 0.641
ElecMinimize: Iter: 161  F: -2011.731568234360338  |grad|_K:  7.970e-07  alpha:  2.324e-01  linmin:  6.814e-06  t[s]:  13591.24
	FillingsUpdate:  mu: +0.136792851  nElectrons: 348.000000  magneticMoment: [ Abs: 41.64944  Tot: +0.00000 ]
	SubspaceRotationAdjust: set factor to 0.483
ElecMinimize: Iter: 162  F: -2011.731583096334589  |grad|_K:  1.057e-06  alpha:  1.341e-01  linmin: -2.473e-06  t[s]:  13671.31
	FillingsUpdate:  mu: +0.136777130  nElectrons: 348.000000  magneticMoment: [ Abs: 41.65009  Tot: +0.00000 ]
	SubspaceRotationAdjust: set factor to 0.549
ElecMinimize: Iter: 163  F: -2011.731601931315026  |grad|_K:  7.795e-07  alpha:  9.624e-02  linmin: -3.476e-06  t[s]:  13747.17
	FillingsUpdate:  mu: +0.136865016  nElectrons: 348.000000  magneticMoment: [ Abs: 41.64847  Tot: -0.00000 ]
	SubspaceRotationAdjust: set factor to 0.676
ElecMinimize: Iter: 164  F: -2011.731626625554554  |grad|_K:  8.310e-07  alpha:  2.325e-01  linmin:  4.882e-06  t[s]:  13824.03
	FillingsUpdate:  mu: +0.136942331  nElectrons: 348.000000  magneticMoment: [ Abs: 41.64414  Tot: +0.00000 ]
	SubspaceRotationAdjust: set factor to 0.51
ElecMinimize: Iter: 165  F: -2011.731642686130499  |grad|_K:  1.103e-06  alpha:  1.332e-01  linmin: -2.794e-06  t[s]:  13897.74
	FillingsUpdate:  mu: +0.136881666  nElectrons: 348.000000  magneticMoment: [ Abs: 41.64573  Tot: +0.00000 ]
	SubspaceRotationAdjust: set factor to 0.563
ElecMinimize: Iter: 166  F: -2011.731661942172877  |grad|_K:  8.079e-07  alpha:  9.055e-02  linmin: -3.331e-06  t[s]:  13975.59
	FillingsUpdate:  mu: +0.136904629  nElectrons: 348.000000  magneticMoment: [ Abs: 41.64504  Tot: -0.00000 ]
	SubspaceRotationAdjust: set factor to 0.737
ElecMinimize: Iter: 167  F: -2011.731687091552658  |grad|_K:  8.177e-07  alpha:  2.203e-01  linmin:  2.238e-06  t[s]:  14052.79
	FillingsUpdate:  mu: +0.136991772  nElectrons: 348.000000  magneticMoment: [ Abs: 41.64232  Tot: +0.00000 ]
	SubspaceRotationAdjust: set factor to 0.539
ElecMinimize: Iter: 168  F: -2011.731703717818391  |grad|_K:  1.110e-06  alpha:  1.423e-01  linmin: -2.504e-06  t[s]:  14130.67
	FillingsUpdate:  mu: +0.136992456  nElectrons: 348.000000  magneticMoment: [ Abs: 41.64607  Tot: +0.00000 ]
	SubspaceRotationAdjust: set factor to 0.561
ElecMinimize: Iter: 169  F: -2011.731720085970665  |grad|_K:  7.979e-07  alpha:  7.606e-02  linmin: -1.116e-06  t[s]:  14207.48
	FillingsUpdate:  mu: +0.137022357  nElectrons: 348.000000  magneticMoment: [ Abs: 41.64760  Tot: -0.00000 ]
	SubspaceRotationAdjust: set factor to 0.756
ElecMinimize: Iter: 170  F: -2011.731742964167779  |grad|_K:  7.750e-07  alpha:  2.052e-01  linmin: -7.499e-06  t[s]:  14284.84
	FillingsUpdate:  mu: +0.137076257  nElectrons: 348.000000  magneticMoment: [ Abs: 41.64626  Tot: -0.00000 ]
	SubspaceRotationAdjust: set factor to 0.543
ElecMinimize: Iter: 171  F: -2011.731757828874152  |grad|_K:  1.055e-06  alpha:  1.414e-01  linmin: -2.767e-06  t[s]:  14363.71
	FillingsUpdate:  mu: +0.137082634  nElectrons: 348.000000  magneticMoment: [ Abs: 41.65099  Tot: -0.00000 ]
	SubspaceRotationAdjust: set factor to 0.566
ElecMinimize: Iter: 172  F: -2011.731771982708096  |grad|_K:  7.366e-07  alpha:  7.256e-02  linmin: -3.892e-06  t[s]:  14441.61
	FillingsUpdate:  mu: +0.137157972  nElectrons: 348.000000  magneticMoment: [ Abs: 41.65437  Tot: +0.00000 ]
	SubspaceRotationAdjust: set factor to 0.716
ElecMinimize: Iter: 173  F: -2011.731791539861433  |grad|_K:  7.247e-07  alpha:  2.056e-01  linmin: -4.868e-06  t[s]:  14519.86
	FillingsUpdate:  mu: +0.137180927  nElectrons: 348.000000  magneticMoment: [ Abs: 41.65372  Tot: +0.00000 ]
	SubspaceRotationAdjust: set factor to 0.529
ElecMinimize: Iter: 174  F: -2011.731803279132237  |grad|_K:  9.407e-07  alpha:  1.281e-01  linmin:  3.193e-07  t[s]:  14596.08
	FillingsUpdate:  mu: +0.137175591  nElectrons: 348.000000  magneticMoment: [ Abs: 41.65857  Tot: -0.00000 ]
	SubspaceRotationAdjust: set factor to 0.575
ElecMinimize: Iter: 175  F: -2011.731815942550838  |grad|_K:  6.531e-07  alpha:  8.146e-02  linmin: -2.834e-06  t[s]:  14670.82
	FillingsUpdate:  mu: +0.137220451  nElectrons: 348.000000  magneticMoment: [ Abs: 41.66227  Tot: +0.00000 ]
	SubspaceRotationAdjust: set factor to 0.714
ElecMinimize: Iter: 176  F: -2011.731831695676647  |grad|_K:  6.471e-07  alpha:  2.108e-01  linmin: -3.015e-06  t[s]:  14748.77
	FillingsUpdate:  mu: +0.137248623  nElectrons: 348.000000  magneticMoment: [ Abs: 41.66215  Tot: +0.00000 ]
	SubspaceRotationAdjust: set factor to 0.525
ElecMinimize: Iter: 177  F: -2011.731840984838982  |grad|_K:  8.379e-07  alpha:  1.271e-01  linmin:  1.380e-06  t[s]:  14827.03
	FillingsUpdate:  mu: +0.137280379  nElectrons: 348.000000  magneticMoment: [ Abs: 41.66679  Tot: -0.00000 ]
	SubspaceRotationAdjust: set factor to 0.567
ElecMinimize: Iter: 178  F: -2011.731851148411351  |grad|_K:  5.867e-07  alpha:  8.228e-02  linmin: -2.589e-06  t[s]:  14905.85
	FillingsUpdate:  mu: +0.137299877  nElectrons: 348.000000  magneticMoment: [ Abs: 41.66969  Tot: +0.00000 ]
	SubspaceRotationAdjust: set factor to 0.723
ElecMinimize: Iter: 179  F: -2011.731864027543452  |grad|_K:  5.825e-07  alpha:  2.137e-01  linmin: -1.504e-06  t[s]:  14985.97
	FillingsUpdate:  mu: +0.137290171  nElectrons: 348.000000  magneticMoment: [ Abs: 41.66935  Tot: +0.00000 ]
	SubspaceRotationAdjust: set factor to 0.524
ElecMinimize: Iter: 180  F: -2011.731871998837278  |grad|_K:  7.754e-07  alpha:  1.348e-01  linmin:  1.172e-06  t[s]:  15062.79
	FillingsUpdate:  mu: +0.137341505  nElectrons: 348.000000  magneticMoment: [ Abs: 41.67327  Tot: -0.00000 ]
	SubspaceRotationAdjust: set factor to 0.551
ElecMinimize: Iter: 181  F: -2011.731880181172528  |grad|_K:  5.420e-07  alpha:  7.713e-02  linmin: -8.310e-06  t[s]:  15140.61
	FillingsUpdate:  mu: +0.137389613  nElectrons: 348.000000  magneticMoment: [ Abs: 41.67601  Tot: +0.00000 ]
	SubspaceRotationAdjust: set factor to 0.704
ElecMinimize: Iter: 182  F: -2011.731891250514991  |grad|_K:  5.417e-07  alpha:  2.150e-01  linmin:  6.523e-06  t[s]:  15216.06
	FillingsUpdate:  mu: +0.137364985  nElectrons: 348.000000  magneticMoment: [ Abs: 41.67554  Tot: +0.00000 ]
	SubspaceRotationAdjust: set factor to 0.513
ElecMinimize: Iter: 183  F: -2011.731898157250725  |grad|_K:  7.250e-07  alpha:  1.352e-01  linmin:  9.464e-07  t[s]:  15293.43
	FillingsUpdate:  mu: +0.137396869  nElectrons: 348.000000  magneticMoment: [ Abs: 41.67882  Tot: -0.00000 ]
	SubspaceRotationAdjust: set factor to 0.546
ElecMinimize: Iter: 184  F: -2011.731905489809606  |grad|_K:  5.107e-07  alpha:  7.929e-02  linmin: -3.827e-06  t[s]:  15372.27
	FillingsUpdate:  mu: +0.137439584  nElectrons: 348.000000  magneticMoment: [ Abs: 41.68107  Tot: -0.00000 ]
	SubspaceRotationAdjust: set factor to 0.691
ElecMinimize: Iter: 185  F: -2011.731915440630473  |grad|_K:  5.178e-07  alpha:  2.180e-01  linmin:  5.368e-06  t[s]:  15450.74
	FillingsUpdate:  mu: +0.137435116  nElectrons: 348.000000  magneticMoment: [ Abs: 41.68072  Tot: -0.00000 ]
	SubspaceRotationAdjust: set factor to 0.51
[...]
	FillingsUpdate:  mu: +0.142352816  nElectrons: 348.000000  magneticMoment: [ Abs: 41.59714  Tot: +0.00000 ]
	SubspaceRotationAdjust: set factor to 0.357
ElecMinimize: Iter:  13  F: -2011.754964385636868  |grad|_K:  1.343e-07  alpha:  3.312e-01  linmin:  3.420e-06  t[s]:  54942.58
	FillingsUpdate:  mu: +0.142361889  nElectrons: 348.000000  magneticMoment: [ Abs: 41.59712  Tot: -0.00000 ]
	SubspaceRotationAdjust: set factor to 0.426
ElecMinimize: Iter:  14  F: -2011.754965663821395  |grad|_K:  1.083e-07  alpha:  4.055e-01  linmin:  8.336e-07  t[s]:  55021.96
	FillingsUpdate:  mu: +0.142352484  nElectrons: 348.000000  magneticMoment: [ Abs: 41.59704  Tot: +0.00000 ]
	SubspaceRotationAdjust: set factor to 0.523
ElecMinimize: Iter:  15  F: -2011.754966400568492  |grad|_K:  8.469e-08  alpha:  3.594e-01  linmin:  7.109e-07  t[s]:  55102.99
	FillingsUpdate:  mu: +0.142386739  nElectrons: 348.000000  magneticMoment: [ Abs: 41.59728  Tot: +0.00000 ]
	SubspaceRotationAdjust: set factor to 0.609
ElecMinimize: Iter:  16  F: -2011.754966879692802  |grad|_K:  7.265e-08  alpha:  3.820e-01  linmin: -5.800e-08  t[s]:  55183.22
	FillingsUpdate:  mu: +0.142331547  nElectrons: 348.000000  magneticMoment: [ Abs: 41.59692  Tot: -0.00000 ]
	SubspaceRotationAdjust: set factor to 0.601
ElecMinimize: Iter:  17  F: -2011.754967184727320  |grad|_K:  6.518e-08  alpha:  3.306e-01  linmin: -2.030e-06  t[s]:  55263.42
	FillingsUpdate:  mu: +0.142401213  nElectrons: 348.000000  magneticMoment: [ Abs: 41.59736  Tot: +0.00000 ]
	SubspaceRotationAdjust: set factor to 0.488
ElecMinimize: Iter:  18  F: -2011.754967366563505  |grad|_K:  5.807e-08  alpha:  2.443e-01  linmin:  2.099e-06  t[s]:  55341.47
	FillingsUpdate:  mu: +0.142353198  nElectrons: 348.000000  magneticMoment: [ Abs: 41.59705  Tot: +0.00000 ]
	SubspaceRotationAdjust: set factor to 0.459
ElecMinimize: Iter:  19  F: -2011.754967523815822  |grad|_K:  4.465e-08  alpha:  2.667e-01  linmin: -2.944e-06  t[s]:  55420.79
ElecMinimize: Converged (|Delta F|<1.000000e-06 for 5 iters).
Setting wave functions to eigenvectors of Hamiltonian

# Ionic positions in lattice coordinates:
ion Ni   0.003481594521170   0.004025041705790   0.156792919797069 1
ion Ni   0.498129774928974   0.501169506263044   0.146531368576231 1
ion Ni   0.248261692508808   0.248110266185910   0.054155543003348 1
ion Ni   0.249037707481653   0.752980160981710   0.052755814434899 1
ion Co   0.491246385291064   0.000491904397213   0.155442225964662 1
ion Co  -0.251881234791351   0.245030321716594   0.055070637806473 1
ion Co  -0.253197476165678   0.756052747245399   0.054544588992294 1
ion Co   0.000000000000000   0.000000000000000  -0.050000000000000 0
ion V   0.000126201443089   0.506765829736147   0.152045697334937 1
ion V   0.500000000000000   0.000000000000000  -0.050000000000000 0
ion V   0.500000000000000   0.500000000000000  -0.050000000000000 0
ion V   0.250000000000000   0.250000000000000  -0.150000000000000 0
ion V   0.250000000000000   0.750000000000000  -0.150000000000000 0
ion V  -0.250000000000000   0.250000000000000  -0.150000000000000 0
ion V  -0.250000000000000   0.750000000000000  -0.150000000000000 0
ion Cr   0.000000000000000   0.500000000000000  -0.050000000000000 0
ion O   0.241727042644237   0.261552224947970   0.149290117070609 1
ion O   0.244049912837932   0.740992037256817   0.146773372275321 1
ion O  -0.241251845017758   0.269054937980305   0.150425961188800 1
ion O  -0.241823850190459   0.739249459042371   0.149978737538806 1
ion O   0.008332290975408   0.000264517489368   0.050738971786910 1
ion O   0.490211898761243   0.002188522282564   0.053915574582585 1
ion O   0.009977979105641   0.500267330918429   0.049615637835257 1
ion O   0.489510832073968   0.499663583076971   0.050606872976966 1
ion O   0.250000000000000   0.250000000000000  -0.050000000000000 0
ion O   0.250000000000000   0.750000000000000  -0.050000000000000 0
ion O  -0.250000000000000   0.250000000000000  -0.050000000000000 0
ion O  -0.250000000000000   0.750000000000000  -0.050000000000000 0
ion O   0.000000000000000   0.000000000000000  -0.150000000000000 0
ion O   0.500000000000000   0.000000000000000  -0.150000000000000 0
ion O   0.000000000000000   0.500000000000000  -0.150000000000000 0
ion O   0.500000000000000   0.500000000000000  -0.150000000000000 0
ion O  -0.006113552892293  -0.017676343823794   0.245438710838032 1
ion H   0.091774552672197   0.088302554261369   0.264252514092592 1

# Forces in Lattice coordinates:
force Ni  -0.003101778980039  -0.000888795212860  -0.004172228012678 1
force Ni   0.002835637776488   0.003523438597178   0.003745977233345 1
force Ni   0.001437936838723  -0.000232974392326   0.022339080567569 1
force Ni  -0.001236029821949   0.005313324155324   0.038347192271134 1
force Co  -0.004621690469827   0.001208532118323   0.005565968082166 1
force Co  -0.001086463810950  -0.003674667041899   0.044002883158841 1
force Co  -0.000310075542284   0.007409572816156   0.050500264360506 1
force Co   0.044272639095511   0.006268058898290   0.505526367214759 0
force V   0.002662077086473   0.001627336430779  -0.018041330117769 1
force V  -0.115125447107850   0.008552611103572   0.757945414689233 0
force V  -0.107098368960754  -0.006249876327834   0.613975672544021 0
force V   0.054336514154715  -0.043074331323495  -0.311782058599398 0
force V   0.054253736439259   0.043055718327648  -0.316731919440988 0
force V   0.001085197842058  -0.031910981272138  -0.559501561617964 0
force V   0.000883767464624   0.032051823861892  -0.569554802140310 0
force Cr   0.021103871710201  -0.004792741584191   0.466188025675308 0
force O   0.000059738800456  -0.000518145774454   0.008602606950502 1
force O   0.002360479547563   0.003270208034167  -0.003551050452352 1
force O   0.000358646742852  -0.001952221625759   0.004235167704872 1
force O  -0.001795516705208   0.001323831626184  -0.001827927421985 1
force O  -0.002027650297508   0.002793268664019  -0.006092049723866 1
force O   0.002538277875428   0.000731213881005   0.013487302865036 1
force O  -0.000412148916044   0.000968019014241  -0.014209908765965 1
force O   0.000384324180691   0.001928244070419  -0.022752666144225 1
force O  -0.103522021272908   0.036044339708281   0.009232085472999 0
force O  -0.094481564052237  -0.026361911273447   0.005420918111055 0
force O   0.062561519290110   0.012423162652396  -0.017785064689442 0
force O   0.070477259312283  -0.019918882486715  -0.005797127478460 0
force O   0.019957450391181  -0.000933540128636  -0.204255694025296 0
force O   0.020469061167454  -0.001324330030352  -0.416706844503491 0
force O   0.049074110784563   0.000638492852893   0.487419088175432 0
force O   0.027322774927481   0.000966095851834  -0.473836628562388 0
force O  -0.017092252844627  -0.020960945509245  -0.026422194471882 1
force H   0.002875601139952   0.003723220100169   0.019112252239409 1

# Energy components:
   Eewald =     5630.1602906342723145
       EH =     7446.1374785767084177
     Eloc =   -15250.9019141901790135
      Enl =     -521.3069358134442837
   Epulay =       -0.0004831769518162
      Exc =     -246.7753288940120058
       KE =      929.7500557822645533
        U =        1.1824212752130583
-------------------------------------
     Etot =    -2011.7544158061282360
       TS =        0.0005517176875981
-------------------------------------
        F =    -2011.7549675238158216

IonicMinimize: Iter:  14  F: -2011.754967523815822  |grad|_K:  4.851e-04  alpha:  1.000e+00  linmin:  1.871e-03  t[s]:  55433.11

#--- Lowdin population analysis ---
# oxidation-state Ni +3.666 +3.688 +3.568 +3.558
# magnetic-moments Ni +0.962 +0.978 +0.995 +0.990
# oxidation-state Co +1.359 +1.247 +1.248 +1.260
# magnetic-moments Co -2.851 -2.715 -2.716 -2.743
# oxidation-state V +1.392 +0.966 +0.945 +1.047 +1.047 +1.043 +1.044
# magnetic-moments V +2.070 +2.913 +2.902 -2.910 -2.909 +2.952 +2.952
# oxidation-state Cr +2.934
# magnetic-moments Cr -3.582
# oxidation-state O -0.805 -0.790 -0.890 -0.888 -0.892 -0.927 -0.841 -0.860 -0.890 -0.890 -0.953 -0.953 -0.999 -0.962 -0.912 -0.967 -0.784
# magnetic-moments O +0.297 +0.288 +0.075 +0.065 +0.163 +0.108 +0.192 +0.238 +0.067 +0.066 -0.029 -0.028 -0.040 -0.003 +0.075 -0.003 +0.263
# oxidation-state H +0.366
# magnetic-moments H -0.004


-------- Electronic minimization -----------
	FillingsUpdate:  mu: +0.151019623  nElectrons: 348.000000  magneticMoment: [ Abs: 41.59904  Tot: +0.00000 ]
ElecMinimize: Iter:   0  F: -2011.690773074131812  |grad|_K:  4.268e-05  alpha:  1.000e+00
	FillingsUpdate:  mu: +0.141168822  nElectrons: 348.000000  magneticMoment: [ Abs: 41.56683  Tot: +0.00000 ]
	SubspaceRotationAdjust: set factor to 0.496
ElecMinimize: Iter:   1  F: -2011.749498926398019  |grad|_K:  8.655e-06  alpha:  1.646e-01  linmin: -2.322e-02  t[s]:  55538.79
	FillingsUpdate:  mu: +0.141434737  nElectrons: 348.000000  magneticMoment: [ Abs: 41.57822  Tot: +0.00000 ]
	SubspaceRotationAdjust: set factor to 0.686
ElecMinimize: Iter:   2  F: -2011.753031398122403  |grad|_K:  4.149e-06  alpha:  2.379e-01  linmin:  1.287e-04  t[s]:  55616.45
	FillingsUpdate:  mu: +0.145220231  nElectrons: 348.000000  magneticMoment: [ Abs: 41.60601  Tot: +0.00000 ]
	SubspaceRotationAdjust: set factor to 0.467
ElecMinimize: Iter:   3  F: -2011.753869228327858  |grad|_K:  4.362e-06  alpha:  2.917e-01  linmin:  2.732e-03  t[s]:  55697.47
	FillingsUpdate:  mu: +0.142346276  nElectrons: 348.000000  magneticMoment: [ Abs: 41.58733  Tot: -0.00000 ]
	SubspaceRotationAdjust: set factor to 0.597
ElecMinimize: Iter:   4  F: -2011.754283449445438  |grad|_K:  2.730e-06  alpha:  1.613e-01  linmin:  1.592e-04  t[s]:  55776.11
	FillingsUpdate:  mu: +0.141373089  nElectrons: 348.000000  magneticMoment: [ Abs: 41.57925  Tot: -0.00000 ]
	SubspaceRotationAdjust: set factor to 0.641
ElecMinimize: Iter:   5  F: -2011.754689861418001  |grad|_K:  2.181e-06  alpha:  3.151e-01  linmin: -1.545e-04  t[s]:  55855.63
	FillingsUpdate:  mu: +0.142951720  nElectrons: 348.000000  magneticMoment: [ Abs: 41.59258  Tot: -0.00000 ]
	SubspaceRotationAdjust: set factor to 0.521
ElecMinimize: Iter:   6  F: -2011.754858360771550  |grad|_K:  1.371e-06  alpha:  1.700e-01  linmin: -7.029e-04  t[s]:  55932.30
	FillingsUpdate:  mu: +0.143265733  nElectrons: 348.000000  magneticMoment: [ Abs: 41.59473  Tot: +0.00000 ]
	SubspaceRotationAdjust: set factor to 0.709
ElecMinimize: Iter:   7  F: -2011.754958829287716  |grad|_K:  9.889e-07  alpha:  2.810e-01  linmin:  3.741e-06  t[s]:  56008.75
	FillingsUpdate:  mu: +0.142175623  nElectrons: 348.000000  magneticMoment: [ Abs: 41.58899  Tot: +0.00000 ]
	SubspaceRotationAdjust: set factor to 0.528
ElecMinimize: Iter:   8  F: -2011.754987329207552  |grad|_K:  6.572e-07  alpha:  1.726e-01  linmin:  6.103e-05  t[s]:  56085.86
	FillingsUpdate:  mu: +0.142440736  nElectrons: 348.000000  magneticMoment: [ Abs: 41.59132  Tot: +0.00000 ]
	SubspaceRotationAdjust: set factor to 0.551
ElecMinimize: Iter:   9  F: -2011.755002545469779  |grad|_K:  3.552e-07  alpha:  2.029e-01  linmin:  5.558e-05  t[s]:  56163.74
	FillingsUpdate:  mu: +0.142555919  nElectrons: 348.000000  magneticMoment: [ Abs: 41.59221  Tot: +0.00000 ]
	SubspaceRotationAdjust: set factor to 0.578
ElecMinimize: Iter:  10  F: -2011.755008837528294  |grad|_K:  2.199e-07  alpha:  2.865e-01  linmin:  1.260e-05  t[s]:  56241.63
	FillingsUpdate:  mu: +0.142345636  nElectrons: 348.000000  magneticMoment: [ Abs: 41.59105  Tot: -0.00000 ]
	SubspaceRotationAdjust: set factor to 0.435
ElecMinimize: Iter:  11  F: -2011.755010455824959  |grad|_K:  1.530e-07  alpha:  1.922e-01  linmin: -1.977e-06  t[s]:  56318.83
	FillingsUpdate:  mu: +0.142449074  nElectrons: 348.000000  magneticMoment: [ Abs: 41.59175  Tot: +0.00000 ]
	SubspaceRotationAdjust: set factor to 0.446
ElecMinimize: Iter:  12  F: -2011.755011489187609  |grad|_K:  9.354e-08  alpha:  2.525e-01  linmin:  2.405e-05  t[s]:  56396.68
	FillingsUpdate:  mu: +0.142467062  nElectrons: 348.000000  magneticMoment: [ Abs: 41.59197  Tot: -0.00000 ]
	SubspaceRotationAdjust: set factor to 0.505
ElecMinimize: Iter:  13  F: -2011.755011961806986  |grad|_K:  7.034e-08  alpha:  3.092e-01  linmin: -9.688e-07  t[s]:  56475.84
	FillingsUpdate:  mu: +0.142396836  nElectrons: 348.000000  magneticMoment: [ Abs: 41.59170  Tot: +0.00000 ]
	SubspaceRotationAdjust: set factor to 0.457
ElecMinimize: Iter:  14  F: -2011.755012204423110  |grad|_K:  5.808e-08  alpha:  2.805e-01  linmin: -2.074e-06  t[s]:  56553.68
	FillingsUpdate:  mu: +0.142445678  nElectrons: 348.000000  magneticMoment: [ Abs: 41.59210  Tot: +0.00000 ]
	SubspaceRotationAdjust: set factor to 0.46
ElecMinimize: Iter:  15  F: -2011.755012381639972  |grad|_K:  4.569e-08  alpha:  3.003e-01  linmin:  1.071e-05  t[s]:  56631.33
	FillingsUpdate:  mu: +0.142447832  nElectrons: 348.000000  magneticMoment: [ Abs: 41.59223  Tot: +0.00000 ]
	SubspaceRotationAdjust: set factor to 0.549
ElecMinimize: Iter:  16  F: -2011.755012510388269  |grad|_K:  3.855e-08  alpha:  3.534e-01  linmin: -9.853e-07  t[s]:  56710.99
	FillingsUpdate:  mu: +0.142417120  nElectrons: 348.000000  magneticMoment: [ Abs: 41.59217  Tot: -0.00000 ]
	SubspaceRotationAdjust: set factor to 0.572
ElecMinimize: Iter:  17  F: -2011.755012601501676  |grad|_K:  3.552e-08  alpha:  3.502e-01  linmin: -2.059e-05  t[s]:  56787.05
ElecMinimize: Converged (|Delta F|<1.000000e-06 for 5 iters).
Setting wave functions to eigenvectors of Hamiltonian

# Ionic positions in lattice coordinates:
ion Ni   0.003356131683103   0.004092260169474   0.156937749491882 1
ion Ni   0.498394954122342   0.501567737012091   0.146610216864692 1
ion Ni   0.248298892701670   0.248196484325058   0.054217667104351 1
ion Ni   0.248862242857543   0.753404211766343   0.052889625043476 1
ion Co   0.491026747577691   0.000624378029114   0.155477647577347 1
ion Co  -0.251901760458093   0.244825306947344   0.055251752815533 1
ion Co  -0.253104698141827   0.756670617431071   0.054751848300092 1
ion Co   0.000000000000000   0.000000000000000  -0.050000000000000 0
ion V  -0.000166638451100   0.506962772111510   0.152027050502451 1
ion V   0.500000000000000   0.000000000000000  -0.050000000000000 0
ion V   0.500000000000000   0.500000000000000  -0.050000000000000 0
ion V   0.250000000000000   0.250000000000000  -0.150000000000000 0
ion V   0.250000000000000   0.750000000000000  -0.150000000000000 0
ion V  -0.250000000000000   0.250000000000000  -0.150000000000000 0
ion V  -0.250000000000000   0.750000000000000  -0.150000000000000 0
ion Cr   0.000000000000000   0.500000000000000  -0.050000000000000 0
ion O   0.241617508860130   0.261788537281913   0.149442593832163 1
ion O   0.243993880232331   0.741082209641677   0.146901797503639 1
ion O  -0.241107822039002   0.269087374801892   0.150426086100389 1
ion O  -0.241780859849492   0.739343092586930   0.149947918095248 1
ion O   0.008360947838662   0.000572202271855   0.050710487816117 1
ion O   0.490251414346124   0.002270318311065   0.054043581344866 1
ion O   0.010087135123679   0.500456922241231   0.049602977067840 1
ion O   0.489532512609358   0.499937810741028   0.050539309126559 1
ion O   0.250000000000000   0.250000000000000  -0.050000000000000 0
ion O   0.250000000000000   0.750000000000000  -0.050000000000000 0
ion O  -0.250000000000000   0.250000000000000  -0.050000000000000 0
ion O  -0.250000000000000   0.750000000000000  -0.050000000000000 0
ion O   0.000000000000000   0.000000000000000  -0.150000000000000 0
ion O   0.500000000000000   0.000000000000000  -0.150000000000000 0
ion O   0.000000000000000   0.500000000000000  -0.150000000000000 0
ion O   0.500000000000000   0.500000000000000  -0.150000000000000 0
ion O  -0.006682622971714  -0.018873219250366   0.245527997821466 1
ion H   0.090766623365203   0.087378256289127   0.264577557193644 1

# Forces in Lattice coordinates:
force Ni  -0.000006067857204   0.001484841841847   0.017045566638316 1
force Ni  -0.003084573331405   0.000437591622253   0.003241456521177 1
force Ni   0.001007562176975   0.004579856511795   0.029293960581535 1
force Ni   0.001522878789546  -0.001482743848073   0.023802570836456 1
force Co  -0.006365681172276   0.002446599546233   0.016378772569958 1
force Co  -0.001082296145738   0.002475782289303   0.001868855130972 1
force Co  -0.001079711946249   0.001681931679664  -0.000136329634438 1
force Co   0.043315671187595   0.006384124489464   0.498677368713661 0
force V   0.010652968725085  -0.003056817339938  -0.016430310698309 1
force V  -0.114475856411217   0.008322500440471   0.762281325011152 0
force V  -0.106221397237434  -0.005380820089141   0.614632914440401 0
force V   0.054403228197837  -0.042977884147604  -0.312285525470625 0
force V   0.054285204748499   0.043017432549623  -0.316198016887586 0
force V   0.001037713891172  -0.031865858420636  -0.558922893734008 0
force V   0.000853741981044   0.032029681700528  -0.568925197476421 0
force Cr   0.019986364325096  -0.004039328481966   0.473221267264473 0
force O   0.000983231863385  -0.000803919083701  -0.004828840840615 1
force O   0.002473562155976   0.003272858635353  -0.004445408213305 1
force O   0.000083176588798  -0.002146778391095   0.012716507305280 1
force O  -0.001890034561709   0.000759843655998   0.010803206263221 1
force O  -0.001010076625762   0.003632236036104  -0.003471188951003 1
force O   0.000883473728126   0.000903943547633   0.010207651195334 1
force O  -0.000486817044620   0.001381790068558  -0.009394895187550 1
force O   0.000144025486057   0.002632420757366  -0.000608049007186 1
force O  -0.105202436273778   0.037332945196491   0.008822738745365 0
force O  -0.095543947203149  -0.026421997384191   0.005518802518529 0
force O   0.063490230074200   0.012804171511074  -0.017441301648090 0
force O   0.072400578931591  -0.020856200641972  -0.005107213039759 0
force O   0.020142045590205  -0.000909109384640  -0.204316537982576 0
force O   0.020271524252320  -0.001294869116379  -0.414408565773329 0
force O   0.049309647950491   0.000527483272498   0.488536794150193 0
force O   0.027182770674630   0.000860241588832  -0.476349852087450 0
force O  -0.007457580911552  -0.012342469290623  -0.011232758172537 1
force H  -0.007593102706772  -0.007478115119899  -0.007535518936861 1

# Energy components:
   Eewald =     5627.5240340720292807
       EH =     7443.5127204327354775
     Eloc =   -15245.6388668898562173
      Enl =     -521.3048991843354543
   Epulay =       -0.0004831769518162
      Exc =     -246.7738220241167255
       KE =      929.7442609160817710
        U =        1.1825839104052236
-------------------------------------
     Etot =    -2011.7544719440086283
       TS =        0.0005406574930138
-------------------------------------
        F =    -2011.7550126015016758

IonicMinimize: Iter:  15  F: -2011.755012601501676  |grad|_K:  3.407e-04  alpha:  1.000e+00  linmin: -2.313e-02  t[s]:  56799.43
IonicMinimize: Converged (|Delta F|<1.000000e-04 for 3 iters).

#--- Lowdin population analysis ---
# oxidation-state Ni +3.665 +3.688 +3.569 +3.559
# magnetic-moments Ni +0.961 +0.977 +0.995 +0.991
# oxidation-state Co +1.359 +1.247 +1.248 +1.260
# magnetic-moments Co -2.851 -2.715 -2.716 -2.743
# oxidation-state V +1.392 +0.966 +0.945 +1.047 +1.047 +1.043 +1.044
# magnetic-moments V +2.069 +2.913 +2.902 -2.910 -2.909 +2.952 +2.952
# oxidation-state Cr +2.935
# magnetic-moments Cr -3.580
# oxidation-state O -0.805 -0.790 -0.890 -0.888 -0.892 -0.928 -0.841 -0.860 -0.890 -0.890 -0.953 -0.952 -0.999 -0.962 -0.912 -0.967 -0.784
# magnetic-moments O +0.297 +0.288 +0.074 +0.064 +0.163 +0.107 +0.193 +0.238 +0.067 +0.067 -0.028 -0.027 -0.040 -0.003 +0.075 -0.003 +0.263
# oxidation-state H +0.366
# magnetic-moments H -0.004


Dumping 'run.ionpos' ... done
Dumping 'run.lattice' ... done
Dumping 'run.Ecomponents' ... done
End date and time: Sat May 10 09:33:41 2025  (Duration: 0-15:46:42.67)
Done!
