
*************** JDFTx 1.7.0  ***************

Start date and time: Tue May 20 16:43:38 2025
Executable /data2/jt577/jdftx_eat_withLibXC/build/jdftx with command-line: -i /data2/jt577/May_2025/Relax_Mag_litU/rel12+1_6/O/runs/calc_/run.in
Running on hosts (process indices):  node3402 (0-8)
Divided in process groups (process indices):  0 (0)  1 (1)  2 (2)  3 (3)  4 (4)  5 (5)  6 (6)  7 (7)  8 (8)
Resource initialization completed at t[s]:      0.00
Run totals: 9 processes, 90 threads, 0 GPUs


Input parsed successfully to the following command list (including defaults):

add-mix 
add-U 	Ni d 0.235196 \
	Co d 0.121273 \
	V d 0.113923
basis kpoint-dependent
coords-type Lattice
core-overlap-check vector
coulomb-interaction Periodic
davidson-band-ratio 1.1
dump End IonicPositions Lattice Ecomponents
dump-name run.$VAR
elec-cutoff 30
elec-eigen-algo Davidson
elec-ex-corr gga-x-rpbe gga-c-pbe
elec-smearing Fermi 0.001
electronic-minimize  \
	dirUpdateScheme      FletcherReeves \
	linminMethod         DirUpdateRecommended \
	nIterations          1000 \
	history              15 \
	knormThreshold       0 \
	energyDiffThreshold  1e-06 \
	nEnergyDiff          5 \
	alphaTstart          1 \
	alphaTmin            1e-10 \
	updateTestStepSize   yes \
	alphaTreduceFactor   0.1 \
	alphaTincreaseFactor 3 \
	nAlphaAdjustMax      3 \
	wolfeEnergy          0.0001 \
	wolfeGradient        0.9 \
	fdTest               no
exchange-regularization WignerSeitzTruncated
fluid None
fluid-ex-corr (null) lda-PZ
fluid-gummel-loop 10 1.000000e-05
fluid-minimize  \
	dirUpdateScheme      PolakRibiere \
	linminMethod         DirUpdateRecommended \
	nIterations          100 \
	history              15 \
	knormThreshold       0 \
	energyDiffThreshold  0 \
	nEnergyDiff          2 \
	alphaTstart          1 \
	alphaTmin            1e-10 \
	updateTestStepSize   yes \
	alphaTreduceFactor   0.1 \
	alphaTincreaseFactor 3 \
	nAlphaAdjustMax      3 \
	wolfeEnergy          0.0001 \
	wolfeGradient        0.9 \
	fdTest               no
fluid-solvent H2O 55.338 ScalarEOS \
	epsBulk 78.4 \
	pMol 0.92466 \
	epsInf 1.77 \
	Pvap 1.06736e-10 \
	sigmaBulk 4.62e-05 \
	Rvdw 2.61727 \
	Res 1.42 \
	tauNuc 343133 \
	poleEl 15 7 1
forces-output-coords Positions
initial-magnetic-moments  \
	Ni 1 -1 -1 1 1 1 \
	Co 1 -1 -1 \
	V -1 1 -1 -1 -1 1 1
initial-state run.$VAR
ion Ni  0.000000000000000   0.000000000000000   0.150000000000000 1
ion Ni  0.500000000000000   0.000000000000000   0.150000000000000 1
ion Ni  0.500000000000000   0.500000000000000   0.150000000000000 1
ion Ni  0.250000000000000   0.250000000000000   0.050000000000000 1
ion Ni  0.250000000000000   0.750000000000000   0.050000000000000 1
ion Ni  0.500000000000000   0.500000000000000  -0.050000000000000 0
ion Co  0.000000000000000   0.500000000000000   0.150000000000000 1
ion Co -0.250000000000000   0.250000000000000   0.050000000000000 1
ion Co -0.250000000000000   0.750000000000000   0.050000000000000 1
ion V  0.000000000000000   0.000000000000000  -0.050000000000000 0
ion V  0.500000000000000   0.000000000000000  -0.050000000000000 0
ion V  0.000000000000000   0.500000000000000  -0.050000000000000 0
ion V  0.250000000000000   0.250000000000000  -0.150000000000000 0
ion V  0.250000000000000   0.750000000000000  -0.150000000000000 0
ion V -0.250000000000000   0.250000000000000  -0.150000000000000 0
ion V -0.250000000000000   0.750000000000000  -0.150000000000000 0
ion O  0.250000000000000   0.250000000000000   0.150000000000000 1
ion O  0.250000000000000   0.750000000000000   0.150000000000000 1
ion O -0.250000000000000   0.250000000000000   0.150000000000000 1
ion O -0.250000000000000   0.750000000000000   0.150000000000000 1
ion O  0.000000000000000   0.000000000000000   0.050000000000000 1
ion O  0.500000000000000   0.000000000000000   0.050000000000000 1
ion O  0.000000000000000   0.500000000000000   0.050000000000000 1
ion O  0.500000000000000   0.500000000000000   0.050000000000000 1
ion O  0.250000000000000   0.250000000000000  -0.050000000000000 0
ion O  0.250000000000000   0.750000000000000  -0.050000000000000 0
ion O -0.250000000000000   0.250000000000000  -0.050000000000000 0
ion O -0.250000000000000   0.750000000000000  -0.050000000000000 0
ion O  0.000000000000000   0.000000000000000  -0.150000000000000 0
ion O  0.500000000000000   0.000000000000000  -0.150000000000000 0
ion O  0.000000000000000   0.500000000000000  -0.150000000000000 0
ion O  0.500000000000000   0.500000000000000  -0.150000000000000 0
ion O -0.000095572322686   0.000198307128402   0.224876729873325 1
ion-species SG15/$ID_ONCV_PBE.upf
ion-width 0
ionic-minimize  \
	dirUpdateScheme      L-BFGS \
	linminMethod         DirUpdateRecommended \
	nIterations          1000 \
	history              15 \
	knormThreshold       0.0001 \
	energyDiffThreshold  0.0001 \
	nEnergyDiff          3 \
	alphaTstart          1 \
	alphaTmin            1e-10 \
	updateTestStepSize   yes \
	alphaTreduceFactor   0.1 \
	alphaTincreaseFactor 3 \
	nAlphaAdjustMax      3 \
	wolfeEnergy          0.0001 \
	wolfeGradient        0.9 \
	fdTest               no
kpoint   0.500000000000   0.500000000000   0.500000000000  1.00000000000000
kpoint-folding 3 3 1 
latt-move-scale 1 1 1
latt-scale 1 1 1 
lattice  \
	   8.140000000000001    8.140000000000001    0.000000000000000  \
	   8.140000000000001   -8.140000000000001    0.000000000000000  \
	   0.000000000000000    0.000000000000000   40.700000000000003 
lattice-minimize  \
	dirUpdateScheme      L-BFGS \
	linminMethod         DirUpdateRecommended \
	nIterations          0 \
	history              15 \
	knormThreshold       0 \
	energyDiffThreshold  1e-06 \
	nEnergyDiff          2 \
	alphaTstart          1 \
	alphaTmin            1e-10 \
	updateTestStepSize   yes \
	alphaTreduceFactor   0.1 \
	alphaTincreaseFactor 3 \
	nAlphaAdjustMax      3 \
	wolfeEnergy          0.0001 \
	wolfeGradient        0.9 \
	fdTest               no
lcao-params -1 1e-06 0.001
pcm-variant GLSSA13
spintype z-spin
subspace-rotation-factor 1 yes
symmetries none
symmetry-threshold 0.0001


Applied RMS atom displacement 0 bohrs to make symmetries exact.

---------- Initializing the Grid ----------
R = 
[         8.14         8.14            0  ]
[         8.14        -8.14            0  ]
[            0            0         40.7  ]
unit cell volume = 5393.53
G =
[   0.385945   0.385945         -0  ]
[   0.385945  -0.385945         -0  ]
[         -0         -0   0.154378  ]
Minimum fftbox size, Smin = [  60  60  204  ]
Chosen fftbox size, S = [  60  60  210  ]

---------- Exchange Correlation functional ----------
Initialized LibXC exchange functional 'Hammer, Hansen, and Norskov'
Initialized LibXC correlation functional 'Perdew, Burke & Ernzerhof'

---------- Setting up pseudopotentials ----------
Width of ionic core gaussian charges (only for fluid interactions / plotting) set to 0

Reading pseudopotential file '/data2/jt577/jdftx_eat_withLibXC/build/pseudopotentials/SG15/Ni_ONCV_PBE.upf':
  'Ni' pseudopotential, 'PBE' functional
  Generated using ONCVPSP code by D. R. Hamann
  Author: Martin Schlipf and Francois Gygi  Date: 150915.
  18 valence electrons, 4 orbitals, 6 projectors, 1292 radial grid points, with lMax = 2
  Transforming local potential to a uniform radial grid of dG=0.02 with 1419 points.
  Transforming nonlocal projectors to a uniform radial grid of dG=0.02 with 528 points.
    3S    l: 0   occupation:  2.0   eigenvalue: -4.081355
    3P    l: 1   occupation:  6.0   eigenvalue: -2.623460
    4S    l: 0   occupation:  2.0   eigenvalue: -0.207378
    3D    l: 2   occupation:  8.0   eigenvalue: -0.326118
  Transforming atomic orbitals to a uniform radial grid of dG=0.02 with 528 points.
  WARNING: large normalization error in atomic orbital 1s (integral: 0.000006).
  Core radius for overlap checks: 1.99 bohrs.
  Reading pulay file /data2/jt577/jdftx_eat_withLibXC/build/pseudopotentials/SG15/Ni_ONCV_PBE.pulay ... using dE_dnG = -7.250568e-04 computed for Ecut = 30.

Reading pseudopotential file '/data2/jt577/jdftx_eat_withLibXC/build/pseudopotentials/SG15/Co_ONCV_PBE.upf':
  'Co' pseudopotential, 'PBE' functional
  Generated using ONCVPSP code by D. R. Hamann
  Author: Martin Schlipf and Francois Gygi  Date: 150915.
  17 valence electrons, 4 orbitals, 6 projectors, 1388 radial grid points, with lMax = 2
  Transforming local potential to a uniform radial grid of dG=0.02 with 1419 points.
  Transforming nonlocal projectors to a uniform radial grid of dG=0.02 with 528 points.
    3S    l: 0   occupation:  2.0   eigenvalue: -3.763303
    3P    l: 1   occupation:  6.0   eigenvalue: -2.412101
    4S    l: 0   occupation:  2.0   eigenvalue: -0.201022
    3D    l: 2   occupation:  7.0   eigenvalue: -0.301498
  Transforming atomic orbitals to a uniform radial grid of dG=0.02 with 528 points.
  Core radius for overlap checks: 1.94 bohrs.
  Reading pulay file /data2/jt577/jdftx_eat_withLibXC/build/pseudopotentials/SG15/Co_ONCV_PBE.pulay ... using dE_dnG = -9.787391e-05 computed for Ecut = 30.

Reading pseudopotential file '/data2/jt577/jdftx_eat_withLibXC/build/pseudopotentials/SG15/V_ONCV_PBE.upf':
  'V' pseudopotential, 'PBE' functional
  Generated using ONCVPSP code by D. R. Hamann
  Author: Martin Schlipf and Francois Gygi  Date: 150915.
  13 valence electrons, 4 orbitals, 6 projectors, 1536 radial grid points, with lMax = 2
  Transforming local potential to a uniform radial grid of dG=0.02 with 1419 points.
  Transforming nonlocal projectors to a uniform radial grid of dG=0.02 with 528 points.
    3S    l: 0   occupation:  2.0   eigenvalue: -2.581105
    3P    l: 1   occupation:  6.0   eigenvalue: -1.618486
    4S    l: 0   occupation:  2.0   eigenvalue: -0.172804
    3D    l: 2   occupation:  3.0   eigenvalue: -0.189795
  Transforming atomic orbitals to a uniform radial grid of dG=0.02 with 528 points.
  Core radius for overlap checks: 1.80 bohrs.
  Reading pulay file /data2/jt577/jdftx_eat_withLibXC/build/pseudopotentials/SG15/V_ONCV_PBE.pulay ... using dE_dnG = -1.698632e-04 computed for Ecut = 30.

Reading pseudopotential file '/data2/jt577/jdftx_eat_withLibXC/build/pseudopotentials/SG15/O_ONCV_PBE.upf':
  'O' pseudopotential, 'PBE' functional
  Generated using ONCVPSP code by D. R. Hamann
  Author: Martin Schlipf and Francois Gygi  Date: 150915.
  6 valence electrons, 2 orbitals, 4 projectors, 936 radial grid points, with lMax = 1
  Transforming local potential to a uniform radial grid of dG=0.02 with 1419 points.
  Transforming nonlocal projectors to a uniform radial grid of dG=0.02 with 528 points.
    2S    l: 0   occupation:  2.0   eigenvalue: -0.880572
    2P    l: 1   occupation:  4.0   eigenvalue: -0.331869
  Transforming atomic orbitals to a uniform radial grid of dG=0.02 with 528 points.
  Core radius for overlap checks: 1.29 bohrs.
  Reading pulay file /data2/jt577/jdftx_eat_withLibXC/build/pseudopotentials/SG15/O_ONCV_PBE.pulay ... using dE_dnG = -8.209514e-03 computed for Ecut = 30.

Initialized 4 species with 33 total atoms.

Folded 1 k-points by 3x3x1 to 9 k-points.

---------- Setting up k-points, bands, fillings ----------
No reducable k-points. 
Computing the number of bands and number of electrons
Calculating initial fillings.
nElectrons: 352.000000   nBands: 228   nStates: 18

----- Setting up reduced wavefunction bases (one per k-point) -----
average nbasis = 42312.000 , ideal nbasis = 42330.081

---------- Setting up ewald sum ----------
Optimum gaussian width for ewald sums = 3.906449 bohr.
Real space sum over 605 unit cells with max indices [  5  5  2  ]
Reciprocal space sum over 5915 terms with max indices [  6  6  17  ]

---------- Allocating electronic variables ----------
Initializing wave functions:  linear combination of atomic orbitals
Ni (M=1) pseudo-atom majority spin occupations:   s ( 1 0.5 )  p ( 3 )  d ( 5 )
Ni (M=1) pseudo-atom minority spin occupations:   s ( 1 0 )  p ( 3 )  d ( 4.5 )
Co (M=1) pseudo-atom majority spin occupations:   s ( 1 0 )  p ( 3 )  d ( 5 )
Co (M=1) pseudo-atom minority spin occupations:   s ( 1 0 )  p ( 3 )  d ( 4 )
V (M=1) pseudo-atom majority spin occupations:   s ( 1 0 )  p ( 3 )  d ( 3 )
V (M=1) pseudo-atom minority spin occupations:   s ( 1 0 )  p ( 3 )  d ( 2 )
O pseudo-atom occupations:   s ( 2 )  p ( 4 )
	FillingsUpdate:  mu: -0.331342258  nElectrons: 352.000000  magneticMoment: [ Abs: 2.88608  Tot: -0.00000 ]
LCAOMinimize: Iter:   0  F: -1961.1498045967630333  |grad|_K:  1.420e-02  alpha:  1.000e+00
LCAOMinimize: 	Step increased F by 3.074407e+01, reducing alpha to 2.510026e-02.
	FillingsUpdate:  mu: -0.037404726  nElectrons: 352.000000  magneticMoment: [ Abs: 4.52488  Tot: +0.00000 ]
LCAOMinimize: Iter:   1  F: -1973.8581072578247131  |grad|_K:  1.217e-02  alpha:  2.510e-02  linmin: -1.300e-01  cgtest:  4.456e-01  t[s]:     54.59
	FillingsUpdate:  mu: +0.401920379  nElectrons: 352.000000  magneticMoment: [ Abs: 4.98668  Tot: +0.00000 ]
LCAOMinimize: Iter:   2  F: -1975.8700353712688411  |grad|_K:  1.003e-02  alpha:  1.399e-02  linmin: -9.091e-03  cgtest:  4.775e-01  t[s]:     69.24
LCAOMinimize: 	Wrong curvature in test step, increasing alphaT to 4.196866e-02.
	FillingsUpdate:  mu: +0.406859740  nElectrons: 352.000000  magneticMoment: [ Abs: 5.18552  Tot: +0.00000 ]
LCAOMinimize: Iter:   3  F: -1977.4060094103028860  |grad|_K:  1.115e-02  alpha: -1.151e-01  linmin: -2.940e-02  cgtest:  8.975e-01  t[s]:     82.83
	FillingsUpdate:  mu: -0.093262497  nElectrons: 352.000000  magneticMoment: [ Abs: 8.10585  Tot: +0.00000 ]
LCAOMinimize: Iter:   4  F: -1982.1955668824864460  |grad|_K:  3.795e-02  alpha:  5.318e-02  linmin:  1.126e-02  cgtest: -1.716e-01  t[s]:     97.32
LCAOMinimize: 	Bad step direction: g.d > 0.
LCAOMinimize: 	Undoing step.
LCAOMinimize: 	Step failed: resetting search direction.
	FillingsUpdate:  mu: -0.093262497  nElectrons: 352.000000  magneticMoment: [ Abs: 8.10585  Tot: +0.00000 ]
LCAOMinimize: Iter:   5  F: -1982.1955668824864460  |grad|_K:  3.795e-02  alpha:  0.000e+00
	FillingsUpdate:  mu: +0.448493250  nElectrons: 352.000000  magneticMoment: [ Abs: 9.18130  Tot: -0.00000 ]
LCAOMinimize: Iter:   6  F: -1988.8118076736327566  |grad|_K:  2.213e-02  alpha:  1.956e-02  linmin:  5.914e-02  cgtest: -6.861e-01  t[s]:    121.70
	FillingsUpdate:  mu: +0.720871734  nElectrons: 352.000000  magneticMoment: [ Abs: 9.56635  Tot: -0.00000 ]
LCAOMinimize: Iter:   7  F: -1989.2307372536556613  |grad|_K:  3.341e-02  alpha:  1.593e-02  linmin: -6.425e-04  cgtest:  9.589e-01  t[s]:    135.96
LCAOMinimize: 	Step increased F by 2.363565e+01, reducing alpha to 2.908504e-03.
	FillingsUpdate:  mu: +0.501405286  nElectrons: 352.000000  magneticMoment: [ Abs: 9.85024  Tot: +0.00000 ]
LCAOMinimize: Iter:   8  F: -1992.4134472843629737  |grad|_K:  2.902e-02  alpha:  2.909e-03  linmin: -4.747e-02  cgtest:  8.866e-01  t[s]:    160.16
LCAOMinimize: Encountered beta<0, resetting CG.
LCAOMinimize: 	Predicted alpha/alphaT>3.000000, increasing alphaT to 8.725512e-03.
LCAOMinimize: 	Wrong curvature in test step, increasing alphaT to 2.617654e-02.
	FillingsUpdate:  mu: +0.013434764  nElectrons: 352.000000  magneticMoment: [ Abs: 10.92688  Tot: +0.00000 ]
LCAOMinimize: Iter:   9  F: -2000.3266324363478361  |grad|_K:  1.632e-02  alpha: -3.098e-02  linmin: -1.155e-01  cgtest:  3.540e-01  t[s]:    177.45
LCAOMinimize: 	Step increased F by 1.304218e+02, reducing alpha to 1.471821e-02.
	FillingsUpdate:  mu: +0.253922120  nElectrons: 352.000000  magneticMoment: [ Abs: 12.30176  Tot: +0.00000 ]
LCAOMinimize: Iter:  10  F: -2002.1463387574817716  |grad|_K:  1.315e-02  alpha:  1.472e-02  linmin: -1.693e-02  cgtest:  1.342e-01  t[s]:    202.04
LCAOMinimize: 	Predicted alpha/alphaT>3.000000, increasing alphaT to 4.415463e-02.
	FillingsUpdate:  mu: +0.552256505  nElectrons: 352.000000  magneticMoment: [ Abs: 10.02526  Tot: -0.00000 ]
LCAOMinimize: Iter:  11  F: -2005.8279104937755619  |grad|_K:  1.741e-02  alpha:  4.879e-02  linmin:  4.269e-02  cgtest: -3.119e-01  t[s]:    220.68
LCAOMinimize: 	Bad step direction: g.d > 0.
LCAOMinimize: 	Undoing step.
LCAOMinimize: 	Step failed: resetting search direction.
	FillingsUpdate:  mu: +0.552256505  nElectrons: 352.000000  magneticMoment: [ Abs: 10.02526  Tot: -0.00000 ]
LCAOMinimize: Iter:  12  F: -2005.8279104937755619  |grad|_K:  1.741e-02  alpha:  0.000e+00
	FillingsUpdate:  mu: +0.030044037  nElectrons: 352.000000  magneticMoment: [ Abs: 11.69367  Tot: -0.00000 ]
LCAOMinimize: Iter:  13  F: -2009.3385734414096078  |grad|_K:  1.062e-02  alpha:  2.187e-02  linmin:  2.309e-02  cgtest: -1.753e-01  t[s]:    245.36
	FillingsUpdate:  mu: +0.008747843  nElectrons: 352.000000  magneticMoment: [ Abs: 13.27354  Tot: -0.00000 ]
LCAOMinimize: Iter:  14  F: -2010.0283242171740312  |grad|_K:  9.727e-03  alpha:  1.674e-02  linmin: -5.776e-03  cgtest:  5.873e-01  t[s]:    259.83
	FillingsUpdate:  mu: +0.192272606  nElectrons: 352.000000  magneticMoment: [ Abs: 12.97305  Tot: +0.00000 ]
LCAOMinimize: Iter:  15  F: -2011.1190296059940010  |grad|_K:  7.208e-03  alpha:  2.504e-02  linmin:  1.058e-02  cgtest: -1.685e-01  t[s]:    274.22
LCAOMinimize: 	Predicted alpha/alphaT>3.000000, increasing alphaT to 7.512948e-02.
	FillingsUpdate:  mu: +0.156231552  nElectrons: 352.000000  magneticMoment: [ Abs: 13.73277  Tot: -0.00000 ]
LCAOMinimize: Iter:  16  F: -2012.7674003132847247  |grad|_K:  6.156e-03  alpha:  8.607e-02  linmin:  3.930e-02  cgtest:  8.625e-02  t[s]:    292.54
	FillingsUpdate:  mu: +0.153011068  nElectrons: 352.000000  magneticMoment: [ Abs: 14.29625  Tot: +0.00000 ]
LCAOMinimize: Iter:  17  F: -2012.8656155285907516  |grad|_K:  5.642e-03  alpha:  9.719e-03  linmin: -6.023e-03  cgtest:  8.979e-01  t[s]:    307.19
LCAOMinimize: 	Predicted alpha/alphaT>3.000000, increasing alphaT to 2.915581e-02.
	FillingsUpdate:  mu: +0.091476841  nElectrons: 352.000000  magneticMoment: [ Abs: 15.58837  Tot: +0.00000 ]
LCAOMinimize: Iter:  18  F: -2013.6491372441255407  |grad|_K:  2.192e-03  alpha:  4.960e-02  linmin: -4.232e-02  cgtest:  4.133e-01  t[s]:    325.89
LCAOMinimize: Encountered beta<0, resetting CG.
	FillingsUpdate:  mu: +0.094561162  nElectrons: 352.000000  magneticMoment: [ Abs: 16.02031  Tot: -0.00000 ]
LCAOMinimize: Iter:  19  F: -2013.6901339143673795  |grad|_K:  1.925e-03  alpha:  1.883e-02  linmin:  2.971e-03  cgtest: -4.462e-02  t[s]:    340.48
	FillingsUpdate:  mu: +0.082781858  nElectrons: 352.000000  magneticMoment: [ Abs: 17.16550  Tot: +0.00000 ]
LCAOMinimize: Iter:  20  F: -2013.7891883123227217  |grad|_K:  1.362e-03  alpha:  5.629e-02  linmin: -3.252e-03  cgtest:  3.858e-01  t[s]:    354.77
	FillingsUpdate:  mu: +0.099176810  nElectrons: 352.000000  magneticMoment: [ Abs: 17.55593  Tot: -0.00000 ]
LCAOMinimize: Iter:  21  F: -2013.8228273123418148  |grad|_K:  1.711e-03  alpha:  3.863e-02  linmin: -3.616e-05  cgtest: -2.877e-02  t[s]:    369.30
	FillingsUpdate:  mu: +0.091203568  nElectrons: 352.000000  magneticMoment: [ Abs: 18.58182  Tot: -0.00000 ]
LCAOMinimize: Iter:  22  F: -2013.8656063383721175  |grad|_K:  1.088e-03  alpha:  3.042e-02  linmin:  1.727e-04  cgtest: -9.572e-02  t[s]:    383.80
LCAOMinimize: 	Predicted alpha/alphaT>3.000000, increasing alphaT to 9.126436e-02.
	FillingsUpdate:  mu: +0.082078394  nElectrons: 352.000000  magneticMoment: [ Abs: 20.68885  Tot: -0.00000 ]
LCAOMinimize: Iter:  23  F: -2013.9270849899276072  |grad|_K:  1.570e-03  alpha:  1.105e-01  linmin: -5.287e-05  cgtest:  4.033e-01  t[s]:    402.50
	FillingsUpdate:  mu: +0.119300134  nElectrons: 352.000000  magneticMoment: [ Abs: 21.33091  Tot: -0.00000 ]
LCAOMinimize: Iter:  24  F: -2013.9501350622604150  |grad|_K:  1.641e-03  alpha:  3.490e-02  linmin:  3.247e-03  cgtest: -5.094e-01  t[s]:    417.01
	FillingsUpdate:  mu: +0.129576623  nElectrons: 352.000000  magneticMoment: [ Abs: 22.11037  Tot: +0.00000 ]
LCAOMinimize: Iter:  25  F: -2013.9628707354693233  |grad|_K:  1.331e-03  alpha:  1.608e-02  linmin: -3.247e-04  cgtest:  8.147e-01  t[s]:    431.58
LCAOMinimize: Encountered beta<0, resetting CG.
	FillingsUpdate:  mu: +0.103187215  nElectrons: 352.000000  magneticMoment: [ Abs: 22.48195  Tot: +0.00000 ]
LCAOMinimize: Iter:  26  F: -2013.9814302432446311  |grad|_K:  1.243e-03  alpha:  2.471e-02  linmin:  2.256e-02  cgtest: -1.517e-01  t[s]:    446.16
	FillingsUpdate:  mu: +0.095145187  nElectrons: 352.000000  magneticMoment: [ Abs: 22.71606  Tot: -0.00000 ]
LCAOMinimize: Iter:  27  F: -2013.9937885822396311  |grad|_K:  1.133e-03  alpha:  2.343e-02  linmin: -7.893e-04  cgtest:  6.962e-01  t[s]:    460.72
	FillingsUpdate:  mu: +0.099937196  nElectrons: 352.000000  magneticMoment: [ Abs: 22.68575  Tot: -0.00000 ]
LCAOMinimize: Iter:  28  F: -2014.0066332752774088  |grad|_K:  8.325e-04  alpha:  2.124e-02  linmin: -1.578e-03  cgtest: -3.769e-02  t[s]:    475.32
	FillingsUpdate:  mu: +0.108318112  nElectrons: 352.000000  magneticMoment: [ Abs: 23.01151  Tot: +0.00000 ]
LCAOMinimize: Iter:  29  F: -2014.0168475530842898  |grad|_K:  6.523e-04  alpha:  3.069e-02  linmin: -6.068e-04  cgtest: -1.298e-02  t[s]:    489.96
LCAOMinimize: 	Predicted alpha/alphaT>3.000000, increasing alphaT to 9.207260e-02.
	FillingsUpdate:  mu: +0.101620538  nElectrons: 352.000000  magneticMoment: [ Abs: 24.22753  Tot: -0.00000 ]
LCAOMinimize: Iter:  30  F: -2014.0385187345284521  |grad|_K:  1.150e-03  alpha:  1.088e-01  linmin:  1.325e-03  cgtest:  2.112e-01  t[s]:    508.76
LCAOMinimize: None of the convergence criteria satisfied after 30 iterations.


---- Citations for features of the code used in this run ----

   Software package:
      R. Sundararaman, K. Letchworth-Weaver, K.A. Schwarz, D. Gunceler, Y. Ozhabes and T.A. Arias, 'JDFTx: software for joint density-functional theory', SoftwareX 6, 278 (2017)

   Simplified rotationally-invariant DFT+U:
      S. L. Dudarev et al., Phys. Rev. B 57, 1505 (1998)

   LibXC library of exchange-correlation functions:
      M. A. L. Marques, M. J. T. Oliveira and T. Burnus, Comput. Phys. Commun. 183, 2272 (2012)

   Hammer, Hansen, and Norskov exchange functional:
      B. Hammer, L. B. Hansen, and J. K. Nørskov, Phys. Rev. B 59, 7413 (1999)

   Perdew, Burke & Ernzerhof correlation functional:
      J. P. Perdew, K. Burke, and M. Ernzerhof, Phys. Rev. Lett. 77, 3865 (1996)

   Pseudopotentials:
      M Schlipf and F Gygi, Comput. Phys. Commun. 196, 36 (2015)

   Total energy minimization with Auxiliary Hamiltonian:
      C. Freysoldt, S. Boeck, and J. Neugebauer, Phys. Rev. B 79, 241103(R) (2009)

This list may not be complete. Please suggest additional citations or
report any other bugs at https://github.com/shankar1729/jdftx/issues

Initialization completed successfully at t[s]:    515.08


-------- Electronic minimization -----------
	FillingsUpdate:  mu: +0.101620539  nElectrons: 352.000000  magneticMoment: [ Abs: 24.22753  Tot: -0.00000 ]
ElecMinimize: Iter:   0  F: -2014.038518734532317  |grad|_K:  1.035e-03  alpha:  1.000e+00
	FillingsUpdate:  mu: +1.131749971  nElectrons: 352.000000  magneticMoment: [ Abs: 20.41821  Tot: -0.00000 ]
	SubspaceRotationAdjust: set factor to 0.704
ElecMinimize: Iter:   1  F: -2059.293668123856150  |grad|_K:  2.041e-03  alpha:  4.518e-01  linmin:  9.074e-03  t[s]:    609.02
ElecMinimize: 	Step increased F by 1.487009e+01, reducing alpha to 5.016340e-03.
	FillingsUpdate:  mu: +0.630079733  nElectrons: 352.000000  magneticMoment: [ Abs: 22.38940  Tot: -0.00000 ]
	SubspaceRotationAdjust: set factor to 0.808
ElecMinimize: Iter:   2  F: -2064.594495809919408  |grad|_K:  1.017e-03  alpha:  5.016e-03  linmin: -3.482e-03  t[s]:    723.42
	FillingsUpdate:  mu: +0.387993117  nElectrons: 352.000000  magneticMoment: [ Abs: 23.83274  Tot: +0.00000 ]
	SubspaceRotationAdjust: set factor to 1.02
ElecMinimize: Iter:   3  F: -2066.916553153375389  |grad|_K:  8.075e-04  alpha:  8.766e-03  linmin: -4.814e-03  t[s]:    798.17
ElecMinimize: 	Predicted alpha/alphaT>3.000000, increasing alphaT to 2.629746e-02.
	FillingsUpdate:  mu: +0.754771045  nElectrons: 352.000000  magneticMoment: [ Abs: 28.43462  Tot: -0.00000 ]
	SubspaceRotationAdjust: set factor to 0.825
ElecMinimize: Iter:   4  F: -2072.411109830293753  |grad|_K:  1.049e-03  alpha:  2.937e-02  linmin: -1.812e-03  t[s]:    900.70
	FillingsUpdate:  mu: +0.741152965  nElectrons: 352.000000  magneticMoment: [ Abs: 30.94090  Tot: -0.00000 ]
	SubspaceRotationAdjust: set factor to 0.448
ElecMinimize: Iter:   5  F: -2084.338142469898685  |grad|_K:  1.514e-03  alpha:  5.750e-02  linmin:  4.035e-03  t[s]:    975.21
	FillingsUpdate:  mu: +0.735216427  nElectrons: 352.000000  magneticMoment: [ Abs: 30.93783  Tot: +0.00000 ]
	SubspaceRotationAdjust: set factor to 0.257
ElecMinimize: Iter:   6  F: -2084.425447400076791  |grad|_K:  1.146e-03  alpha:  1.424e-04  linmin: -2.093e-04  t[s]:   1051.29
ElecMinimize: 	Predicted alpha/alphaT>3.000000, increasing alphaT to 4.271483e-04.
ElecMinimize: 	Predicted alpha/alphaT>3.000000, increasing alphaT to 1.281445e-03.
ElecMinimize: 	Predicted alpha/alphaT>3.000000, increasing alphaT to 3.844334e-03.
	FillingsUpdate:  mu: +0.497519988  nElectrons: 352.000000  magneticMoment: [ Abs: 29.82880  Tot: +0.00000 ]
	SubspaceRotationAdjust: set factor to 0.209
ElecMinimize: Iter:   7  F: -2087.136843572346152  |grad|_K:  6.913e-04  alpha:  9.718e-03  linmin: -1.122e-03  t[s]:   1192.14
	FillingsUpdate:  mu: +0.342284887  nElectrons: 352.000000  magneticMoment: [ Abs: 28.67904  Tot: -0.00000 ]
	SubspaceRotationAdjust: set factor to 0.3
ElecMinimize: Iter:   8  F: -2089.619092794646349  |grad|_K:  4.813e-04  alpha:  2.055e-02  linmin: -1.151e-03  t[s]:   1268.84
ElecMinimize: 	Predicted alpha/alphaT>3.000000, increasing alphaT to 6.164532e-02.
	FillingsUpdate:  mu: +0.125535380  nElectrons: 352.000000  magneticMoment: [ Abs: 25.82015  Tot: -0.00000 ]
	SubspaceRotationAdjust: set factor to 0.305
ElecMinimize: Iter:   9  F: -2093.881284729115123  |grad|_K:  3.561e-04  alpha:  7.998e-02  linmin:  4.808e-04  t[s]:   1375.63
	FillingsUpdate:  mu: +0.151729057  nElectrons: 352.000000  magneticMoment: [ Abs: 24.76617  Tot: -0.00000 ]
	SubspaceRotationAdjust: set factor to 0.353
ElecMinimize: Iter:  10  F: -2094.813919426806024  |grad|_K:  3.472e-04  alpha:  5.066e-02  linmin: -2.003e-04  t[s]:   1451.66
	FillingsUpdate:  mu: +0.219146247  nElectrons: 352.000000  magneticMoment: [ Abs: 25.18463  Tot: +0.00000 ]
	SubspaceRotationAdjust: set factor to 0.414
ElecMinimize: Iter:  11  F: -2096.012636014659620  |grad|_K:  2.922e-04  alpha:  5.440e-02  linmin: -4.633e-05  t[s]:   1527.93
	FillingsUpdate:  mu: +0.206588208  nElectrons: 352.000000  magneticMoment: [ Abs: 26.05618  Tot: +0.00000 ]
	SubspaceRotationAdjust: set factor to 0.555
ElecMinimize: Iter:  12  F: -2096.757274830624738  |grad|_K:  2.463e-04  alpha:  4.979e-02  linmin: -9.632e-05  t[s]:   1604.40
	FillingsUpdate:  mu: +0.224963607  nElectrons: 352.000000  magneticMoment: [ Abs: 27.16219  Tot: -0.00000 ]
	SubspaceRotationAdjust: set factor to 0.574
ElecMinimize: Iter:  13  F: -2097.290565121478267  |grad|_K:  2.586e-04  alpha:  4.862e-02  linmin:  1.636e-04  t[s]:   1683.60
	FillingsUpdate:  mu: +0.114294872  nElectrons: 352.000000  magneticMoment: [ Abs: 27.38376  Tot: -0.00000 ]
	SubspaceRotationAdjust: set factor to 0.764
ElecMinimize: Iter:  14  F: -2097.592414355453911  |grad|_K:  2.199e-04  alpha:  2.490e-02  linmin: -6.826e-05  t[s]:   1760.16
	FillingsUpdate:  mu: +0.102279591  nElectrons: 352.000000  magneticMoment: [ Abs: 27.37278  Tot: +0.00000 ]
	SubspaceRotationAdjust: set factor to 0.661
ElecMinimize: Iter:  15  F: -2097.817129024153019  |grad|_K:  2.427e-04  alpha:  2.574e-02  linmin:  3.404e-05  t[s]:   1837.03
	FillingsUpdate:  mu: +0.124406732  nElectrons: 352.000000  magneticMoment: [ Abs: 27.26076  Tot: +0.00000 ]
	SubspaceRotationAdjust: set factor to 0.453
ElecMinimize: Iter:  16  F: -2098.061245039981259  |grad|_K:  2.658e-04  alpha:  2.410e-02  linmin:  8.972e-05  t[s]:   1912.33
	FillingsUpdate:  mu: +0.171911576  nElectrons: 352.000000  magneticMoment: [ Abs: 27.47016  Tot: -0.00000 ]
	SubspaceRotationAdjust: set factor to 0.337
ElecMinimize: Iter:  17  F: -2098.263063696072550  |grad|_K:  2.256e-04  alpha:  1.737e-02  linmin:  1.396e-05  t[s]:   1987.80
	FillingsUpdate:  mu: +0.199649169  nElectrons: 352.000000  magneticMoment: [ Abs: 28.07489  Tot: -0.00000 ]
	SubspaceRotationAdjust: set factor to 0.411
ElecMinimize: Iter:  18  F: -2098.421628336035155  |grad|_K:  1.661e-04  alpha:  1.812e-02  linmin:  4.092e-05  t[s]:   2063.79
	FillingsUpdate:  mu: +0.240142675  nElectrons: 352.000000  magneticMoment: [ Abs: 28.59795  Tot: -0.00000 ]
	SubspaceRotationAdjust: set factor to 0.492
ElecMinimize: Iter:  19  F: -2098.516365265712011  |grad|_K:  1.597e-04  alpha:  2.043e-02  linmin: -9.173e-06  t[s]:   2140.26
	FillingsUpdate:  mu: +0.253698048  nElectrons: 352.000000  magneticMoment: [ Abs: 29.10948  Tot: -0.00000 ]
	SubspaceRotationAdjust: set factor to 0.363
ElecMinimize: Iter:  20  F: -2098.645156269443305  |grad|_K:  1.959e-04  alpha:  2.807e-02  linmin: -5.994e-05  t[s]:   2216.55
	FillingsUpdate:  mu: +0.215120609  nElectrons: 352.000000  magneticMoment: [ Abs: 29.19755  Tot: -0.00000 ]
	SubspaceRotationAdjust: set factor to 0.3
ElecMinimize: Iter:  21  F: -2098.827937362277225  |grad|_K:  1.644e-04  alpha:  2.513e-02  linmin:  8.859e-05  t[s]:   2294.33
	FillingsUpdate:  mu: +0.156162604  nElectrons: 352.000000  magneticMoment: [ Abs: 29.04997  Tot: -0.00000 ]
	SubspaceRotationAdjust: set factor to 0.334
ElecMinimize: Iter:  22  F: -2098.901316551844047  |grad|_K:  1.372e-04  alpha:  1.654e-02  linmin: -1.281e-07  t[s]:   2370.20
	FillingsUpdate:  mu: +0.126552427  nElectrons: 352.000000  magneticMoment: [ Abs: 28.92306  Tot: +0.00000 ]
	SubspaceRotationAdjust: set factor to 0.304
ElecMinimize: Iter:  23  F: -2098.962835949974306  |grad|_K:  1.440e-04  alpha:  1.892e-02  linmin:  3.959e-05  t[s]:   2444.53
	FillingsUpdate:  mu: +0.107292812  nElectrons: 352.000000  magneticMoment: [ Abs: 28.97230  Tot: +0.00000 ]
	SubspaceRotationAdjust: set factor to 0.213
ElecMinimize: Iter:  24  F: -2099.029706199263728  |grad|_K:  1.665e-04  alpha:  1.928e-02  linmin:  5.566e-06  t[s]:   2519.87
	FillingsUpdate:  mu: +0.105062500  nElectrons: 352.000000  magneticMoment: [ Abs: 29.63608  Tot: -0.00000 ]
	SubspaceRotationAdjust: set factor to 0.152
ElecMinimize: Iter:  25  F: -2099.145191028350382  |grad|_K:  1.551e-04  alpha:  2.389e-02  linmin: -1.193e-05  t[s]:   2595.20
	FillingsUpdate:  mu: +0.109404701  nElectrons: 352.000000  magneticMoment: [ Abs: 30.54846  Tot: +0.00000 ]
	SubspaceRotationAdjust: set factor to 0.191
ElecMinimize: Iter:  26  F: -2099.229466830438923  |grad|_K:  1.186e-04  alpha:  1.966e-02  linmin:  2.134e-05  t[s]:   2672.27
	FillingsUpdate:  mu: +0.108737421  nElectrons: 352.000000  magneticMoment: [ Abs: 31.22048  Tot: -0.00000 ]
	SubspaceRotationAdjust: set factor to 0.239
ElecMinimize: Iter:  27  F: -2099.287991537130438  |grad|_K:  1.048e-04  alpha:  2.404e-02  linmin: -5.572e-05  t[s]:   2748.14
	FillingsUpdate:  mu: +0.143421594  nElectrons: 352.000000  magneticMoment: [ Abs: 31.82768  Tot: -0.00000 ]
	SubspaceRotationAdjust: set factor to 0.247
ElecMinimize: Iter:  28  F: -2099.354627473165237  |grad|_K:  1.055e-04  alpha:  3.275e-02  linmin:  1.860e-05  t[s]:   2825.70
	FillingsUpdate:  mu: +0.192725416  nElectrons: 352.000000  magneticMoment: [ Abs: 32.30136  Tot: +0.00000 ]
	SubspaceRotationAdjust: set factor to 0.194
ElecMinimize: Iter:  29  F: -2099.419016635499247  |grad|_K:  1.242e-04  alpha:  3.402e-02  linmin:  1.174e-05  t[s]:   2901.64
	FillingsUpdate:  mu: +0.190226500  nElectrons: 352.000000  magneticMoment: [ Abs: 32.56147  Tot: +0.00000 ]
	SubspaceRotationAdjust: set factor to 0.162
ElecMinimize: Iter:  30  F: -2099.493134296597873  |grad|_K:  1.063e-04  alpha:  2.791e-02  linmin:  8.272e-07  t[s]:   2978.80
	FillingsUpdate:  mu: +0.152063630  nElectrons: 352.000000  magneticMoment: [ Abs: 32.59930  Tot: -0.00000 ]
	SubspaceRotationAdjust: set factor to 0.258
ElecMinimize: Iter:  31  F: -2099.542389857007493  |grad|_K:  8.180e-05  alpha:  2.484e-02  linmin:  2.515e-05  t[s]:   3054.83
	FillingsUpdate:  mu: +0.133412563  nElectrons: 352.000000  magneticMoment: [ Abs: 32.59473  Tot: +0.00000 ]
	SubspaceRotationAdjust: set factor to 0.31
ElecMinimize: Iter:  32  F: -2099.568101622888207  |grad|_K:  7.449e-05  alpha:  2.213e-02  linmin:  6.402e-05  t[s]:   3130.82
	FillingsUpdate:  mu: +0.133987693  nElectrons: 352.000000  magneticMoment: [ Abs: 32.58800  Tot: +0.00000 ]
	SubspaceRotationAdjust: set factor to 0.373
ElecMinimize: Iter:  33  F: -2099.580886729386748  |grad|_K:  7.119e-05  alpha:  1.265e-02  linmin: -5.543e-05  t[s]:   3205.72
	FillingsUpdate:  mu: +0.135953336  nElectrons: 352.000000  magneticMoment: [ Abs: 32.59733  Tot: +0.00000 ]
	SubspaceRotationAdjust: set factor to 0.479
ElecMinimize: Iter:  34  F: -2099.590923306789591  |grad|_K:  7.104e-05  alpha:  1.065e-02  linmin:  5.276e-05  t[s]:   3282.22
	FillingsUpdate:  mu: +0.133004132  nElectrons: 352.000000  magneticMoment: [ Abs: 32.63000  Tot: +0.00000 ]
	SubspaceRotationAdjust: set factor to 0.473
ElecMinimize: Iter:  35  F: -2099.596902084981593  |grad|_K:  7.209e-05  alpha:  6.735e-03  linmin: -1.563e-05  t[s]:   3359.67
	FillingsUpdate:  mu: +0.125186132  nElectrons: 352.000000  magneticMoment: [ Abs: 32.68880  Tot: +0.00000 ]
	SubspaceRotationAdjust: set factor to 0.464
ElecMinimize: Iter:  36  F: -2099.601601716224195  |grad|_K:  6.529e-05  alpha:  5.033e-03  linmin:  1.478e-05  t[s]:   3435.36
	FillingsUpdate:  mu: +0.114855886  nElectrons: 352.000000  magneticMoment: [ Abs: 32.75711  Tot: -0.00000 ]
	SubspaceRotationAdjust: set factor to 0.484
ElecMinimize: Iter:  37  F: -2099.604747636539742  |grad|_K:  5.749e-05  alpha:  4.246e-03  linmin:  2.043e-05  t[s]:   3511.66
	FillingsUpdate:  mu: +0.110222020  nElectrons: 352.000000  magneticMoment: [ Abs: 32.82804  Tot: -0.00000 ]
	SubspaceRotationAdjust: set factor to 0.517
ElecMinimize: Iter:  38  F: -2099.607022100280574  |grad|_K:  5.178e-05  alpha:  3.989e-03  linmin:  1.747e-05  t[s]:   3587.47
	FillingsUpdate:  mu: +0.108741447  nElectrons: 352.000000  magneticMoment: [ Abs: 32.89952  Tot: -0.00000 ]
	SubspaceRotationAdjust: set factor to 0.515
ElecMinimize: Iter:  39  F: -2099.608828968384387  |grad|_K:  4.868e-05  alpha:  3.901e-03  linmin:  1.134e-05  t[s]:   3666.19
	FillingsUpdate:  mu: +0.108795360  nElectrons: 352.000000  magneticMoment: [ Abs: 32.97208  Tot: -0.00000 ]
	SubspaceRotationAdjust: set factor to 0.45
ElecMinimize: Iter:  40  F: -2099.610446869584848  |grad|_K:  4.736e-05  alpha:  3.939e-03  linmin:  6.593e-06  t[s]:   3741.79
	FillingsUpdate:  mu: +0.111700652  nElectrons: 352.000000  magneticMoment: [ Abs: 33.04525  Tot: -0.00000 ]
	SubspaceRotationAdjust: set factor to 0.351
ElecMinimize: Iter:  41  F: -2099.612057956249828  |grad|_K:  4.582e-05  alpha:  4.135e-03  linmin:  3.184e-06  t[s]:   3820.26
	FillingsUpdate:  mu: +0.112344781  nElectrons: 352.000000  magneticMoment: [ Abs: 33.11444  Tot: -0.00000 ]
	SubspaceRotationAdjust: set factor to 0.256
ElecMinimize: Iter:  42  F: -2099.613716826412201  |grad|_K:  4.234e-05  alpha:  4.544e-03  linmin:  1.812e-06  t[s]:   3898.90
	FillingsUpdate:  mu: +0.113022772  nElectrons: 352.000000  magneticMoment: [ Abs: 33.17274  Tot: +0.00000 ]
	SubspaceRotationAdjust: set factor to 0.184
ElecMinimize: Iter:  43  F: -2099.615351349812954  |grad|_K:  3.700e-05  alpha:  5.242e-03  linmin: -2.010e-08  t[s]:   3976.46
	FillingsUpdate:  mu: +0.113730887  nElectrons: 352.000000  magneticMoment: [ Abs: 33.21664  Tot: +0.00000 ]
	SubspaceRotationAdjust: set factor to 0.137
ElecMinimize: Iter:  44  F: -2099.616861343484743  |grad|_K:  3.132e-05  alpha:  6.337e-03  linmin: -6.835e-06  t[s]:   4051.38
	FillingsUpdate:  mu: +0.113807674  nElectrons: 352.000000  magneticMoment: [ Abs: 33.24809  Tot: +0.00000 ]
	SubspaceRotationAdjust: set factor to 0.111
	SubspaceRotationAdjust: resetting CG because factor has changed by 0.110947
ElecMinimize: 	State modified externally: resetting search direction.
ElecMinimize: Iter:  45  F: -2099.618211021941079  |grad|_K:  2.516e-05  alpha:  7.893e-03
ElecMinimize: 	Predicted alpha/alphaT>3.000000, increasing alphaT to 2.367812e-02.
ElecMinimize: 	Predicted alpha/alphaT>3.000000, increasing alphaT to 7.103436e-02.
ElecMinimize: 	Predicted alpha/alphaT>3.000000, increasing alphaT to 2.131031e-01.
	FillingsUpdate:  mu: +0.132377048  nElectrons: 352.000000  magneticMoment: [ Abs: 33.17490  Tot: -0.00000 ]
	SubspaceRotationAdjust: set factor to 0.0728
ElecMinimize: Iter:  46  F: -2099.653073428656171  |grad|_K:  2.946e-05  alpha:  3.190e-01  linmin:  8.171e-04  t[s]:   4282.87
	FillingsUpdate:  mu: +0.124533554  nElectrons: 352.000000  magneticMoment: [ Abs: 33.72226  Tot: +0.00000 ]
	SubspaceRotationAdjust: set factor to 0.0685
ElecMinimize: Iter:  47  F: -2099.702620454022508  |grad|_K:  2.634e-05  alpha:  3.315e-01  linmin: -8.523e-04  t[s]:   4360.18
	FillingsUpdate:  mu: +0.122055839  nElectrons: 352.000000  magneticMoment: [ Abs: 34.02737  Tot: +0.00000 ]
	SubspaceRotationAdjust: set factor to 0.0868
ElecMinimize: Iter:  48  F: -2099.753202962459909  |grad|_K:  2.240e-05  alpha:  4.020e-01  linmin: -9.282e-04  t[s]:   4438.02
	FillingsUpdate:  mu: +0.123958445  nElectrons: 352.000000  magneticMoment: [ Abs: 34.13449  Tot: -0.00000 ]
	SubspaceRotationAdjust: set factor to 0.086
ElecMinimize: Iter:  49  F: -2099.782931634412307  |grad|_K:  1.906e-05  alpha:  3.285e-01  linmin: -1.781e-04  t[s]:   4514.72
	FillingsUpdate:  mu: +0.119562694  nElectrons: 352.000000  magneticMoment: [ Abs: 34.49405  Tot: -0.00000 ]
	SubspaceRotationAdjust: set factor to 0.0833
ElecMinimize: Iter:  50  F: -2099.805794754217914  |grad|_K:  1.562e-05  alpha:  3.569e-01  linmin: -1.007e-03  t[s]:   4592.93
	FillingsUpdate:  mu: +0.117203518  nElectrons: 352.000000  magneticMoment: [ Abs: 34.64832  Tot: +0.00000 ]
	SubspaceRotationAdjust: set factor to 0.0898
ElecMinimize: Iter:  51  F: -2099.822861087058754  |grad|_K:  1.388e-05  alpha:  3.826e-01  linmin: -2.771e-04  t[s]:   4669.43
	FillingsUpdate:  mu: +0.117285247  nElectrons: 352.000000  magneticMoment: [ Abs: 34.82466  Tot: +0.00000 ]
	SubspaceRotationAdjust: set factor to 0.103
ElecMinimize: Iter:  52  F: -2099.836212134596281  |grad|_K:  1.256e-05  alpha:  3.920e-01  linmin: -2.046e-04  t[s]:   4747.54
	FillingsUpdate:  mu: +0.120673767  nElectrons: 352.000000  magneticMoment: [ Abs: 35.04572  Tot: +0.00000 ]
	SubspaceRotationAdjust: set factor to 0.112
ElecMinimize: Iter:  53  F: -2099.847034402308509  |grad|_K:  1.043e-05  alpha:  3.886e-01  linmin: -4.321e-04  t[s]:   4823.88
	FillingsUpdate:  mu: +0.122068536  nElectrons: 352.000000  magneticMoment: [ Abs: 35.17593  Tot: +0.00000 ]
	SubspaceRotationAdjust: set factor to 0.11
ElecMinimize: Iter:  54  F: -2099.854876987649277  |grad|_K:  1.062e-05  alpha:  4.039e-01  linmin:  7.841e-04  t[s]:   4901.11
	FillingsUpdate:  mu: +0.118994422  nElectrons: 352.000000  magneticMoment: [ Abs: 35.41282  Tot: -0.00000 ]
	SubspaceRotationAdjust: set factor to 0.127
ElecMinimize: Iter:  55  F: -2099.862038294259037  |grad|_K:  9.534e-06  alpha:  3.893e-01  linmin: -4.297e-04  t[s]:   4980.49
	FillingsUpdate:  mu: +0.118813018  nElectrons: 352.000000  magneticMoment: [ Abs: 35.54785  Tot: +0.00000 ]
	SubspaceRotationAdjust: set factor to 0.141
ElecMinimize: Iter:  56  F: -2099.868109195133002  |grad|_K:  7.932e-06  alpha:  3.688e-01  linmin: -7.362e-05  t[s]:   5056.85
	FillingsUpdate:  mu: +0.118334641  nElectrons: 352.000000  magneticMoment: [ Abs: 35.69396  Tot: -0.00000 ]
	SubspaceRotationAdjust: set factor to 0.164
ElecMinimize: Iter:  57  F: -2099.872414345290053  |grad|_K:  6.885e-06  alpha:  3.900e-01  linmin: -1.087e-04  t[s]:   5132.74
	FillingsUpdate:  mu: +0.117492894  nElectrons: 352.000000  magneticMoment: [ Abs: 35.83428  Tot: +0.00000 ]
	SubspaceRotationAdjust: set factor to 0.188
ElecMinimize: Iter:  58  F: -2099.875795706105237  |grad|_K:  6.397e-06  alpha:  4.057e-01  linmin: -9.698e-05  t[s]:   5208.81
	FillingsUpdate:  mu: +0.117192824  nElectrons: 352.000000  magneticMoment: [ Abs: 35.96045  Tot: +0.00000 ]
	SubspaceRotationAdjust: set factor to 0.216
ElecMinimize: Iter:  59  F: -2099.878781845812227  |grad|_K:  5.784e-06  alpha:  4.153e-01  linmin: -1.402e-05  t[s]:   5284.57
	FillingsUpdate:  mu: +0.119046443  nElectrons: 352.000000  magneticMoment: [ Abs: 36.11309  Tot: -0.00000 ]
	SubspaceRotationAdjust: set factor to 0.225
ElecMinimize: Iter:  60  F: -2099.881083922100515  |grad|_K:  6.090e-06  alpha:  3.952e-01  linmin: -1.329e-04  t[s]:   5361.01
	FillingsUpdate:  mu: +0.120700445  nElectrons: 352.000000  magneticMoment: [ Abs: 36.13840  Tot: +0.00000 ]
	SubspaceRotationAdjust: set factor to 0.175
ElecMinimize: Iter:  61  F: -2099.882476212747861  |grad|_K:  6.554e-06  alpha:  2.028e-01  linmin: -2.165e-04  t[s]:   5440.69
	FillingsUpdate:  mu: +0.117981131  nElectrons: 352.000000  magneticMoment: [ Abs: 36.28943  Tot: -0.00000 ]
	SubspaceRotationAdjust: set factor to 0.158
ElecMinimize: Iter:  62  F: -2099.884080763341444  |grad|_K:  4.987e-06  alpha:  2.099e-01  linmin: -1.506e-04  t[s]:   5517.55
	FillingsUpdate:  mu: +0.117597165  nElectrons: 352.000000  magneticMoment: [ Abs: 36.42219  Tot: +0.00000 ]
	SubspaceRotationAdjust: set factor to 0.19
ElecMinimize: Iter:  63  F: -2099.885849532990960  |grad|_K:  4.687e-06  alpha:  4.014e-01  linmin:  1.289e-05  t[s]:   5594.17
	FillingsUpdate:  mu: +0.119971699  nElectrons: 352.000000  magneticMoment: [ Abs: 36.49734  Tot: +0.00000 ]
	SubspaceRotationAdjust: set factor to 0.169
ElecMinimize: Iter:  64  F: -2099.887240587929227  |grad|_K:  5.569e-06  alpha:  3.628e-01  linmin:  1.162e-04  t[s]:   5670.21
	FillingsUpdate:  mu: +0.117458849  nElectrons: 352.000000  magneticMoment: [ Abs: 36.62280  Tot: -0.00000 ]
	SubspaceRotationAdjust: set factor to 0.13
ElecMinimize: Iter:  65  F: -2099.888162686200303  |grad|_K:  4.869e-06  alpha:  1.727e-01  linmin:  7.926e-06  t[s]:   5746.54
	FillingsUpdate:  mu: +0.117003470  nElectrons: 352.000000  magneticMoment: [ Abs: 36.69509  Tot: -0.00000 ]
	SubspaceRotationAdjust: set factor to 0.158
ElecMinimize: Iter:  66  F: -2099.889260661545904  |grad|_K:  3.803e-06  alpha:  2.724e-01  linmin:  4.477e-04  t[s]:   5822.75
	FillingsUpdate:  mu: +0.118779798  nElectrons: 352.000000  magneticMoment: [ Abs: 36.73561  Tot: -0.00000 ]
	SubspaceRotationAdjust: set factor to 0.145
ElecMinimize: Iter:  67  F: -2099.889972427335124  |grad|_K:  3.889e-06  alpha:  2.984e-01  linmin: -2.152e-05  t[s]:   5899.91
	FillingsUpdate:  mu: +0.118010658  nElectrons: 352.000000  magneticMoment: [ Abs: 36.81143  Tot: +0.00000 ]
	SubspaceRotationAdjust: set factor to 0.133
ElecMinimize: Iter:  68  F: -2099.890484775362893  |grad|_K:  3.336e-06  alpha:  1.988e-01  linmin: -2.615e-05  t[s]:   5975.81
	FillingsUpdate:  mu: +0.117795231  nElectrons: 352.000000  magneticMoment: [ Abs: 36.85145  Tot: +0.00000 ]
	SubspaceRotationAdjust: set factor to 0.158
ElecMinimize: Iter:  69  F: -2099.891094281690584  |grad|_K:  2.903e-06  alpha:  3.134e-01  linmin: -2.044e-05  t[s]:   6053.96
	FillingsUpdate:  mu: +0.119201883  nElectrons: 352.000000  magneticMoment: [ Abs: 36.89299  Tot: -0.00000 ]
	SubspaceRotationAdjust: set factor to 0.18
ElecMinimize: Iter:  70  F: -2099.891641770923343  |grad|_K:  3.046e-06  alpha:  3.729e-01  linmin:  4.725e-05  t[s]:   6130.63
	FillingsUpdate:  mu: +0.117886858  nElectrons: 352.000000  magneticMoment: [ Abs: 36.96381  Tot: +0.00000 ]
	SubspaceRotationAdjust: set factor to 0.153
ElecMinimize: Iter:  71  F: -2099.892034294799032  |grad|_K:  3.371e-06  alpha:  2.471e-01  linmin: -2.655e-06  t[s]:   6205.42
	FillingsUpdate:  mu: +0.118635072  nElectrons: 352.000000  magneticMoment: [ Abs: 36.99130  Tot: +0.00000 ]
	SubspaceRotationAdjust: set factor to 0.128
ElecMinimize: Iter:  72  F: -2099.892503698066776  |grad|_K:  2.982e-06  alpha:  2.367e-01  linmin:  1.521e-04  t[s]:   6283.23
	FillingsUpdate:  mu: +0.118125403  nElectrons: 352.000000  magneticMoment: [ Abs: 37.07180  Tot: +0.00000 ]
	SubspaceRotationAdjust: set factor to 0.149
ElecMinimize: Iter:  73  F: -2099.893061026670239  |grad|_K:  2.728e-06  alpha:  3.661e-01  linmin: -6.599e-05  t[s]:   6360.30
	FillingsUpdate:  mu: +0.118365236  nElectrons: 352.000000  magneticMoment: [ Abs: 37.15477  Tot: -0.00000 ]
	SubspaceRotationAdjust: set factor to 0.159
ElecMinimize: Iter:  74  F: -2099.893539841242273  |grad|_K:  2.700e-06  alpha:  3.658e-01  linmin: -6.202e-05  t[s]:   6436.96
	FillingsUpdate:  mu: +0.121025297  nElectrons: 352.000000  magneticMoment: [ Abs: 37.19959  Tot: -0.00000 ]
	SubspaceRotationAdjust: set factor to 0.134
ElecMinimize: Iter:  75  F: -2099.893899560230238  |grad|_K:  3.136e-06  alpha:  2.752e-01  linmin:  7.367e-05  t[s]:   6515.27
	FillingsUpdate:  mu: +0.118807534  nElectrons: 352.000000  magneticMoment: [ Abs: 37.30588  Tot: -0.00000 ]
	SubspaceRotationAdjust: set factor to 0.119
ElecMinimize: Iter:  76  F: -2099.894263084691374  |grad|_K:  2.671e-06  alpha:  2.159e-01  linmin: -4.515e-05  t[s]:   6591.05
	FillingsUpdate:  mu: +0.119054458  nElectrons: 352.000000  magneticMoment: [ Abs: 37.44527  Tot: +0.00000 ]
	SubspaceRotationAdjust: set factor to 0.132
ElecMinimize: Iter:  77  F: -2099.894777098828399  |grad|_K:  2.937e-06  alpha:  4.162e-01  linmin:  1.632e-04  t[s]:   6667.29
	FillingsUpdate:  mu: +0.121546062  nElectrons: 352.000000  magneticMoment: [ Abs: 37.64458  Tot: -0.00000 ]
	SubspaceRotationAdjust: set factor to 0.146
ElecMinimize: Iter:  78  F: -2099.895412224321717  |grad|_K:  3.930e-06  alpha:  4.380e-01  linmin:  3.726e-04  t[s]:   6742.77
	FillingsUpdate:  mu: +0.119193621  nElectrons: 352.000000  magneticMoment: [ Abs: 37.82947  Tot: +0.00000 ]
	SubspaceRotationAdjust: set factor to 0.136
ElecMinimize: Iter:  79  F: -2099.895908201298425  |grad|_K:  3.858e-06  alpha:  1.902e-01  linmin: -1.268e-04  t[s]:   6821.34
	FillingsUpdate:  mu: +0.119149433  nElectrons: 352.000000  magneticMoment: [ Abs: 38.00453  Tot: -0.00000 ]
	SubspaceRotationAdjust: set factor to 0.178
ElecMinimize: Iter:  80  F: -2099.896539136251249  |grad|_K:  3.402e-06  alpha:  2.381e-01  linmin:  1.897e-07  t[s]:   6899.23
	FillingsUpdate:  mu: +0.120281710  nElectrons: 352.000000  magneticMoment: [ Abs: 38.15644  Tot: -0.00000 ]
	SubspaceRotationAdjust: set factor to 0.205
ElecMinimize: Iter:  81  F: -2099.897089517384757  |grad|_K:  3.855e-06  alpha:  2.751e-01  linmin:  2.457e-04  t[s]:   6973.98
	FillingsUpdate:  mu: +0.121999623  nElectrons: 352.000000  magneticMoment: [ Abs: 38.28581  Tot: +0.00000 ]
	SubspaceRotationAdjust: set factor to 0.168
ElecMinimize: Iter:  82  F: -2099.897440483524861  |grad|_K:  4.601e-06  alpha:  1.361e-01  linmin:  1.196e-04  t[s]:   7050.57
	FillingsUpdate:  mu: +0.122323488  nElectrons: 352.000000  magneticMoment: [ Abs: 38.44161  Tot: +0.00000 ]
	SubspaceRotationAdjust: set factor to 0.199
ElecMinimize: Iter:  83  F: -2099.897960943173985  |grad|_K:  4.289e-06  alpha:  1.431e-01  linmin: -2.594e-04  t[s]:   7128.79
	FillingsUpdate:  mu: +0.121283748  nElectrons: 352.000000  magneticMoment: [ Abs: 38.56525  Tot: +0.00000 ]
	SubspaceRotationAdjust: set factor to 0.208
ElecMinimize: Iter:  84  F: -2099.898508214467711  |grad|_K:  4.795e-06  alpha:  1.632e-01  linmin: -1.869e-04  t[s]:   7207.24
	FillingsUpdate:  mu: +0.121812128  nElectrons: 352.000000  magneticMoment: [ Abs: 38.65520  Tot: -0.00000 ]
	SubspaceRotationAdjust: set factor to 0.235
ElecMinimize: Iter:  85  F: -2099.898878797729594  |grad|_K:  4.000e-06  alpha:  8.098e-02  linmin: -3.620e-04  t[s]:   7284.14
	FillingsUpdate:  mu: +0.122576667  nElectrons: 352.000000  magneticMoment: [ Abs: 38.72816  Tot: +0.00000 ]
	SubspaceRotationAdjust: set factor to 0.188
ElecMinimize: Iter:  86  F: -2099.899194346599415  |grad|_K:  4.989e-06  alpha:  1.097e-01  linmin:  4.920e-04  t[s]:   7362.82
	FillingsUpdate:  mu: +0.122308318  nElectrons: 352.000000  magneticMoment: [ Abs: 38.76426  Tot: -0.00000 ]
	SubspaceRotationAdjust: set factor to 0.187
ElecMinimize: Iter:  87  F: -2099.899433348410184  |grad|_K:  4.550e-06  alpha:  6.078e-02  linmin:  3.986e-06  t[s]:   7440.27
	FillingsUpdate:  mu: +0.121263548  nElectrons: 352.000000  magneticMoment: [ Abs: 38.77732  Tot: +0.00000 ]
	SubspaceRotationAdjust: set factor to 0.256
ElecMinimize: Iter:  88  F: -2099.899681528059773  |grad|_K:  3.949e-06  alpha:  6.836e-02  linmin: -1.912e-04  t[s]:   7518.27
	FillingsUpdate:  mu: +0.120239657  nElectrons: 352.000000  magneticMoment: [ Abs: 38.78313  Tot: +0.00000 ]
	SubspaceRotationAdjust: set factor to 0.28
ElecMinimize: Iter:  89  F: -2099.899942635574007  |grad|_K:  4.371e-06  alpha:  9.159e-02  linmin: -9.559e-05  t[s]:   7594.46
	FillingsUpdate:  mu: +0.120955048  nElectrons: 352.000000  magneticMoment: [ Abs: 38.81580  Tot: +0.00000 ]
	SubspaceRotationAdjust: set factor to 0.297
ElecMinimize: Iter:  90  F: -2099.900269208737882  |grad|_K:  4.402e-06  alpha:  9.612e-02  linmin:  2.072e-06  t[s]:   7671.53
	FillingsUpdate:  mu: +0.122600669  nElectrons: 352.000000  magneticMoment: [ Abs: 38.85850  Tot: -0.00000 ]
	SubspaceRotationAdjust: set factor to 0.365
ElecMinimize: Iter:  91  F: -2099.900510378696254  |grad|_K:  4.067e-06  alpha:  7.249e-02  linmin: -2.736e-05  t[s]:   7747.88
	FillingsUpdate:  mu: +0.123037526  nElectrons: 352.000000  magneticMoment: [ Abs: 38.89385  Tot: +0.00000 ]
	SubspaceRotationAdjust: set factor to 0.43
ElecMinimize: Iter:  92  F: -2099.900818583999808  |grad|_K:  4.442e-06  alpha:  1.052e-01  linmin: -8.777e-05  t[s]:   7824.32
	FillingsUpdate:  mu: +0.122420495  nElectrons: 352.000000  magneticMoment: [ Abs: 38.89281  Tot: +0.00000 ]
	SubspaceRotationAdjust: set factor to 0.493
ElecMinimize: Iter:  93  F: -2099.901059408703986  |grad|_K:  4.053e-06  alpha:  6.596e-02  linmin: -2.224e-05  t[s]:   7900.63
	FillingsUpdate:  mu: +0.122465412  nElectrons: 352.000000  magneticMoment: [ Abs: 38.90101  Tot: -0.00000 ]
	SubspaceRotationAdjust: set factor to 0.41
ElecMinimize: Iter:  94  F: -2099.901313749961901  |grad|_K:  5.136e-06  alpha:  8.887e-02  linmin:  5.714e-05  t[s]:   7975.65
	FillingsUpdate:  mu: +0.122512084  nElectrons: 352.000000  magneticMoment: [ Abs: 38.93881  Tot: +0.00000 ]
	SubspaceRotationAdjust: set factor to 0.605
ElecMinimize: Iter:  95  F: -2099.901550641128324  |grad|_K:  4.104e-06  alpha:  5.371e-02  linmin:  1.087e-05  t[s]:   8053.53
	FillingsUpdate:  mu: +0.123107990  nElectrons: 352.000000  magneticMoment: [ Abs: 38.97827  Tot: -0.00000 ]
	SubspaceRotationAdjust: set factor to 0.636
ElecMinimize: Iter:  96  F: -2099.901774086529713  |grad|_K:  4.768e-06  alpha:  7.562e-02  linmin: -7.720e-05  t[s]:   8131.31
	FillingsUpdate:  mu: +0.123036684  nElectrons: 352.000000  magneticMoment: [ Abs: 38.98628  Tot: -0.00000 ]
	SubspaceRotationAdjust: set factor to 0.796
ElecMinimize: Iter:  97  F: -2099.902058430771831  |grad|_K:  4.302e-06  alpha:  6.933e-02  linmin:  5.533e-05  t[s]:   8208.03
	FillingsUpdate:  mu: +0.121189847  nElectrons: 352.000000  magneticMoment: [ Abs: 38.98105  Tot: +0.00000 ]
	SubspaceRotationAdjust: set factor to 0.678
ElecMinimize: Iter:  98  F: -2099.902274193007543  |grad|_K:  5.427e-06  alpha:  6.842e-02  linmin:  8.753e-05  t[s]:   8285.25
	FillingsUpdate:  mu: +0.122208136  nElectrons: 352.000000  magneticMoment: [ Abs: 38.99879  Tot: -0.00000 ]
	SubspaceRotationAdjust: set factor to 0.97
	SubspaceRotationAdjust: resetting CG because factor has changed by 8.74192
ElecMinimize: 	State modified externally: resetting search direction.
ElecMinimize: Iter:  99  F: -2099.902495750099661  |grad|_K:  4.824e-06  alpha:  4.590e-02
	FillingsUpdate:  mu: +0.123925778  nElectrons: 352.000000  magneticMoment: [ Abs: 39.03661  Tot: -0.00000 ]
	SubspaceRotationAdjust: set factor to 0.58
ElecMinimize: Iter: 100  F: -2099.902878497863185  |grad|_K:  6.576e-06  alpha:  8.931e-02  linmin: -1.966e-03  t[s]:   8454.85
	FillingsUpdate:  mu: +0.123846070  nElectrons: 352.000000  magneticMoment: [ Abs: 38.98733  Tot: -0.00000 ]
	SubspaceRotationAdjust: set factor to 0.306
ElecMinimize: Iter: 101  F: -2099.903484835030213  |grad|_K:  3.821e-06  alpha:  7.182e-02  linmin:  8.084e-05  t[s]:   8532.56
	FillingsUpdate:  mu: +0.124028849  nElectrons: 352.000000  magneticMoment: [ Abs: 39.01620  Tot: +0.00000 ]
	SubspaceRotationAdjust: set factor to 0.207
ElecMinimize: Iter: 102  F: -2099.904012101593707  |grad|_K:  3.601e-06  alpha:  2.035e-01  linmin: -4.099e-04  t[s]:   8610.37
	FillingsUpdate:  mu: +0.121618133  nElectrons: 352.000000  magneticMoment: [ Abs: 38.96517  Tot: -0.00000 ]
	SubspaceRotationAdjust: set factor to 0.132
ElecMinimize: Iter: 103  F: -2099.904413085939268  |grad|_K:  2.443e-06  alpha:  1.623e-01  linmin:  4.378e-04  t[s]:   8685.40
	FillingsUpdate:  mu: +0.122534769  nElectrons: 352.000000  magneticMoment: [ Abs: 38.94854  Tot: +0.00000 ]
	SubspaceRotationAdjust: set factor to 0.18
ElecMinimize: Iter: 104  F: -2099.904709650502809  |grad|_K:  1.763e-06  alpha:  2.979e-01  linmin:  1.533e-04  t[s]:   8760.60
	FillingsUpdate:  mu: +0.123252750  nElectrons: 352.000000  magneticMoment: [ Abs: 38.94753  Tot: +0.00000 ]
	SubspaceRotationAdjust: set factor to 0.186
ElecMinimize: Iter: 105  F: -2099.904863428755561  |grad|_K:  1.637e-06  alpha:  2.884e-01  linmin: -1.127e-04  t[s]:   8837.54
	FillingsUpdate:  mu: +0.122885636  nElectrons: 352.000000  magneticMoment: [ Abs: 38.92408  Tot: -0.00000 ]
	SubspaceRotationAdjust: set factor to 0.185
ElecMinimize: Iter: 106  F: -2099.905004723907496  |grad|_K:  1.382e-06  alpha:  3.005e-01  linmin:  8.240e-05  t[s]:   8916.28
	FillingsUpdate:  mu: +0.123557560  nElectrons: 352.000000  magneticMoment: [ Abs: 38.92391  Tot: +0.00000 ]
	SubspaceRotationAdjust: set factor to 0.188
ElecMinimize: Iter: 107  F: -2099.905088022176642  |grad|_K:  1.055e-06  alpha:  2.528e-01  linmin: -2.336e-05  t[s]:   8994.23
	FillingsUpdate:  mu: +0.123444052  nElectrons: 352.000000  magneticMoment: [ Abs: 38.91357  Tot: -0.00000 ]
	SubspaceRotationAdjust: set factor to 0.223
ElecMinimize: Iter: 108  F: -2099.905161588005740  |grad|_K:  1.019e-06  alpha:  3.792e-01  linmin:  1.349e-06  t[s]:   9070.90
	FillingsUpdate:  mu: +0.123145493  nElectrons: 352.000000  magneticMoment: [ Abs: 38.90227  Tot: +0.00000 ]
	SubspaceRotationAdjust: set factor to 0.244
ElecMinimize: Iter: 109  F: -2099.905228038044243  |grad|_K:  1.035e-06  alpha:  3.675e-01  linmin:  7.484e-05  t[s]:   9149.37
	FillingsUpdate:  mu: +0.123579993  nElectrons: 352.000000  magneticMoment: [ Abs: 38.90780  Tot: +0.00000 ]
	SubspaceRotationAdjust: set factor to 0.23
ElecMinimize: Iter: 110  F: -2099.905283417104329  |grad|_K:  1.169e-06  alpha:  2.992e-01  linmin: -4.156e-05  t[s]:   9226.61
	FillingsUpdate:  mu: +0.123122450  nElectrons: 352.000000  magneticMoment: [ Abs: 38.89292  Tot: -0.00000 ]
	SubspaceRotationAdjust: set factor to 0.191
ElecMinimize: Iter: 111  F: -2099.905336955315761  |grad|_K:  1.111e-06  alpha:  2.217e-01  linmin:  4.215e-05  t[s]:   9301.24
	FillingsUpdate:  mu: +0.123717672  nElectrons: 352.000000  magneticMoment: [ Abs: 38.89369  Tot: -0.00000 ]
	SubspaceRotationAdjust: set factor to 0.196
ElecMinimize: Iter: 112  F: -2099.905408874827117  |grad|_K:  1.105e-06  alpha:  3.343e-01  linmin: -9.831e-05  t[s]:   9377.42
	FillingsUpdate:  mu: +0.123813198  nElectrons: 352.000000  magneticMoment: [ Abs: 38.89031  Tot: +0.00000 ]
	SubspaceRotationAdjust: set factor to 0.218
ElecMinimize: Iter: 113  F: -2099.905493029571971  |grad|_K:  1.097e-06  alpha:  3.901e-01  linmin: -8.479e-06  t[s]:   9455.32
	FillingsUpdate:  mu: +0.123191017  nElectrons: 352.000000  magneticMoment: [ Abs: 38.88306  Tot: -0.00000 ]
	SubspaceRotationAdjust: set factor to 0.219
ElecMinimize: Iter: 114  F: -2099.905572114083498  |grad|_K:  1.314e-06  alpha:  3.763e-01  linmin:  1.294e-04  t[s]:   9531.45
	FillingsUpdate:  mu: +0.123883161  nElectrons: 352.000000  magneticMoment: [ Abs: 38.89720  Tot: -0.00000 ]
	SubspaceRotationAdjust: set factor to 0.183
ElecMinimize: Iter: 115  F: -2099.905641894806649  |grad|_K:  1.304e-06  alpha:  2.441e-01  linmin:  7.119e-06  t[s]:   9606.43
	FillingsUpdate:  mu: +0.123538512  nElectrons: 352.000000  magneticMoment: [ Abs: 38.89085  Tot: +0.00000 ]
	SubspaceRotationAdjust: set factor to 0.17
ElecMinimize: Iter: 116  F: -2099.905720880004992  |grad|_K:  1.173e-06  alpha:  2.682e-01  linmin:  1.301e-04  t[s]:   9682.88
	FillingsUpdate:  mu: +0.123916849  nElectrons: 352.000000  magneticMoment: [ Abs: 38.89718  Tot: -0.00000 ]
	SubspaceRotationAdjust: set factor to 0.19
ElecMinimize: Iter: 117  F: -2099.905806786870016  |grad|_K:  1.151e-06  alpha:  3.661e-01  linmin: -7.777e-06  t[s]:   9759.93
	FillingsUpdate:  mu: +0.124245501  nElectrons: 352.000000  magneticMoment: [ Abs: 38.90522  Tot: +0.00000 ]
	SubspaceRotationAdjust: set factor to 0.21
ElecMinimize: Iter: 118  F: -2099.905885892334481  |grad|_K:  1.117e-06  alpha:  3.426e-01  linmin: -7.018e-06  t[s]:   9836.53
	FillingsUpdate:  mu: +0.124028172  nElectrons: 352.000000  magneticMoment: [ Abs: 38.90268  Tot: -0.00000 ]
	SubspaceRotationAdjust: set factor to 0.211
ElecMinimize: Iter: 119  F: -2099.905955063476995  |grad|_K:  1.220e-06  alpha:  3.177e-01  linmin:  2.894e-05  t[s]:   9912.35
	FillingsUpdate:  mu: +0.124744701  nElectrons: 352.000000  magneticMoment: [ Abs: 38.91745  Tot: -0.00000 ]
	SubspaceRotationAdjust: set factor to 0.204
ElecMinimize: Iter: 120  F: -2099.906026892676891  |grad|_K:  1.231e-06  alpha:  2.790e-01  linmin: -4.789e-05  t[s]:   9989.48
	FillingsUpdate:  mu: +0.124727881  nElectrons: 352.000000  magneticMoment: [ Abs: 38.91788  Tot: -0.00000 ]
	SubspaceRotationAdjust: set factor to 0.218
ElecMinimize: Iter: 121  F: -2099.906115005249831  |grad|_K:  1.233e-06  alpha:  3.325e-01  linmin:  8.886e-05  t[s]:  10065.24
	FillingsUpdate:  mu: +0.124978478  nElectrons: 352.000000  magneticMoment: [ Abs: 38.92489  Tot: +0.00000 ]
	SubspaceRotationAdjust: set factor to 0.253
ElecMinimize: Iter: 122  F: -2099.906207315631491  |grad|_K:  1.242e-06  alpha:  3.538e-01  linmin:  3.713e-05  t[s]:  10143.32
	FillingsUpdate:  mu: +0.125247402  nElectrons: 352.000000  magneticMoment: [ Abs: 38.93315  Tot: +0.00000 ]
	SubspaceRotationAdjust: set factor to 0.285
ElecMinimize: Iter: 123  F: -2099.906300581972573  |grad|_K:  1.314e-06  alpha:  3.494e-01  linmin:  1.838e-06  t[s]:  10222.59
	FillingsUpdate:  mu: +0.124950269  nElectrons: 352.000000  magneticMoment: [ Abs: 38.92823  Tot: +0.00000 ]
	SubspaceRotationAdjust: set factor to 0.285
ElecMinimize: Iter: 124  F: -2099.906383525275032  |grad|_K:  1.411e-06  alpha:  2.736e-01  linmin:  3.250e-05  t[s]:  10298.36
	FillingsUpdate:  mu: +0.125696152  nElectrons: 352.000000  magneticMoment: [ Abs: 38.93929  Tot: +0.00000 ]
	SubspaceRotationAdjust: set factor to 0.252
ElecMinimize: Iter: 125  F: -2099.906446800183403  |grad|_K:  1.295e-06  alpha:  1.858e-01  linmin: -6.255e-06  t[s]:  10376.35
	FillingsUpdate:  mu: +0.125580332  nElectrons: 352.000000  magneticMoment: [ Abs: 38.93218  Tot: -0.00000 ]
	SubspaceRotationAdjust: set factor to 0.248
ElecMinimize: Iter: 126  F: -2099.906518119886641  |grad|_K:  1.140e-06  alpha:  2.453e-01  linmin:  7.640e-05  t[s]:  10453.59
	FillingsUpdate:  mu: +0.125973018  nElectrons: 352.000000  magneticMoment: [ Abs: 38.93638  Tot: +0.00000 ]
	SubspaceRotationAdjust: set factor to 0.274
ElecMinimize: Iter: 127  F: -2099.906577105509314  |grad|_K:  9.924e-07  alpha:  2.648e-01  linmin: -3.102e-05  t[s]:  10530.48
	FillingsUpdate:  mu: +0.125847724  nElectrons: 352.000000  magneticMoment: [ Abs: 38.93283  Tot: -0.00000 ]
	SubspaceRotationAdjust: set factor to 0.307
ElecMinimize: Iter: 128  F: -2099.906629110924769  |grad|_K:  9.574e-07  alpha:  3.014e-01  linmin:  1.801e-05  t[s]:  10606.68
	FillingsUpdate:  mu: +0.126113647  nElectrons: 352.000000  magneticMoment: [ Abs: 38.93894  Tot: -0.00000 ]
	SubspaceRotationAdjust: set factor to 0.308
ElecMinimize: Iter: 129  F: -2099.906669233298544  |grad|_K:  1.008e-06  alpha:  2.529e-01  linmin: -1.047e-05  t[s]:  10683.52
	FillingsUpdate:  mu: +0.125666123  nElectrons: 352.000000  magneticMoment: [ Abs: 38.93087  Tot: +0.00000 ]
	SubspaceRotationAdjust: set factor to 0.268
ElecMinimize: Iter: 130  F: -2099.906700921461834  |grad|_K:  1.030e-06  alpha:  1.767e-01  linmin:  6.538e-06  t[s]:  10761.58
	FillingsUpdate:  mu: +0.125970294  nElectrons: 352.000000  magneticMoment: [ Abs: 38.93645  Tot: -0.00000 ]
	SubspaceRotationAdjust: set factor to 0.274
ElecMinimize: Iter: 131  F: -2099.906741824665914  |grad|_K:  9.218e-07  alpha:  2.213e-01  linmin: -2.398e-05  t[s]:  10837.49
	FillingsUpdate:  mu: +0.125873002  nElectrons: 352.000000  magneticMoment: [ Abs: 38.93377  Tot: -0.00000 ]
	SubspaceRotationAdjust: set factor to 0.307
ElecMinimize: Iter: 132  F: -2099.906788939284525  |grad|_K:  9.269e-07  alpha:  3.171e-01  linmin:  2.333e-05  t[s]:  10913.30
	FillingsUpdate:  mu: +0.126214121  nElectrons: 352.000000  magneticMoment: [ Abs: 38.93854  Tot: -0.00000 ]
	SubspaceRotationAdjust: set factor to 0.332
ElecMinimize: Iter: 133  F: -2099.906836428605857  |grad|_K:  9.733e-07  alpha:  3.195e-01  linmin: -3.605e-06  t[s]:  10989.00
	FillingsUpdate:  mu: +0.125862438  nElectrons: 352.000000  magneticMoment: [ Abs: 38.93200  Tot: +0.00000 ]
	SubspaceRotationAdjust: set factor to 0.295
ElecMinimize: Iter: 134  F: -2099.906875056284662  |grad|_K:  1.187e-06  alpha:  2.327e-01  linmin:  8.748e-06  t[s]:  11066.58
	FillingsUpdate:  mu: +0.126327987  nElectrons: 352.000000  magneticMoment: [ Abs: 38.94170  Tot: +0.00000 ]
	SubspaceRotationAdjust: set factor to 0.247
ElecMinimize: Iter: 135  F: -2099.906909357884615  |grad|_K:  1.018e-06  alpha:  1.394e-01  linmin: -9.545e-06  t[s]:  11140.36
	FillingsUpdate:  mu: +0.126092405  nElectrons: 352.000000  magneticMoment: [ Abs: 38.94065  Tot: +0.00000 ]
	SubspaceRotationAdjust: set factor to 0.277
ElecMinimize: Iter: 136  F: -2099.906957756327301  |grad|_K:  9.396e-07  alpha:  2.691e-01  linmin:  5.341e-05  t[s]:  11218.09
	FillingsUpdate:  mu: +0.126036519  nElectrons: 352.000000  magneticMoment: [ Abs: 38.94366  Tot: -0.00000 ]
	SubspaceRotationAdjust: set factor to 0.33
ElecMinimize: Iter: 137  F: -2099.907006090330469  |grad|_K:  9.257e-07  alpha:  3.188e-01  linmin:  2.575e-05  t[s]:  11294.20
	FillingsUpdate:  mu: +0.126319950  nElectrons: 352.000000  magneticMoment: [ Abs: 38.95342  Tot: +0.00000 ]
	SubspaceRotationAdjust: set factor to 0.31
ElecMinimize: Iter: 138  F: -2099.907044033334387  |grad|_K:  1.090e-06  alpha:  2.562e-01  linmin: -5.549e-06  t[s]:  11372.50
	FillingsUpdate:  mu: +0.125879871  nElectrons: 352.000000  magneticMoment: [ Abs: 38.94833  Tot: +0.00000 ]
	SubspaceRotationAdjust: set factor to 0.262
ElecMinimize: Iter: 139  F: -2099.907070515832856  |grad|_K:  1.029e-06  alpha:  1.248e-01  linmin: -4.299e-05  t[s]:  11451.74
	FillingsUpdate:  mu: +0.125954312  nElectrons: 352.000000  magneticMoment: [ Abs: 38.95746  Tot: +0.00000 ]
	SubspaceRotationAdjust: set factor to 0.323
ElecMinimize: Iter: 140  F: -2099.907113111616582  |grad|_K:  8.819e-07  alpha:  2.268e-01  linmin: -3.820e-05  t[s]:  11529.86
	FillingsUpdate:  mu: +0.125947147  nElectrons: 352.000000  magneticMoment: [ Abs: 38.96639  Tot: +0.00000 ]
	SubspaceRotationAdjust: set factor to 0.363
ElecMinimize: Iter: 141  F: -2099.907153375323560  |grad|_K:  9.849e-07  alpha:  2.924e-01  linmin: -3.248e-05  t[s]:  11607.39
	FillingsUpdate:  mu: +0.125576659  nElectrons: 352.000000  magneticMoment: [ Abs: 38.96110  Tot: +0.00000 ]
	SubspaceRotationAdjust: set factor to 0.311
ElecMinimize: Iter: 142  F: -2099.907175998301227  |grad|_K:  1.065e-06  alpha:  1.291e-01  linmin: -4.529e-05  t[s]:  11686.38
	FillingsUpdate:  mu: +0.125842442  nElectrons: 352.000000  magneticMoment: [ Abs: 38.96989  Tot: +0.00000 ]
	SubspaceRotationAdjust: set factor to 0.358
ElecMinimize: Iter: 143  F: -2099.907210592853062  |grad|_K:  8.376e-07  alpha:  1.716e-01  linmin: -3.569e-05  t[s]:  11762.94
	FillingsUpdate:  mu: +0.125944602  nElectrons: 352.000000  magneticMoment: [ Abs: 38.97567  Tot: +0.00000 ]
	SubspaceRotationAdjust: set factor to 0.432
ElecMinimize: Iter: 144  F: -2099.907249158484319  |grad|_K:  8.710e-07  alpha:  3.107e-01  linmin: -1.073e-05  t[s]:  11837.51
	FillingsUpdate:  mu: +0.125479040  nElectrons: 352.000000  magneticMoment: [ Abs: 38.97163  Tot: +0.00000 ]
	SubspaceRotationAdjust: set factor to 0.319
ElecMinimize: Iter: 145  F: -2099.907272943710268  |grad|_K:  1.170e-06  alpha:  1.775e-01  linmin: -1.032e-05  t[s]:  11914.07
	FillingsUpdate:  mu: +0.125733009  nElectrons: 352.000000  magneticMoment: [ Abs: 38.98182  Tot: +0.00000 ]
	SubspaceRotationAdjust: set factor to 0.282
ElecMinimize: Iter: 146  F: -2099.907296576016051  |grad|_K:  8.151e-07  alpha:  1.006e-01  linmin:  1.757e-05  t[s]:  11988.66
	FillingsUpdate:  mu: +0.125552041  nElectrons: 352.000000  magneticMoment: [ Abs: 38.98501  Tot: -0.00000 ]
	SubspaceRotationAdjust: set factor to 0.358
ElecMinimize: Iter: 147  F: -2099.907328295297248  |grad|_K:  7.515e-07  alpha:  2.757e-01  linmin: -3.725e-06  t[s]:  12062.79
	FillingsUpdate:  mu: +0.125205348  nElectrons: 352.000000  magneticMoment: [ Abs: 38.98058  Tot: -0.00000 ]
	SubspaceRotationAdjust: set factor to 0.298
ElecMinimize: Iter: 148  F: -2099.907350215752558  |grad|_K:  9.224e-07  alpha:  2.225e-01  linmin:  2.668e-06  t[s]:  12140.13
	FillingsUpdate:  mu: +0.125528106  nElectrons: 352.000000  magneticMoment: [ Abs: 38.98728  Tot: +0.00000 ]
	SubspaceRotationAdjust: set factor to 0.252
ElecMinimize: Iter: 149  F: -2099.907366776482831  |grad|_K:  7.100e-07  alpha:  1.138e-01  linmin:  2.932e-05  t[s]:  12217.90
	FillingsUpdate:  mu: +0.125469643  nElectrons: 352.000000  magneticMoment: [ Abs: 38.98583  Tot: -0.00000 ]
	SubspaceRotationAdjust: set factor to 0.327
ElecMinimize: Iter: 150  F: -2099.907388768803230  |grad|_K:  6.210e-07  alpha:  2.525e-01  linmin: -2.743e-06  t[s]:  12296.49
	FillingsUpdate:  mu: +0.125193720  nElectrons: 352.000000  magneticMoment: [ Abs: 38.98086  Tot: +0.00000 ]
	SubspaceRotationAdjust: set factor to 0.299
ElecMinimize: Iter: 151  F: -2099.907406025284217  |grad|_K:  7.455e-07  alpha:  2.568e-01  linmin:  1.570e-06  t[s]:  12373.14
	FillingsUpdate:  mu: +0.125423060  nElectrons: 352.000000  magneticMoment: [ Abs: 38.98549  Tot: -0.00000 ]
	SubspaceRotationAdjust: set factor to 0.256
ElecMinimize: Iter: 152  F: -2099.907418462557871  |grad|_K:  6.488e-07  alpha:  1.301e-01  linmin:  1.669e-05  t[s]:  12450.35
	FillingsUpdate:  mu: +0.125305681  nElectrons: 352.000000  magneticMoment: [ Abs: 38.98134  Tot: -0.00000 ]
	SubspaceRotationAdjust: set factor to 0.325
ElecMinimize: Iter: 153  F: -2099.907437601370475  |grad|_K:  5.855e-07  alpha:  2.630e-01  linmin:  6.582e-06  t[s]:  12529.61
	FillingsUpdate:  mu: +0.125121412  nElectrons: 352.000000  magneticMoment: [ Abs: 38.97511  Tot: +0.00000 ]
	SubspaceRotationAdjust: set factor to 0.319
ElecMinimize: Iter: 154  F: -2099.907453262515446  |grad|_K:  6.729e-07  alpha:  2.630e-01  linmin:  5.950e-06  t[s]:  12605.62
	FillingsUpdate:  mu: +0.125414925  nElectrons: 352.000000  magneticMoment: [ Abs: 38.97804  Tot: -0.00000 ]
	SubspaceRotationAdjust: set factor to 0.276
ElecMinimize: Iter: 155  F: -2099.907464314477238  |grad|_K:  6.594e-07  alpha:  1.424e-01  linmin:  1.268e-05  t[s]:  12684.40
	FillingsUpdate:  mu: +0.125293299  nElectrons: 352.000000  magneticMoment: [ Abs: 38.97112  Tot: -0.00000 ]
	SubspaceRotationAdjust: set factor to 0.327
ElecMinimize: Iter: 156  F: -2099.907482476841324  |grad|_K:  5.767e-07  alpha:  2.417e-01  linmin:  1.074e-05  t[s]:  12763.19
	FillingsUpdate:  mu: +0.125141174  nElectrons: 352.000000  magneticMoment: [ Abs: 38.96522  Tot: -0.00000 ]
	SubspaceRotationAdjust: set factor to 0.377
ElecMinimize: Iter: 157  F: -2099.907500100506695  |grad|_K:  6.504e-07  alpha:  3.062e-01  linmin:  8.726e-06  t[s]:  12839.92
	FillingsUpdate:  mu: +0.125368443  nElectrons: 352.000000  magneticMoment: [ Abs: 38.96781  Tot: +0.00000 ]
	SubspaceRotationAdjust: set factor to 0.337
ElecMinimize: Iter: 158  F: -2099.907513344157906  |grad|_K:  7.773e-07  alpha:  1.830e-01  linmin:  8.565e-06  t[s]:  12916.25
	FillingsUpdate:  mu: +0.125141539  nElectrons: 352.000000  magneticMoment: [ Abs: 38.95939  Tot: +0.00000 ]
	SubspaceRotationAdjust: set factor to 0.3
ElecMinimize: Iter: 159  F: -2099.907528944354908  |grad|_K:  6.391e-07  alpha:  1.480e-01  linmin:  1.554e-05  t[s]:  12992.77
	FillingsUpdate:  mu: +0.125302915  nElectrons: 352.000000  magneticMoment: [ Abs: 38.95686  Tot: +0.00000 ]
	SubspaceRotationAdjust: set factor to 0.352
ElecMinimize: Iter: 160  F: -2099.907549244497204  |grad|_K:  6.188e-07  alpha:  2.859e-01  linmin: -2.513e-05  t[s]:  13070.86
	FillingsUpdate:  mu: +0.125418508  nElectrons: 352.000000  magneticMoment: [ Abs: 38.95455  Tot: +0.00000 ]
	SubspaceRotationAdjust: set factor to 0.408
ElecMinimize: Iter: 161  F: -2099.907569462527135  |grad|_K:  6.099e-07  alpha:  3.004e-01  linmin: -8.042e-06  t[s]:  13146.60
	FillingsUpdate:  mu: +0.125192723  nElectrons: 352.000000  magneticMoment: [ Abs: 38.94943  Tot: +0.00000 ]
	SubspaceRotationAdjust: set factor to 0.364
ElecMinimize: Iter: 162  F: -2099.907586469554644  |grad|_K:  7.802e-07  alpha:  2.609e-01  linmin:  2.781e-05  t[s]:  13222.72
	FillingsUpdate:  mu: +0.125473415  nElectrons: 352.000000  magneticMoment: [ Abs: 38.95509  Tot: +0.00000 ]
	SubspaceRotationAdjust: set factor to 0.289
ElecMinimize: Iter: 163  F: -2099.907597726285985  |grad|_K:  6.762e-07  alpha:  1.099e-01  linmin:  4.571e-05  t[s]:  13300.57
	FillingsUpdate:  mu: +0.125362213  nElectrons: 352.000000  magneticMoment: [ Abs: 38.95322  Tot: +0.00000 ]
	SubspaceRotationAdjust: set factor to 0.328
ElecMinimize: Iter: 164  F: -2099.907614998604004  |grad|_K:  5.771e-07  alpha:  2.218e-01  linmin:  3.042e-05  t[s]:  13374.67
	FillingsUpdate:  mu: +0.125370733  nElectrons: 352.000000  magneticMoment: [ Abs: 38.95324  Tot: -0.00000 ]
	SubspaceRotationAdjust: set factor to 0.387
ElecMinimize: Iter: 165  F: -2099.907631784320529  |grad|_K:  5.767e-07  alpha:  2.932e-01  linmin:  6.850e-06  t[s]:  13452.58
	FillingsUpdate:  mu: +0.125611822  nElectrons: 352.000000  magneticMoment: [ Abs: 38.95897  Tot: +0.00000 ]
	SubspaceRotationAdjust: set factor to 0.326
ElecMinimize: Iter: 166  F: -2099.907642850223965  |grad|_K:  6.983e-07  alpha:  1.918e-01  linmin:  4.933e-09  t[s]:  13529.81
	FillingsUpdate:  mu: +0.125451398  nElectrons: 352.000000  magneticMoment: [ Abs: 38.95593  Tot: -0.00000 ]
	SubspaceRotationAdjust: set factor to 0.28
ElecMinimize: Iter: 167  F: -2099.907652998684171  |grad|_K:  5.420e-07  alpha:  1.188e-01  linmin: -2.506e-06  t[s]:  13607.53
	FillingsUpdate:  mu: +0.125549094  nElectrons: 352.000000  magneticMoment: [ Abs: 38.96003  Tot: -0.00000 ]
	SubspaceRotationAdjust: set factor to 0.35
ElecMinimize: Iter: 168  F: -2099.907666207436705  |grad|_K:  4.833e-07  alpha:  2.578e-01  linmin: -8.061e-07  t[s]:  13685.53
	FillingsUpdate:  mu: +0.125685086  nElectrons: 352.000000  magneticMoment: [ Abs: 38.96520  Tot: +0.00000 ]
	SubspaceRotationAdjust: set factor to 0.39
ElecMinimize: Iter: 169  F: -2099.907677768173471  |grad|_K:  5.416e-07  alpha:  2.842e-01  linmin: -9.169e-07  t[s]:  13765.79
	FillingsUpdate:  mu: +0.125515514  nElectrons: 352.000000  magneticMoment: [ Abs: 38.96281  Tot: +0.00000 ]
	SubspaceRotationAdjust: set factor to 0.337
ElecMinimize: Iter: 170  F: -2099.907684852656075  |grad|_K:  5.970e-07  alpha:  1.373e-01  linmin: -1.194e-05  t[s]:  13841.30
	FillingsUpdate:  mu: +0.125689777  nElectrons: 352.000000  magneticMoment: [ Abs: 38.96884  Tot: +0.00000 ]
	SubspaceRotationAdjust: set factor to 0.344
ElecMinimize: Iter: 171  F: -2099.907695355006581  |grad|_K:  4.908e-07  alpha:  1.683e-01  linmin: -6.020e-06  t[s]:  13917.17
	FillingsUpdate:  mu: +0.125640630  nElectrons: 352.000000  magneticMoment: [ Abs: 38.97106  Tot: +0.00000 ]
	SubspaceRotationAdjust: set factor to 0.403
ElecMinimize: Iter: 172  F: -2099.907707615136587  |grad|_K:  4.840e-07  alpha:  2.922e-01  linmin:  1.204e-05  t[s]:  13994.81
	FillingsUpdate:  mu: +0.125695035  nElectrons: 352.000000  magneticMoment: [ Abs: 38.97505  Tot: +0.00000 ]
	SubspaceRotationAdjust: set factor to 0.474
ElecMinimize: Iter: 173  F: -2099.907720218006034  |grad|_K:  5.091e-07  alpha:  3.105e-01  linmin: -4.206e-06  t[s]:  14069.86
	FillingsUpdate:  mu: +0.125623372  nElectrons: 352.000000  magneticMoment: [ Abs: 38.97451  Tot: +0.00000 ]
	SubspaceRotationAdjust: set factor to 0.45
ElecMinimize: Iter: 174  F: -2099.907732628400481  |grad|_K:  6.514e-07  alpha:  2.739e-01  linmin:  1.514e-05  t[s]:  14145.93
	FillingsUpdate:  mu: +0.125855464  nElectrons: 352.000000  magneticMoment: [ Abs: 38.98009  Tot: -0.00000 ]
	SubspaceRotationAdjust: set factor to 0.358
ElecMinimize: Iter: 175  F: -2099.907739722992574  |grad|_K:  6.783e-07  alpha:  1.005e-01  linmin:  6.421e-05  t[s]:  14222.83
	FillingsUpdate:  mu: +0.125750592  nElectrons: 352.000000  magneticMoment: [ Abs: 38.97719  Tot: -0.00000 ]
	SubspaceRotationAdjust: set factor to 0.356
ElecMinimize: Iter: 176  F: -2099.907753216132733  |grad|_K:  5.780e-07  alpha:  1.751e-01  linmin:  5.657e-05  t[s]:  14301.46
	FillingsUpdate:  mu: +0.125797922  nElectrons: 352.000000  magneticMoment: [ Abs: 38.97787  Tot: +0.00000 ]
	SubspaceRotationAdjust: set factor to 0.422
ElecMinimize: Iter: 177  F: -2099.907769383015875  |grad|_K:  5.747e-07  alpha:  2.847e-01  linmin: -1.077e-05  t[s]:  14378.56
	FillingsUpdate:  mu: +0.125827770  nElectrons: 352.000000  magneticMoment: [ Abs: 38.97711  Tot: +0.00000 ]
	SubspaceRotationAdjust: set factor to 0.503
ElecMinimize: Iter: 178  F: -2099.907787022236789  |grad|_K:  5.992e-07  alpha:  3.052e-01  linmin: -1.140e-06  t[s]:  14457.70
	FillingsUpdate:  mu: +0.125779230  nElectrons: 352.000000  magneticMoment: [ Abs: 38.97257  Tot: -0.00000 ]
	SubspaceRotationAdjust: set factor to 0.586
ElecMinimize: Iter: 179  F: -2099.907806031226755  |grad|_K:  7.171e-07  alpha:  3.039e-01  linmin:  1.292e-05  t[s]:  14533.06
	FillingsUpdate:  mu: +0.126025577  nElectrons: 352.000000  magneticMoment: [ Abs: 38.97549  Tot: +0.00000 ]
	SubspaceRotationAdjust: set factor to 0.414
ElecMinimize: Iter: 180  F: -2099.907818991684962  |grad|_K:  1.061e-06  alpha:  1.490e-01  linmin:  2.273e-05  t[s]:  14610.21
	FillingsUpdate:  mu: +0.125797035  nElectrons: 352.000000  magneticMoment: [ Abs: 38.96534  Tot: -0.00000 ]
	SubspaceRotationAdjust: set factor to 0.361
ElecMinimize: Iter: 181  F: -2099.907836279567618  |grad|_K:  7.763e-07  alpha:  8.742e-02  linmin: -1.112e-05  t[s]:  14685.42
ElecMinimize: 	Predicted alpha/alphaT>3.000000, increasing alphaT to 2.622536e-01.
	FillingsUpdate:  mu: +0.125839188  nElectrons: 352.000000  magneticMoment: [ Abs: 38.95809  Tot: -0.00000 ]
	SubspaceRotationAdjust: set factor to 0.472
ElecMinimize: Iter: 182  F: -2099.907865191624296  |grad|_K:  8.100e-07  alpha:  2.740e-01  linmin:  1.118e-05  t[s]:  14793.33
	FillingsUpdate:  mu: +0.126152912  nElectrons: 352.000000  magneticMoment: [ Abs: 38.95885  Tot: -0.00000 ]
	SubspaceRotationAdjust: set factor to 0.38
ElecMinimize: Iter: 183  F: -2099.907888025838020  |grad|_K:  1.108e-06  alpha:  2.014e-01  linmin: -1.478e-06  t[s]:  14870.13
	FillingsUpdate:  mu: +0.125876367  nElectrons: 352.000000  magneticMoment: [ Abs: 38.94800  Tot: -0.00000 ]
	SubspaceRotationAdjust: set factor to 0.334
ElecMinimize: Iter: 184  F: -2099.907907543268720  |grad|_K:  8.783e-07  alpha:  8.996e-02  linmin: -1.881e-05  t[s]:  14946.54
	FillingsUpdate:  mu: +0.125904139  nElectrons: 352.000000  magneticMoment: [ Abs: 38.94191  Tot: -0.00000 ]
	SubspaceRotationAdjust: set factor to 0.454
ElecMinimize: Iter: 185  F: -2099.907940993549346  |grad|_K:  8.966e-07  alpha:  2.489e-01  linmin:  3.273e-05  t[s]:  15024.42
	FillingsUpdate:  mu: +0.126181625  nElectrons: 352.000000  magneticMoment: [ Abs: 38.94416  Tot: +0.00000 ]
	SubspaceRotationAdjust: set factor to 0.368
ElecMinimize: Iter: 186  F: -2099.907966321445656  |grad|_K:  1.198e-06  alpha:  1.837e-01  linmin:  4.600e-07  t[s]:  15103.18
	FillingsUpdate:  mu: +0.125870180  nElectrons: 352.000000  magneticMoment: [ Abs: 38.93374  Tot: +0.00000 ]
	SubspaceRotationAdjust: set factor to 0.364
ElecMinimize: Iter: 187  F: -2099.907991340652643  |grad|_K:  9.540e-07  alpha:  9.862e-02  linmin: -1.695e-05  t[s]:  15179.81
	FillingsUpdate:  mu: +0.125908336  nElectrons: 352.000000  magneticMoment: [ Abs: 38.93036  Tot: -0.00000 ]
	SubspaceRotationAdjust: set factor to 0.499
ElecMinimize: Iter: 188  F: -2099.908028831574939  |grad|_K:  1.002e-06  alpha:  2.374e-01  linmin:  4.493e-05  t[s]:  15254.98
	FillingsUpdate:  mu: +0.126253039  nElectrons: 352.000000  magneticMoment: [ Abs: 38.93654  Tot: +0.00000 ]
	SubspaceRotationAdjust: set factor to 0.4
ElecMinimize: Iter: 189  F: -2099.908055694324503  |grad|_K:  1.314e-06  alpha:  1.565e-01  linmin: -2.308e-07  t[s]:  15331.05
	FillingsUpdate:  mu: +0.125933168  nElectrons: 352.000000  magneticMoment: [ Abs: 38.92951  Tot: -0.00000 ]
	SubspaceRotationAdjust: set factor to 0.426
ElecMinimize: Iter: 190  F: -2099.908084604629494  |grad|_K:  1.037e-06  alpha:  9.505e-02  linmin: -6.437e-06  t[s]:  15407.08
	FillingsUpdate:  mu: +0.125901032  nElectrons: 352.000000  magneticMoment: [ Abs: 38.93189  Tot: +0.00000 ]
	SubspaceRotationAdjust: set factor to 0.568
ElecMinimize: Iter: 191  F: -2099.908123613306088  |grad|_K:  1.054e-06  alpha:  2.092e-01  linmin:  2.514e-05  t[s]:  15483.97
	FillingsUpdate:  mu: +0.126189133  nElectrons: 352.000000  magneticMoment: [ Abs: 38.94179  Tot: +0.00000 ]
	SubspaceRotationAdjust: set factor to 0.432
ElecMinimize: Iter: 192  F: -2099.908152358578263  |grad|_K:  1.399e-06  alpha:  1.508e-01  linmin: -1.264e-06  t[s]:  15558.72
	FillingsUpdate:  mu: +0.125863365  nElectrons: 352.000000  magneticMoment: [ Abs: 38.93762  Tot: -0.00000 ]
	SubspaceRotationAdjust: set factor to 0.452
ElecMinimize: Iter: 193  F: -2099.908178516826865  |grad|_K:  1.073e-06  alpha:  7.508e-02  linmin: -1.841e-05  t[s]:  15635.09
	FillingsUpdate:  mu: +0.125879343  nElectrons: 352.000000  magneticMoment: [ Abs: 38.94334  Tot: -0.00000 ]
	SubspaceRotationAdjust: set factor to 0.531
ElecMinimize: Iter: 194  F: -2099.908215297098650  |grad|_K:  1.067e-06  alpha:  1.823e-01  linmin:  1.394e-05  t[s]:  15711.31
	FillingsUpdate:  mu: +0.126182802  nElectrons: 352.000000  magneticMoment: [ Abs: 38.95450  Tot: +0.00000 ]
	SubspaceRotationAdjust: set factor to 0.423
ElecMinimize: Iter: 195  F: -2099.908237158457723  |grad|_K:  1.278e-06  alpha:  1.121e-01  linmin:  2.231e-06  t[s]:  15787.88
	FillingsUpdate:  mu: +0.125906987  nElectrons: 352.000000  magneticMoment: [ Abs: 38.95343  Tot: -0.00000 ]
	SubspaceRotationAdjust: set factor to 0.526
ElecMinimize: Iter: 196  F: -2099.908263037174038  |grad|_K:  9.298e-07  alpha:  9.085e-02  linmin:  7.178e-06  t[s]:  15865.50
	FillingsUpdate:  mu: +0.125814403  nElectrons: 352.000000  magneticMoment: [ Abs: 38.95700  Tot: -0.00000 ]
	SubspaceRotationAdjust: set factor to 0.511
ElecMinimize: Iter: 197  F: -2099.908289588862772  |grad|_K:  9.675e-07  alpha:  1.777e-01  linmin:  1.150e-05  t[s]:  15940.70
	FillingsUpdate:  mu: +0.126095501  nElectrons: 352.000000  magneticMoment: [ Abs: 38.96564  Tot: +0.00000 ]
	SubspaceRotationAdjust: set factor to 0.413
ElecMinimize: Iter: 198  F: -2099.908304200489056  |grad|_K:  1.050e-06  alpha:  9.068e-02  linmin:  4.369e-06  t[s]:  16014.85
	FillingsUpdate:  mu: +0.125965619  nElectrons: 352.000000  magneticMoment: [ Abs: 38.96472  Tot: +0.00000 ]
	SubspaceRotationAdjust: set factor to 0.595
[...]
	FillingsUpdate:  mu: +0.123571506  nElectrons: 352.000000  magneticMoment: [ Abs: 38.61791  Tot: -0.00000 ]
	SubspaceRotationAdjust: set factor to 0.326
ElecMinimize: Iter:   9  F: -2099.941825402539052  |grad|_K:  6.948e-07  alpha:  2.792e-01  linmin: -1.040e-05  t[s]:  75501.51
	FillingsUpdate:  mu: +0.123379960  nElectrons: 352.000000  magneticMoment: [ Abs: 38.61697  Tot: +0.00000 ]
	SubspaceRotationAdjust: set factor to 0.327
ElecMinimize: Iter:  10  F: -2099.941849357626324  |grad|_K:  4.498e-07  alpha:  2.847e-01  linmin: -9.750e-07  t[s]:  75579.61
	FillingsUpdate:  mu: +0.123680797  nElectrons: 352.000000  magneticMoment: [ Abs: 38.61640  Tot: +0.00000 ]
	SubspaceRotationAdjust: set factor to 0.266
ElecMinimize: Iter:  11  F: -2099.941858851480902  |grad|_K:  3.013e-07  alpha:  2.694e-01  linmin:  2.046e-05  t[s]:  75654.44
	FillingsUpdate:  mu: +0.123552661  nElectrons: 352.000000  magneticMoment: [ Abs: 38.61628  Tot: -0.00000 ]
	SubspaceRotationAdjust: set factor to 0.251
ElecMinimize: Iter:  12  F: -2099.941863054540590  |grad|_K:  1.881e-07  alpha:  2.661e-01  linmin: -9.009e-06  t[s]:  75729.94
	FillingsUpdate:  mu: +0.123504221  nElectrons: 352.000000  magneticMoment: [ Abs: 38.61563  Tot: +0.00000 ]
	SubspaceRotationAdjust: set factor to 0.287
ElecMinimize: Iter:  13  F: -2099.941865038871128  |grad|_K:  1.297e-07  alpha:  3.218e-01  linmin:  5.768e-09  t[s]:  75805.23
	FillingsUpdate:  mu: +0.123558340  nElectrons: 352.000000  magneticMoment: [ Abs: 38.61524  Tot: -0.00000 ]
	SubspaceRotationAdjust: set factor to 0.295
ElecMinimize: Iter:  14  F: -2099.941865950292140  |grad|_K:  9.619e-08  alpha:  3.113e-01  linmin: -5.286e-06  t[s]:  75879.24
	FillingsUpdate:  mu: +0.123538094  nElectrons: 352.000000  magneticMoment: [ Abs: 38.61514  Tot: -0.00000 ]
	SubspaceRotationAdjust: set factor to 0.318
ElecMinimize: Iter:  15  F: -2099.941866481758552  |grad|_K:  7.611e-08  alpha:  3.299e-01  linmin:  2.323e-06  t[s]:  75955.38
	FillingsUpdate:  mu: +0.123538423  nElectrons: 352.000000  magneticMoment: [ Abs: 38.61469  Tot: -0.00000 ]
	SubspaceRotationAdjust: set factor to 0.405
ElecMinimize: Iter:  16  F: -2099.941866851838313  |grad|_K:  6.208e-08  alpha:  3.672e-01  linmin:  2.924e-06  t[s]:  76032.38
	FillingsUpdate:  mu: +0.123544889  nElectrons: 352.000000  magneticMoment: [ Abs: 38.61413  Tot: -0.00000 ]
	SubspaceRotationAdjust: set factor to 0.447
ElecMinimize: Iter:  17  F: -2099.941867134934455  |grad|_K:  6.492e-08  alpha:  4.217e-01  linmin:  1.353e-06  t[s]:  76107.73
	FillingsUpdate:  mu: +0.123518560  nElectrons: 352.000000  magneticMoment: [ Abs: 38.61389  Tot: +0.00000 ]
	SubspaceRotationAdjust: set factor to 0.416
ElecMinimize: Iter:  18  F: -2099.941867352230929  |grad|_K:  6.209e-08  alpha:  2.962e-01  linmin: -1.812e-06  t[s]:  76183.04
ElecMinimize: Converged (|Delta F|<1.000000e-06 for 5 iters).
Setting wave functions to eigenvectors of Hamiltonian

# Ionic positions in lattice coordinates:
ion Ni   0.009547084602388  -0.000007009973049   0.152283731251466 1
ion Ni   0.495976944870966   0.000047081527998   0.146754207431040 1
ion Ni   0.495849471160713   0.500073933899111   0.145506246864373 1
ion Ni   0.253345593151048   0.253641361738924   0.052909242723947 1
ion Ni   0.253317225147145   0.746470444887674   0.052913018749412 1
ion Ni   0.500000000000000   0.500000000000000  -0.050000000000000 0
ion Co   0.000138758422573   0.499970469726731   0.152627974324978 1
ion Co  -0.251211782129384   0.252108137506177   0.055877118811959 1
ion Co  -0.251193427336978   0.747972183306768   0.055884155966406 1
ion V   0.000000000000000   0.000000000000000  -0.050000000000000 0
ion V   0.500000000000000   0.000000000000000  -0.050000000000000 0
ion V   0.000000000000000   0.500000000000000  -0.050000000000000 0
ion V   0.250000000000000   0.250000000000000  -0.150000000000000 0
ion V   0.250000000000000   0.750000000000000  -0.150000000000000 0
ion V  -0.250000000000000   0.250000000000000  -0.150000000000000 0
ion V  -0.250000000000000   0.750000000000000  -0.150000000000000 0
ion O   0.270633837931148   0.262893833888289   0.145193510717272 1
ion O   0.270476675066957   0.737263103545224   0.145206370351250 1
ion O  -0.277552412129093   0.263668151623738   0.149508571276547 1
ion O  -0.277496940629508   0.736498391713283   0.149521367150142 1
ion O   0.007880169834862   0.000030572217441   0.055850526845244 1
ion O   0.492311665451095   0.000077625572565   0.047868113578646 1
ion O   0.008052158229452   0.500032266123250   0.049339657127631 1
ion O   0.491053658281692   0.500117668196224   0.046386758892907 1
ion O   0.250000000000000   0.250000000000000  -0.050000000000000 0
ion O   0.250000000000000   0.750000000000000  -0.050000000000000 0
ion O  -0.250000000000000   0.250000000000000  -0.050000000000000 0
ion O  -0.250000000000000   0.750000000000000  -0.050000000000000 0
ion O   0.000000000000000   0.000000000000000  -0.150000000000000 0
ion O   0.500000000000000   0.000000000000000  -0.150000000000000 0
ion O   0.000000000000000   0.500000000000000  -0.150000000000000 0
ion O   0.500000000000000   0.500000000000000  -0.150000000000000 0
ion O   0.007420448654077   0.000877546217438   0.230578499464455 1

# Forces in Lattice coordinates:
force Ni   0.001051150630740   0.000037372340471   0.030399181845070 1
force Ni   0.003649873823120   0.000211484262548   0.014833113019432 1
force Ni   0.005565398319036   0.000196059752262   0.011549344243020 1
force Ni  -0.001651730843896   0.004291345893766  -0.041867561421628 1
force Ni  -0.001618991693947  -0.004227899210051  -0.041948191934559 1
force Ni  -0.027766198437011   0.000066710145861   0.246705783826127 0
force Co  -0.006605033783723  -0.000028693569198   0.024873473032398 1
force Co  -0.000550342599929   0.002113552137371  -0.004512135182926 1
force Co  -0.000692821432441  -0.002027782950475  -0.005105073296054 1
force V  -0.000092221818596   0.000038352771090   0.967120079999504 0
force V  -0.082549880814870  -0.000020113502837   0.582390288331486 0
force V  -0.017057532796401   0.000119253627694   0.784258116460065 0
force V   0.073118524361816   0.055422944238716  -0.402465194637986 0
force V   0.073122508937771  -0.055423598331067  -0.402407200766723 0
force V  -0.021623421878499   0.056308883828742  -0.106805909359453 0
force V  -0.021632481499967  -0.056289136541600  -0.106517240681332 0
force O   0.003521884188359   0.000818627885220   0.005324162939264 1
force O   0.003605810709531  -0.000448854578133   0.005194456379046 1
force O   0.001839544045695   0.004099446950435   0.018103380124408 1
force O   0.001872144329626  -0.003524105435377   0.018022865042159 1
force O   0.000686647473386   0.000003432509571  -0.009291070848469 1
force O   0.001863395623548   0.000006838511798   0.041013702975589 1
force O  -0.000849052825763   0.000079262477640   0.009694618046926 1
force O   0.000174828263230  -0.000037614584938  -0.000224146419308 1
force O  -0.032798124558282   0.007960994698993  -0.197923979853047 0
force O  -0.032807450907681  -0.007905804486929  -0.198067982463124 0
force O   0.015608245227302   0.003450209293837  -0.130996610714214 0
force O   0.015614948877881  -0.003341430145878  -0.131090518088476 0
force O  -0.005692185176805  -0.000008440910814  -0.234560477888247 0
force O   0.066776512307709   0.000003544518696  -0.047925954984306 0
force O  -0.007535661714842   0.000004768639863  -0.259108591547593 0
force O   0.015948791770578  -0.000007138411335  -0.324183741321759 0
force O   0.000922543872263   0.001115968570657  -0.040774222709452 1

# Energy components:
   Eewald =     5880.9719416588059175
       EH =     7777.4555941463368072
     Eloc =   -15916.9131006249808706
      Enl =     -555.6558318611781715
   Epulay =       -0.0004874006688114
      Exc =     -252.8341019133808061
       KE =      965.6847975211098856
        U =        1.3504162850731554
-------------------------------------
     Etot =    -2099.9407721888837841
       TS =        0.0010951633471491
-------------------------------------
        F =    -2099.9418673522309291

IonicMinimize: Iter:  11  F: -2099.941867352230929  |grad|_K:  3.816e-04  alpha:  1.000e+00  linmin: -7.601e-03  t[s]:  76194.19

#--- Lowdin population analysis ---
# oxidation-state Ni +3.529 +3.909 +3.653 +3.495 +3.495 +3.442
# magnetic-moments Ni -0.766 +1.137 +0.789 +0.960 +0.960 +0.910
# oxidation-state Co +1.293 +1.198 +1.198
# magnetic-moments Co +2.793 -2.643 -2.643
# oxidation-state V +1.040 +1.080 +1.076 +1.050 +1.050 +1.077 +1.077
# magnetic-moments V -2.719 +2.628 -2.659 -2.928 -2.928 +2.851 +2.851
# oxidation-state O -0.694 -0.694 -0.801 -0.801 -0.828 -0.830 -0.886 -0.766 -0.830 -0.830 -0.882 -0.882 -0.953 -0.943 -0.951 -0.923 -0.243
# magnetic-moments O +0.340 +0.340 +0.055 +0.054 +0.043 +0.178 +0.187 +0.363 +0.143 +0.143 +0.055 +0.055 +0.002 -0.032 +0.001 +0.074 -1.477


-------- Electronic minimization -----------
	FillingsUpdate:  mu: +0.123963154  nElectrons: 352.000000  magneticMoment: [ Abs: 38.61172  Tot: -0.00000 ]
ElecMinimize: Iter:   0  F: -2099.925929365293086  |grad|_K:  2.195e-05  alpha:  1.000e+00
	FillingsUpdate:  mu: +0.123665463  nElectrons: 352.000000  magneticMoment: [ Abs: 38.62189  Tot: -0.00000 ]
	SubspaceRotationAdjust: set factor to 0.401
ElecMinimize: Iter:   1  F: -2099.940953720443758  |grad|_K:  4.197e-06  alpha:  1.795e-01  linmin:  5.442e-04  t[s]:  76316.01
	FillingsUpdate:  mu: +0.124024513  nElectrons: 352.000000  magneticMoment: [ Abs: 38.61454  Tot: -0.00000 ]
	SubspaceRotationAdjust: set factor to 0.356
ElecMinimize: Iter:   2  F: -2099.941516445093839  |grad|_K:  2.122e-06  alpha:  1.838e-01  linmin:  1.257e-04  t[s]:  76392.12
	FillingsUpdate:  mu: +0.123022948  nElectrons: 352.000000  magneticMoment: [ Abs: 38.61506  Tot: +0.00000 ]
	SubspaceRotationAdjust: set factor to 0.298
ElecMinimize: Iter:   3  F: -2099.941720011286634  |grad|_K:  1.190e-06  alpha:  2.599e-01  linmin: -1.290e-04  t[s]:  76469.55
	FillingsUpdate:  mu: +0.123824573  nElectrons: 352.000000  magneticMoment: [ Abs: 38.61479  Tot: -0.00000 ]
	SubspaceRotationAdjust: set factor to 0.249
ElecMinimize: Iter:   4  F: -2099.941788190404623  |grad|_K:  8.345e-07  alpha:  2.753e-01  linmin:  6.546e-05  t[s]:  76545.76
	FillingsUpdate:  mu: +0.123426057  nElectrons: 352.000000  magneticMoment: [ Abs: 38.61439  Tot: -0.00000 ]
	SubspaceRotationAdjust: set factor to 0.27
ElecMinimize: Iter:   5  F: -2099.941825969219735  |grad|_K:  5.922e-07  alpha:  3.128e-01  linmin: -6.789e-06  t[s]:  76622.92
	FillingsUpdate:  mu: +0.123302601  nElectrons: 352.000000  magneticMoment: [ Abs: 38.61367  Tot: +0.00000 ]
	SubspaceRotationAdjust: set factor to 0.313
ElecMinimize: Iter:   6  F: -2099.941843704492385  |grad|_K:  4.586e-07  alpha:  2.903e-01  linmin: -1.700e-07  t[s]:  76700.92
	FillingsUpdate:  mu: +0.123511918  nElectrons: 352.000000  magneticMoment: [ Abs: 38.61289  Tot: -0.00000 ]
	SubspaceRotationAdjust: set factor to 0.326
ElecMinimize: Iter:   7  F: -2099.941855521528396  |grad|_K:  3.351e-07  alpha:  3.227e-01  linmin:  5.745e-06  t[s]:  76778.66
	FillingsUpdate:  mu: +0.123358978  nElectrons: 352.000000  magneticMoment: [ Abs: 38.61237  Tot: +0.00000 ]
	SubspaceRotationAdjust: set factor to 0.333
ElecMinimize: Iter:   8  F: -2099.941862212476735  |grad|_K:  2.730e-07  alpha:  3.425e-01  linmin: -2.241e-06  t[s]:  76853.92
	FillingsUpdate:  mu: +0.123418849  nElectrons: 352.000000  magneticMoment: [ Abs: 38.61113  Tot: -0.00000 ]
	SubspaceRotationAdjust: set factor to 0.368
ElecMinimize: Iter:   9  F: -2099.941866521081920  |grad|_K:  2.157e-07  alpha:  3.320e-01  linmin:  6.433e-07  t[s]:  76930.89
	FillingsUpdate:  mu: +0.123401432  nElectrons: 352.000000  magneticMoment: [ Abs: 38.61027  Tot: -0.00000 ]
	SubspaceRotationAdjust: set factor to 0.423
ElecMinimize: Iter:  10  F: -2099.941869112977656  |grad|_K:  1.734e-07  alpha:  3.199e-01  linmin: -9.156e-08  t[s]:  77008.04
	FillingsUpdate:  mu: +0.123341061  nElectrons: 352.000000  magneticMoment: [ Abs: 38.60957  Tot: -0.00000 ]
	SubspaceRotationAdjust: set factor to 0.434
ElecMinimize: Iter:  11  F: -2099.941870746791665  |grad|_K:  1.341e-07  alpha:  3.119e-01  linmin:  3.621e-07  t[s]:  77085.51
	FillingsUpdate:  mu: +0.123417521  nElectrons: 352.000000  magneticMoment: [ Abs: 38.60864  Tot: -0.00000 ]
	SubspaceRotationAdjust: set factor to 0.359
ElecMinimize: Iter:  12  F: -2099.941871612740670  |grad|_K:  1.160e-07  alpha:  2.764e-01  linmin:  4.202e-06  t[s]:  77162.77
	FillingsUpdate:  mu: +0.123337772  nElectrons: 352.000000  magneticMoment: [ Abs: 38.60801  Tot: -0.00000 ]
	SubspaceRotationAdjust: set factor to 0.323
ElecMinimize: Iter:  13  F: -2099.941872224451799  |grad|_K:  8.992e-08  alpha:  2.611e-01  linmin: -2.037e-07  t[s]:  77239.69
	FillingsUpdate:  mu: +0.123343661  nElectrons: 352.000000  magneticMoment: [ Abs: 38.60718  Tot: +0.00000 ]
	SubspaceRotationAdjust: set factor to 0.404
ElecMinimize: Iter:  14  F: -2099.941872747304842  |grad|_K:  7.482e-08  alpha:  3.717e-01  linmin:  7.724e-06  t[s]:  77315.87
	FillingsUpdate:  mu: +0.123363941  nElectrons: 352.000000  magneticMoment: [ Abs: 38.60626  Tot: +0.00000 ]
	SubspaceRotationAdjust: set factor to 0.442
ElecMinimize: Iter:  15  F: -2099.941873107269657  |grad|_K:  7.352e-08  alpha:  3.697e-01  linmin:  7.725e-08  t[s]:  77394.18
	FillingsUpdate:  mu: +0.123302320  nElectrons: 352.000000  magneticMoment: [ Abs: 38.60545  Tot: -0.00000 ]
	SubspaceRotationAdjust: set factor to 0.408
ElecMinimize: Iter:  16  F: -2099.941873416625185  |grad|_K:  7.548e-08  alpha:  3.289e-01  linmin:  8.147e-06  t[s]:  77470.75
ElecMinimize: Converged (|Delta F|<1.000000e-06 for 5 iters).
Setting wave functions to eigenvectors of Hamiltonian

# Ionic positions in lattice coordinates:
ion Ni   0.010205492340583  -0.000008183959873   0.152060672732498 1
ion Ni   0.496297804539052   0.000076391704287   0.146961481726404 1
ion Ni   0.496100622037619   0.500105338121237   0.145699850492892 1
ion Ni   0.253354820057593   0.254195099432314   0.052818317018674 1
ion Ni   0.253330691206275   0.745926469365383   0.052819378741352 1
ion Ni   0.500000000000000   0.500000000000000  -0.050000000000000 0
ion Co  -0.000826375751724   0.499966621427656   0.152793917659091 1
ion Co  -0.251460744350631   0.252391628868990   0.055950636676323 1
ion Co  -0.251464833701524   0.747699171473121   0.055950259277446 1
ion V   0.000000000000000   0.000000000000000  -0.050000000000000 0
ion V   0.500000000000000   0.000000000000000  -0.050000000000000 0
ion V   0.000000000000000   0.500000000000000  -0.050000000000000 0
ion V   0.250000000000000   0.250000000000000  -0.150000000000000 0
ion V   0.250000000000000   0.750000000000000  -0.150000000000000 0
ion V  -0.250000000000000   0.250000000000000  -0.150000000000000 0
ion V  -0.250000000000000   0.750000000000000  -0.150000000000000 0
ion O   0.271730615895009   0.263387516193024   0.145198520205718 1
ion O   0.271572360979186   0.736826872622503   0.145211386814190 1
ion O  -0.277813293099660   0.264389892159009   0.149722604460383 1
ion O  -0.277759310514192   0.735856630599195   0.149731589207058 1
ion O   0.008187368972616   0.000031333948562   0.055942203660761 1
ion O   0.492377400414649   0.000082614581843   0.048186435443872 1
ion O   0.008136202584065   0.500045950224617   0.049497182676339 1
ion O   0.490968501539679   0.500107039580641   0.046315825883412 1
ion O   0.250000000000000   0.250000000000000  -0.050000000000000 0
ion O   0.250000000000000   0.750000000000000  -0.050000000000000 0
ion O  -0.250000000000000   0.250000000000000  -0.050000000000000 0
ion O  -0.250000000000000   0.750000000000000  -0.050000000000000 0
ion O   0.000000000000000   0.000000000000000  -0.150000000000000 0
ion O   0.500000000000000   0.000000000000000  -0.150000000000000 0
ion O   0.000000000000000   0.500000000000000  -0.150000000000000 0
ion O   0.500000000000000   0.500000000000000  -0.150000000000000 0
ion O   0.007389730475223   0.001046497158951   0.230299560606406 1

# Forces in Lattice coordinates:
force Ni   0.002252681082258   0.000015424361455   0.031188715131891 1
force Ni  -0.000484153966333   0.000070824249078   0.003697307931251 1
force Ni   0.002964487859373   0.000177100453270   0.004012315522111 1
force Ni  -0.003252172040945  -0.002126723140356  -0.002797393037537 1
force Ni  -0.003228442583094   0.002169384538255  -0.002377624030352 1
force Ni  -0.027440806968418   0.000063960501245   0.229241210237650 0
force Co   0.006375890290790   0.000078700913260   0.021473833151024 1
force Co   0.004217154302521  -0.000906464398428  -0.004372165263206 1
force Co   0.004249892214780   0.000972651089918  -0.003845403796332 1
force V  -0.000185833355453   0.000060459118527   0.970949067644452 0
force V  -0.082514880924081   0.000038594530504   0.604388341118043 0
force V  -0.018015864804089   0.000104009787323   0.790264837776089 0
force V   0.073492676752336   0.055475324276066  -0.404622599355651 0
force V   0.073497398797082  -0.055477724280518  -0.404601230556842 0
force V  -0.021917375125632   0.056598735232464  -0.107004396793062 0
force V  -0.021925881073866  -0.056584356212031  -0.106795959412237 0
force O  -0.004308026432597  -0.000524285631968  -0.001668622753689 1
force O  -0.004238594929155   0.000916321658994  -0.001768040539757 1
force O   0.004069375818402   0.001452197540731  -0.005723679586598 1
force O   0.004346975011985  -0.000768356420151  -0.005537028484875 1
force O  -0.003230698093262   0.000031003835481  -0.021415496377373 1
force O   0.002606244905761   0.000020415187217   0.024750034158483 1
force O  -0.003952362383574   0.000073461010983  -0.012547428282434 1
force O   0.003522809361246   0.000022549109502   0.006378342525409 1
force O  -0.034279504863371   0.008875871210123  -0.200761353254031 0
force O  -0.034280960972648  -0.008819361758799  -0.200910638677814 0
force O   0.016938641251480   0.004283451936421  -0.133794404843630 0
force O   0.016946544191001  -0.004180481476284  -0.133910801451791 0
force O  -0.007118955311965  -0.000010618609489  -0.235296901742764 0
force O   0.068011505847704  -0.000001361027897  -0.054067725558278 0
force O  -0.008681176430635   0.000003718661627  -0.258752738066081 0
force O   0.017654756554947  -0.000005477015708  -0.326401207302388 0
force O   0.002379694671469   0.001341249654630   0.002033898060404 1

# Energy components:
   Eewald =     5879.0627291440832778
       EH =     7775.5420140075229938
     Eloc =   -15913.0885852621559025
      Enl =     -555.6517444294252073
   Epulay =       -0.0004874006688114
      Exc =     -252.8324110877930195
       KE =      965.6775993114749781
        U =        1.3501084655648932
-------------------------------------
     Etot =    -2099.9407772513973214
       TS =        0.0010961652280908
-------------------------------------
        F =    -2099.9418734166251852

IonicMinimize: Iter:  12  F: -2099.941873416625185  |grad|_K:  2.664e-04  alpha:  1.000e+00  linmin:  1.261e-02  t[s]:  77481.92
IonicMinimize: Converged (|Delta F|<1.000000e-04 for 3 iters).

#--- Lowdin population analysis ---
# oxidation-state Ni +3.523 +3.911 +3.652 +3.495 +3.495 +3.442
# magnetic-moments Ni -0.764 +1.138 +0.781 +0.960 +0.960 +0.910
# oxidation-state Co +1.293 +1.198 +1.198
# magnetic-moments Co +2.793 -2.643 -2.643
# oxidation-state V +1.040 +1.077 +1.076 +1.050 +1.050 +1.079 +1.079
# magnetic-moments V -2.720 +2.637 -2.661 -2.928 -2.928 +2.848 +2.848
# oxidation-state O -0.692 -0.692 -0.801 -0.801 -0.827 -0.830 -0.886 -0.766 -0.830 -0.830 -0.882 -0.882 -0.953 -0.943 -0.951 -0.923 -0.244
# magnetic-moments O +0.342 +0.341 +0.055 +0.054 +0.042 +0.180 +0.188 +0.363 +0.143 +0.143 +0.055 +0.055 +0.002 -0.033 +0.001 +0.073 -1.474


Dumping 'run.ionpos' ... done
Dumping 'run.lattice' ... done
Dumping 'run.Ecomponents' ... done
End date and time: Wed May 21 14:15:03 2025  (Duration: 0-21:31:25.03)
Done!
