
*************** JDFTx 1.7.0  ***************

Start date and time: Sat May 17 04:05:30 2025
Executable /data2/jt577/jdftx_eat_withLibXC/build/jdftx with command-line: -i /data2/jt577/May_2025/Relax_Mag_litU/pure_NiO/runs/calc_20250516-211220/OH/OH.in
Running on hosts (process indices):  node3403 (0-8)
Divided in process groups (process indices):  0 (0)  1 (1)  2 (2)  3 (3)  4 (4)  5 (5)  6 (6)  7 (7)  8 (8)
Resource initialization completed at t[s]:      0.00
Run totals: 9 processes, 90 threads, 0 GPUs


Input parsed successfully to the following command list (including defaults):

add-mix 
add-U 	Ni d 0.235196
basis kpoint-dependent
coords-type Lattice
core-overlap-check vector
coulomb-interaction Periodic
davidson-band-ratio 1.1
dump End IonicPositions Lattice Ecomponents
dump-name OH.$VAR
elec-cutoff 30
elec-eigen-algo Davidson
elec-ex-corr gga-x-rpbe gga-c-pbe
elec-smearing Fermi 0.001
electronic-minimize  \
	dirUpdateScheme      FletcherReeves \
	linminMethod         DirUpdateRecommended \
	nIterations          1000 \
	history              15 \
	knormThreshold       0 \
	energyDiffThreshold  1e-06 \
	nEnergyDiff          5 \
	alphaTstart          1 \
	alphaTmin            1e-10 \
	updateTestStepSize   yes \
	alphaTreduceFactor   0.1 \
	alphaTincreaseFactor 3 \
	nAlphaAdjustMax      3 \
	wolfeEnergy          0.0001 \
	wolfeGradient        0.9 \
	fdTest               no
exchange-regularization WignerSeitzTruncated
fluid None
fluid-ex-corr (null) lda-PZ
fluid-gummel-loop 10 1.000000e-05
fluid-minimize  \
	dirUpdateScheme      PolakRibiere \
	linminMethod         DirUpdateRecommended \
	nIterations          100 \
	history              15 \
	knormThreshold       0 \
	energyDiffThreshold  0 \
	nEnergyDiff          2 \
	alphaTstart          1 \
	alphaTmin            1e-10 \
	updateTestStepSize   yes \
	alphaTreduceFactor   0.1 \
	alphaTincreaseFactor 3 \
	nAlphaAdjustMax      3 \
	wolfeEnergy          0.0001 \
	wolfeGradient        0.9 \
	fdTest               no
fluid-solvent H2O 55.338 ScalarEOS \
	epsBulk 78.4 \
	pMol 0.92466 \
	epsInf 1.77 \
	Pvap 1.06736e-10 \
	sigmaBulk 4.62e-05 \
	Rvdw 2.61727 \
	Res 1.42 \
	tauNuc 343133 \
	poleEl 15 7 1
forces-output-coords Positions
initial-magnetic-moments  \
	Ni 1 -1 1 -1 1 1 -1 -1 -1 1 -1 1 -1 -1 1 1
initial-state OH.$VAR
ion Ni  0.000000000000000   0.000000000000000   0.150000000000000 1
ion Ni  0.500000000000000   0.000000000000000   0.150000000000000 1
ion Ni  0.000000000000000   0.500000000000000   0.150000000000000 1
ion Ni  0.500000000000000   0.500000000000000   0.150000000000000 1
ion Ni  0.250000000000000   0.250000000000000   0.050000000000000 1
ion Ni  0.250000000000000   0.750000000000000   0.050000000000000 1
ion Ni -0.250000000000000   0.250000000000000   0.050000000000000 1
ion Ni -0.250000000000000   0.750000000000000   0.050000000000000 1
ion Ni  0.000000000000000   0.000000000000000  -0.050000000000000 0
ion Ni  0.500000000000000   0.000000000000000  -0.050000000000000 0
ion Ni  0.000000000000000   0.500000000000000  -0.050000000000000 0
ion Ni  0.500000000000000   0.500000000000000  -0.050000000000000 0
ion Ni  0.250000000000000   0.250000000000000  -0.150000000000000 0
ion Ni  0.250000000000000   0.750000000000000  -0.150000000000000 0
ion Ni -0.250000000000000   0.250000000000000  -0.150000000000000 0
ion Ni -0.250000000000000   0.750000000000000  -0.150000000000000 0
ion O  0.250000000000000   0.250000000000000   0.150000000000000 1
ion O  0.250000000000000   0.750000000000000   0.150000000000000 1
ion O -0.250000000000000   0.250000000000000   0.150000000000000 1
ion O -0.250000000000000   0.750000000000000   0.150000000000000 1
ion O  0.000000000000000   0.000000000000000   0.050000000000000 1
ion O  0.500000000000000   0.000000000000000   0.050000000000000 1
ion O  0.000000000000000   0.500000000000000   0.050000000000000 1
ion O  0.500000000000000   0.500000000000000   0.050000000000000 1
ion O  0.250000000000000   0.250000000000000  -0.050000000000000 0
ion O  0.250000000000000   0.750000000000000  -0.050000000000000 0
ion O -0.250000000000000   0.250000000000000  -0.050000000000000 0
ion O -0.250000000000000   0.750000000000000  -0.050000000000000 0
ion O  0.000000000000000   0.000000000000000  -0.150000000000000 0
ion O  0.500000000000000   0.000000000000000  -0.150000000000000 0
ion O  0.000000000000000   0.500000000000000  -0.150000000000000 0
ion O  0.500000000000000   0.500000000000000  -0.150000000000000 0
ion O  0.000000000000000   0.000000000000000   0.230000000000000 1
ion H  0.100000000000000   0.100000000000000   0.250000000000000 1
ion-species SG15/$ID_ONCV_PBE.upf
ion-width 0
ionic-minimize  \
	dirUpdateScheme      L-BFGS \
	linminMethod         DirUpdateRecommended \
	nIterations          1000 \
	history              15 \
	knormThreshold       0.0001 \
	energyDiffThreshold  0.0001 \
	nEnergyDiff          3 \
	alphaTstart          1 \
	alphaTmin            1e-10 \
	updateTestStepSize   yes \
	alphaTreduceFactor   0.1 \
	alphaTincreaseFactor 3 \
	nAlphaAdjustMax      3 \
	wolfeEnergy          0.0001 \
	wolfeGradient        0.9 \
	fdTest               no
kpoint   0.500000000000   0.500000000000   0.500000000000  1.00000000000000
kpoint-folding 3 3 1 
latt-move-scale 1 1 1
latt-scale 1 1 1 
lattice  \
	   7.880000000000000    7.880000000000000    0.000000000000000  \
	   7.880000000000000   -7.880000000000000    0.000000000000000  \
	   0.000000000000000    0.000000000000000   39.399999999999999 
lattice-minimize  \
	dirUpdateScheme      L-BFGS \
	linminMethod         DirUpdateRecommended \
	nIterations          0 \
	history              15 \
	knormThreshold       0 \
	energyDiffThreshold  1e-06 \
	nEnergyDiff          2 \
	alphaTstart          1 \
	alphaTmin            1e-10 \
	updateTestStepSize   yes \
	alphaTreduceFactor   0.1 \
	alphaTincreaseFactor 3 \
	nAlphaAdjustMax      3 \
	wolfeEnergy          0.0001 \
	wolfeGradient        0.9 \
	fdTest               no
lcao-params -1 1e-06 0.001
pcm-variant GLSSA13
spintype z-spin
subspace-rotation-factor 1 yes
symmetries none
symmetry-threshold 0.0001


Applied RMS atom displacement 0 bohrs to make symmetries exact.

---------- Initializing the Grid ----------
R = 
[         7.88         7.88            0  ]
[         7.88        -7.88            0  ]
[            0            0         39.4  ]
unit cell volume = 4893.04
G =
[   0.398679   0.398679         -0  ]
[   0.398679  -0.398679         -0  ]
[         -0         -0   0.159472  ]
Minimum fftbox size, Smin = [  56  56  196  ]
Chosen fftbox size, S = [  56  56  196  ]

---------- Exchange Correlation functional ----------
Initialized LibXC exchange functional 'Hammer, Hansen, and Norskov'
Initialized LibXC correlation functional 'Perdew, Burke & Ernzerhof'

---------- Setting up pseudopotentials ----------
Width of ionic core gaussian charges (only for fluid interactions / plotting) set to 0

Reading pseudopotential file '/data2/jt577/jdftx_eat_withLibXC/build/pseudopotentials/SG15/Ni_ONCV_PBE.upf':
  'Ni' pseudopotential, 'PBE' functional
  Generated using ONCVPSP code by D. R. Hamann
  Author: Martin Schlipf and Francois Gygi  Date: 150915.
  18 valence electrons, 4 orbitals, 6 projectors, 1292 radial grid points, with lMax = 2
  Transforming local potential to a uniform radial grid of dG=0.02 with 1368 points.
  Transforming nonlocal projectors to a uniform radial grid of dG=0.02 with 528 points.
    3S    l: 0   occupation:  2.0   eigenvalue: -4.081355
    3P    l: 1   occupation:  6.0   eigenvalue: -2.623460
    4S    l: 0   occupation:  2.0   eigenvalue: -0.207378
    3D    l: 2   occupation:  8.0   eigenvalue: -0.326118
  Transforming atomic orbitals to a uniform radial grid of dG=0.02 with 528 points.
  WARNING: large normalization error in atomic orbital 1s (integral: 0.000006).
  Core radius for overlap checks: 1.99 bohrs.
  Reading pulay file /data2/jt577/jdftx_eat_withLibXC/build/pseudopotentials/SG15/Ni_ONCV_PBE.pulay ... using dE_dnG = -7.250568e-04 computed for Ecut = 30.

Reading pseudopotential file '/data2/jt577/jdftx_eat_withLibXC/build/pseudopotentials/SG15/O_ONCV_PBE.upf':
  'O' pseudopotential, 'PBE' functional
  Generated using ONCVPSP code by D. R. Hamann
  Author: Martin Schlipf and Francois Gygi  Date: 150915.
  6 valence electrons, 2 orbitals, 4 projectors, 936 radial grid points, with lMax = 1
  Transforming local potential to a uniform radial grid of dG=0.02 with 1368 points.
  Transforming nonlocal projectors to a uniform radial grid of dG=0.02 with 528 points.
    2S    l: 0   occupation:  2.0   eigenvalue: -0.880572
    2P    l: 1   occupation:  4.0   eigenvalue: -0.331869
  Transforming atomic orbitals to a uniform radial grid of dG=0.02 with 528 points.
  Core radius for overlap checks: 1.29 bohrs.
  Reading pulay file /data2/jt577/jdftx_eat_withLibXC/build/pseudopotentials/SG15/O_ONCV_PBE.pulay ... using dE_dnG = -8.209514e-03 computed for Ecut = 30.

Reading pseudopotential file '/data2/jt577/jdftx_eat_withLibXC/build/pseudopotentials/SG15/H_ONCV_PBE.upf':
  'H' pseudopotential, 'PBE' functional
  Generated using ONCVPSP code by D. R. Hamann
  Author: Martin Schlipf and Francois Gygi  Date: 150915.
  1 valence electrons, 1 orbitals, 2 projectors, 1166 radial grid points, with lMax = 0
  Transforming local potential to a uniform radial grid of dG=0.02 with 1368 points.
  Transforming nonlocal projectors to a uniform radial grid of dG=0.02 with 528 points.
    1S    l: 0   occupation:  1.0   eigenvalue: -0.238602
  Transforming atomic orbitals to a uniform radial grid of dG=0.02 with 528 points.
  Core radius for overlap checks: 1.01 bohrs.
  Reading pulay file /data2/jt577/jdftx_eat_withLibXC/build/pseudopotentials/SG15/H_ONCV_PBE.pulay ... using dE_dnG = -8.245991e-05 computed for Ecut = 30.

Initialized 3 species with 34 total atoms.

Folded 1 k-points by 3x3x1 to 9 k-points.

---------- Setting up k-points, bands, fillings ----------
No reducable k-points. 
Computing the number of bands and number of electrons
Calculating initial fillings.
nElectrons: 391.000000   nBands: 229   nStates: 18

----- Setting up reduced wavefunction bases (one per k-point) -----
average nbasis = 38425.778 , ideal nbasis = 38402.061

---------- Setting up ewald sum ----------
Optimum gaussian width for ewald sums = 3.762904 bohr.
Real space sum over 605 unit cells with max indices [  5  5  2  ]
Reciprocal space sum over 5915 terms with max indices [  6  6  17  ]

---------- Allocating electronic variables ----------
Initializing wave functions:  linear combination of atomic orbitals
Ni (M=1) pseudo-atom majority spin occupations:   s ( 1 0.5 )  p ( 3 )  d ( 5 )
Ni (M=1) pseudo-atom minority spin occupations:   s ( 1 0 )  p ( 3 )  d ( 4.5 )
O pseudo-atom occupations:   s ( 2 )  p ( 4 )
H pseudo-atom occupations:   s ( 1 )
	FillingsUpdate:  mu: +1.743692213  nElectrons: 391.000000  magneticMoment: [ Abs: 0.21204  Tot: +0.00000 ]
LCAOMinimize: Iter:   0  F: -2506.5456213356833359  |grad|_K:  2.411e-02  alpha:  1.000e+00
LCAOMinimize: 	Step increased F by 5.216096e+01, reducing alpha to 4.500897e-02.
LCAOMinimize: 	Step increased F by 3.995697e+00, reducing alpha to 4.500897e-03.
	FillingsUpdate:  mu: +1.538030461  nElectrons: 391.000000  magneticMoment: [ Abs: 0.21304  Tot: +0.00000 ]
LCAOMinimize: Iter:   1  F: -2510.5230124441281987  |grad|_K:  2.904e-02  alpha:  4.501e-03  linmin: -9.872e-02  cgtest:  6.776e-01  t[s]:     53.20
	FillingsUpdate:  mu: +0.641245104  nElectrons: 391.000000  magneticMoment: [ Abs: 0.25903  Tot: +0.00000 ]
LCAOMinimize: Iter:   2  F: -2518.0883670890930262  |grad|_K:  1.555e-02  alpha:  7.820e-03  linmin: -1.734e-01  cgtest:  7.288e-01  t[s]:     65.48
LCAOMinimize: Encountered beta<0, resetting CG.
	FillingsUpdate:  mu: +0.028801568  nElectrons: 391.000000  magneticMoment: [ Abs: 0.30031  Tot: -0.00000 ]
LCAOMinimize: Iter:   3  F: -2520.6186207321679831  |grad|_K:  6.486e-03  alpha:  2.102e-02  linmin: -3.666e-03  cgtest:  7.667e-02  t[s]:     78.01
	FillingsUpdate:  mu: -0.062290651  nElectrons: 391.000000  magneticMoment: [ Abs: 0.31681  Tot: +0.00000 ]
LCAOMinimize: Iter:   4  F: -2520.8608657615482116  |grad|_K:  2.020e-03  alpha:  9.306e-03  linmin: -6.479e-02  cgtest:  6.923e-01  t[s]:     90.38
LCAOMinimize: Encountered beta<0, resetting CG.
LCAOMinimize: 	Predicted alpha/alphaT>3.000000, increasing alphaT to 2.791886e-02.
	FillingsUpdate:  mu: -0.079952449  nElectrons: 391.000000  magneticMoment: [ Abs: 0.33775  Tot: -0.00000 ]
LCAOMinimize: Iter:   5  F: -2520.9249766123994050  |grad|_K:  1.584e-03  alpha:  3.282e-02  linmin: -6.530e-04  cgtest: -1.216e-01  t[s]:    106.30
	FillingsUpdate:  mu: -0.092358510  nElectrons: 391.000000  magneticMoment: [ Abs: 0.34502  Tot: +0.00000 ]
LCAOMinimize: Iter:   6  F: -2520.9383852816722538  |grad|_K:  9.583e-04  alpha:  1.119e-02  linmin:  7.500e-04  cgtest:  2.361e-01  t[s]:    118.83
LCAOMinimize: 	Predicted alpha/alphaT>3.000000, increasing alphaT to 3.357492e-02.
LCAOMinimize: 	Predicted alpha/alphaT>3.000000, increasing alphaT to 1.007248e-01.
	FillingsUpdate:  mu: -0.032088087  nElectrons: 391.000000  magneticMoment: [ Abs: 0.39803  Tot: -0.00000 ]
LCAOMinimize: Iter:   7  F: -2520.9826544205629943  |grad|_K:  2.349e-03  alpha:  1.036e-01  linmin:  8.511e-05  cgtest:  3.379e-02  t[s]:    138.68
	FillingsUpdate:  mu: -0.038081480  nElectrons: 391.000000  magneticMoment: [ Abs: 0.47008  Tot: +0.00000 ]
LCAOMinimize: Iter:   8  F: -2521.0724031756185468  |grad|_K:  1.823e-03  alpha:  1.490e-02  linmin: -3.230e-03  cgtest:  5.256e-01  t[s]:    151.40
	FillingsUpdate:  mu: -0.072196683  nElectrons: 391.000000  magneticMoment: [ Abs: 0.50353  Tot: -0.00000 ]
LCAOMinimize: Iter:   9  F: -2521.1114909046596040  |grad|_K:  1.806e-03  alpha:  2.044e-02  linmin:  5.610e-04  cgtest:  2.867e-02  t[s]:    164.39
	FillingsUpdate:  mu: -0.087381907  nElectrons: 391.000000  magneticMoment: [ Abs: 0.51579  Tot: +0.00000 ]
LCAOMinimize: Iter:  10  F: -2521.1298628893196110  |grad|_K:  1.120e-03  alpha:  1.333e-02  linmin:  6.743e-06  cgtest:  2.146e-01  t[s]:    177.13
	FillingsUpdate:  mu: -0.059622346  nElectrons: 391.000000  magneticMoment: [ Abs: 0.53775  Tot: -0.00000 ]
LCAOMinimize: Iter:  11  F: -2521.1471436087063012  |grad|_K:  1.064e-03  alpha:  2.852e-02  linmin: -2.953e-04  cgtest: -6.876e-03  t[s]:    189.85
	FillingsUpdate:  mu: -0.060432186  nElectrons: 391.000000  magneticMoment: [ Abs: 0.56742  Tot: -0.00000 ]
LCAOMinimize: Iter:  12  F: -2521.1548644989761669  |grad|_K:  7.502e-04  alpha:  1.328e-02  linmin: -3.651e-04  cgtest: -2.614e-02  t[s]:    202.57
LCAOMinimize: 	Predicted alpha/alphaT>3.000000, increasing alphaT to 3.983912e-02.
	FillingsUpdate:  mu: -0.073771553  nElectrons: 391.000000  magneticMoment: [ Abs: 0.70858  Tot: +0.00000 ]
LCAOMinimize: Iter:  13  F: -2521.1743585106942191  |grad|_K:  1.323e-03  alpha:  7.106e-02  linmin:  1.271e-05  cgtest:  1.306e-01  t[s]:    218.71
	FillingsUpdate:  mu: -0.072628747  nElectrons: 391.000000  magneticMoment: [ Abs: 0.80143  Tot: +0.00000 ]
LCAOMinimize: Iter:  14  F: -2521.1873611205119232  |grad|_K:  1.034e-03  alpha:  1.385e-02  linmin: -7.815e-04  cgtest:  1.665e-01  t[s]:    231.37
	FillingsUpdate:  mu: -0.049434080  nElectrons: 391.000000  magneticMoment: [ Abs: 0.98957  Tot: +0.00000 ]
LCAOMinimize: Iter:  15  F: -2521.2134937636783434  |grad|_K:  6.001e-04  alpha:  4.097e-02  linmin: -2.692e-03  cgtest: -3.823e-01  t[s]:    243.95
	FillingsUpdate:  mu: -0.066271121  nElectrons: 391.000000  magneticMoment: [ Abs: 1.14236  Tot: -0.00000 ]
LCAOMinimize: Iter:  16  F: -2521.2246730272422610  |grad|_K:  7.288e-04  alpha:  4.458e-02  linmin:  6.278e-04  cgtest: -5.742e-01  t[s]:    256.60
	FillingsUpdate:  mu: -0.066999569  nElectrons: 391.000000  magneticMoment: [ Abs: 1.38285  Tot: +0.00000 ]
LCAOMinimize: Iter:  17  F: -2521.2295404756710013  |grad|_K:  8.647e-04  alpha:  2.726e-02  linmin: -1.301e-04  cgtest:  6.008e-01  t[s]:    269.02
	FillingsUpdate:  mu: -0.049221909  nElectrons: 391.000000  magneticMoment: [ Abs: 1.56963  Tot: -0.00000 ]
LCAOMinimize: Iter:  18  F: -2521.2368905244638881  |grad|_K:  4.260e-04  alpha:  2.009e-02  linmin:  2.420e-05  cgtest:  1.712e-01  t[s]:    281.27
	FillingsUpdate:  mu: -0.046609337  nElectrons: 391.000000  magneticMoment: [ Abs: 1.69510  Tot: -0.00000 ]
LCAOMinimize: Iter:  19  F: -2521.2392598554924916  |grad|_K:  4.033e-04  alpha:  2.748e-02  linmin:  1.939e-06  cgtest:  1.655e-02  t[s]:    293.89
	FillingsUpdate:  mu: -0.046640673  nElectrons: 391.000000  magneticMoment: [ Abs: 1.81360  Tot: +0.00000 ]
LCAOMinimize: Iter:  20  F: -2521.2406811311211641  |grad|_K:  2.535e-04  alpha:  1.832e-02  linmin:  4.762e-06  cgtest: -4.378e-04  t[s]:    306.11
LCAOMinimize: 	Predicted alpha/alphaT>3.000000, increasing alphaT to 5.496925e-02.
	FillingsUpdate:  mu: -0.054761212  nElectrons: 391.000000  magneticMoment: [ Abs: 2.30167  Tot: +0.00000 ]
LCAOMinimize: Iter:  21  F: -2521.2437947085113592  |grad|_K:  4.592e-04  alpha:  9.927e-02  linmin: -8.616e-04  cgtest:  2.440e-01  t[s]:    321.94
	FillingsUpdate:  mu: -0.050016320  nElectrons: 391.000000  magneticMoment: [ Abs: 3.34198  Tot: +0.00000 ]
LCAOMinimize: Iter:  22  F: -2521.2520558864371196  |grad|_K:  9.441e-04  alpha:  7.510e-02  linmin:  3.526e-04  cgtest:  9.566e-02  t[s]:    334.22
	FillingsUpdate:  mu: -0.041078968  nElectrons: 391.000000  magneticMoment: [ Abs: 5.13349  Tot: +0.00000 ]
LCAOMinimize: Iter:  23  F: -2521.2673813711639923  |grad|_K:  9.180e-04  alpha:  4.139e-02  linmin: -3.976e-05  cgtest:  7.315e-01  t[s]:    346.71
	FillingsUpdate:  mu: -0.048806767  nElectrons: 391.000000  magneticMoment: [ Abs: 5.36692  Tot: +0.00000 ]
LCAOMinimize: Iter:  24  F: -2521.2754200954682346  |grad|_K:  5.918e-04  alpha:  2.064e-02  linmin:  1.417e-03  cgtest: -1.175e-01  t[s]:    359.38
	FillingsUpdate:  mu: -0.058437446  nElectrons: 391.000000  magneticMoment: [ Abs: 5.60901  Tot: -0.00000 ]
LCAOMinimize: Iter:  25  F: -2521.2795707127324931  |grad|_K:  3.562e-04  alpha:  2.522e-02  linmin: -5.376e-03  cgtest:  5.263e-02  t[s]:    371.92
LCAOMinimize: 	Predicted alpha/alphaT>3.000000, increasing alphaT to 7.565132e-02.
	FillingsUpdate:  mu: -0.045682814  nElectrons: 391.000000  magneticMoment: [ Abs: 6.26579  Tot: +0.00000 ]
LCAOMinimize: Iter:  26  F: -2521.2856381553383471  |grad|_K:  6.333e-04  alpha:  9.862e-02  linmin: -2.785e-04  cgtest:  3.050e-03  t[s]:    388.00
	FillingsUpdate:  mu: -0.036669161  nElectrons: 391.000000  magneticMoment: [ Abs: 7.07799  Tot: -0.00000 ]
LCAOMinimize: Iter:  27  F: -2521.2924897894440619  |grad|_K:  8.153e-04  alpha:  3.614e-02  linmin:  3.340e-05  cgtest: -4.279e-03  t[s]:    400.46
	FillingsUpdate:  mu: -0.034665301  nElectrons: 391.000000  magneticMoment: [ Abs: 10.18402  Tot: +0.00000 ]
LCAOMinimize: Iter:  28  F: -2521.3217419804873316  |grad|_K:  1.012e-03  alpha:  9.343e-02  linmin:  2.356e-04  cgtest:  8.479e-01  t[s]:    412.81
	FillingsUpdate:  mu: -0.041225235  nElectrons: 391.000000  magneticMoment: [ Abs: 10.57071  Tot: -0.00000 ]
LCAOMinimize: Iter:  29  F: -2521.3315002881249711  |grad|_K:  6.938e-04  alpha:  2.484e-02  linmin:  7.900e-03  cgtest: -3.631e-01  t[s]:    425.40
	FillingsUpdate:  mu: -0.048038828  nElectrons: 391.000000  magneticMoment: [ Abs: 11.08538  Tot: -0.00000 ]
LCAOMinimize: Iter:  30  F: -2521.3387311190413129  |grad|_K:  5.136e-04  alpha:  4.068e-02  linmin:  1.438e-04  cgtest:  5.104e-01  t[s]:    437.89
LCAOMinimize: None of the convergence criteria satisfied after 30 iterations.


---- Citations for features of the code used in this run ----

   Software package:
      R. Sundararaman, K. Letchworth-Weaver, K.A. Schwarz, D. Gunceler, Y. Ozhabes and T.A. Arias, 'JDFTx: software for joint density-functional theory', SoftwareX 6, 278 (2017)

   Simplified rotationally-invariant DFT+U:
      S. L. Dudarev et al., Phys. Rev. B 57, 1505 (1998)

   LibXC library of exchange-correlation functions:
      M. A. L. Marques, M. J. T. Oliveira and T. Burnus, Comput. Phys. Commun. 183, 2272 (2012)

   Hammer, Hansen, and Norskov exchange functional:
      B. Hammer, L. B. Hansen, and J. K. Nørskov, Phys. Rev. B 59, 7413 (1999)

   Perdew, Burke & Ernzerhof correlation functional:
      J. P. Perdew, K. Burke, and M. Ernzerhof, Phys. Rev. Lett. 77, 3865 (1996)

   Pseudopotentials:
      M Schlipf and F Gygi, Comput. Phys. Commun. 196, 36 (2015)

   Total energy minimization with Auxiliary Hamiltonian:
      C. Freysoldt, S. Boeck, and J. Neugebauer, Phys. Rev. B 79, 241103(R) (2009)

This list may not be complete. Please suggest additional citations or
report any other bugs at https://github.com/shankar1729/jdftx/issues

Initialization completed successfully at t[s]:    443.35


-------- Electronic minimization -----------
	FillingsUpdate:  mu: -0.048038826  nElectrons: 391.000000  magneticMoment: [ Abs: 11.08538  Tot: -0.00000 ]
ElecMinimize: Iter:   0  F: -2521.338731119041768  |grad|_K:  1.745e-03  alpha:  1.000e+00
	FillingsUpdate:  mu: +1.207853722  nElectrons: 391.000000  magneticMoment: [ Abs: 12.21248  Tot: +0.00000 ]
	SubspaceRotationAdjust: set factor to 0.997
ElecMinimize: Iter:   1  F: -2640.784088761233761  |grad|_K:  2.263e-03  alpha:  4.736e-01  linmin:  1.348e-01  t[s]:    528.99
ElecMinimize: 	Step increased F by 4.624385e+01, reducing alpha to 1.735082e-02.
	FillingsUpdate:  mu: +0.936130094  nElectrons: 391.000000  magneticMoment: [ Abs: 12.11412  Tot: -0.00000 ]
	SubspaceRotationAdjust: set factor to 0.998
ElecMinimize: Iter:   2  F: -2648.057062153728566  |grad|_K:  1.355e-03  alpha:  1.735e-02  linmin: -2.342e-03  t[s]:    640.38
ElecMinimize: 	Predicted alpha/alphaT>3.000000, increasing alphaT to 5.205245e-02.
	FillingsUpdate:  mu: +0.837987251  nElectrons: 391.000000  magneticMoment: [ Abs: 9.85320  Tot: +0.00000 ]
	SubspaceRotationAdjust: set factor to 1.01
ElecMinimize: Iter:   3  F: -2691.759007491863485  |grad|_K:  1.170e-03  alpha:  1.217e-01  linmin: -5.685e-04  t[s]:    740.31
	FillingsUpdate:  mu: +1.156320103  nElectrons: 391.000000  magneticMoment: [ Abs: 11.37732  Tot: +0.00000 ]
	SubspaceRotationAdjust: set factor to 0.724
ElecMinimize: Iter:   4  F: -2706.134102747425459  |grad|_K:  1.307e-03  alpha:  6.333e-02  linmin:  3.384e-04  t[s]:    809.87
	FillingsUpdate:  mu: +0.713012344  nElectrons: 391.000000  magneticMoment: [ Abs: 10.72563  Tot: +0.00000 ]
	SubspaceRotationAdjust: set factor to 0.615
ElecMinimize: Iter:   5  F: -2713.241307918359325  |grad|_K:  8.187e-04  alpha:  3.126e-02  linmin:  4.460e-05  t[s]:    880.72
ElecMinimize: 	Predicted alpha/alphaT>3.000000, increasing alphaT to 9.378249e-02.
	FillingsUpdate:  mu: +0.561265648  nElectrons: 391.000000  magneticMoment: [ Abs: 6.31058  Tot: -0.00000 ]
	SubspaceRotationAdjust: set factor to 0.676
ElecMinimize: Iter:   6  F: -2720.864559828686197  |grad|_K:  7.078e-04  alpha:  7.274e-02  linmin:  2.146e-04  t[s]:    981.43
	FillingsUpdate:  mu: +0.195183858  nElectrons: 391.000000  magneticMoment: [ Abs: 5.37677  Tot: -0.00000 ]
	SubspaceRotationAdjust: set factor to 0.494
ElecMinimize: Iter:   7  F: -2723.807388329335481  |grad|_K:  5.576e-04  alpha:  3.980e-02  linmin:  2.400e-04  t[s]:   1047.28
	FillingsUpdate:  mu: +0.309206682  nElectrons: 391.000000  magneticMoment: [ Abs: 4.56611  Tot: -0.00000 ]
	SubspaceRotationAdjust: set factor to 0.672
ElecMinimize: Iter:   8  F: -2726.758323738520176  |grad|_K:  4.594e-04  alpha:  6.627e-02  linmin:  1.286e-04  t[s]:   1118.82
	FillingsUpdate:  mu: +0.275748219  nElectrons: 391.000000  magneticMoment: [ Abs: 4.45385  Tot: +0.00000 ]
	SubspaceRotationAdjust: set factor to 0.618
ElecMinimize: Iter:   9  F: -2728.297003087866869  |grad|_K:  4.243e-04  alpha:  4.752e-02  linmin: -1.287e-05  t[s]:   1192.12
	FillingsUpdate:  mu: +0.105024688  nElectrons: 391.000000  magneticMoment: [ Abs: 4.13197  Tot: -0.00000 ]
	SubspaceRotationAdjust: set factor to 0.726
ElecMinimize: Iter:  10  F: -2730.395951483355475  |grad|_K:  3.243e-04  alpha:  7.593e-02  linmin:  1.827e-04  t[s]:   1263.44
	FillingsUpdate:  mu: +0.295831352  nElectrons: 391.000000  magneticMoment: [ Abs: 3.83678  Tot: +0.00000 ]
	SubspaceRotationAdjust: set factor to 0.585
ElecMinimize: Iter:  11  F: -2731.184147942049094  |grad|_K:  4.215e-04  alpha:  5.000e-02  linmin: -9.577e-06  t[s]:   1336.60
	FillingsUpdate:  mu: +0.138068410  nElectrons: 391.000000  magneticMoment: [ Abs: 3.97694  Tot: -0.00000 ]
	SubspaceRotationAdjust: set factor to 0.459
ElecMinimize: Iter:  12  F: -2732.350758632000179  |grad|_K:  2.721e-04  alpha:  4.122e-02  linmin: -1.653e-05  t[s]:   1413.45
	FillingsUpdate:  mu: +0.217000320  nElectrons: 391.000000  magneticMoment: [ Abs: 4.09393  Tot: +0.00000 ]
	SubspaceRotationAdjust: set factor to 0.387
ElecMinimize: Iter:  13  F: -2733.241909747046975  |grad|_K:  2.476e-04  alpha:  7.728e-02  linmin:  7.847e-05  t[s]:   1485.85
	FillingsUpdate:  mu: +0.247223557  nElectrons: 391.000000  magneticMoment: [ Abs: 3.92496  Tot: +0.00000 ]
	SubspaceRotationAdjust: set factor to 0.441
ElecMinimize: Iter:  14  F: -2733.926246444857043  |grad|_K:  2.244e-04  alpha:  7.489e-02  linmin: -7.647e-05  t[s]:   1557.17
	FillingsUpdate:  mu: +0.120290809  nElectrons: 391.000000  magneticMoment: [ Abs: 3.60027  Tot: +0.00000 ]
	SubspaceRotationAdjust: set factor to 0.459
ElecMinimize: Iter:  15  F: -2734.559164421442802  |grad|_K:  1.757e-04  alpha:  7.512e-02  linmin: -3.624e-05  t[s]:   1629.39
	FillingsUpdate:  mu: +0.082088205  nElectrons: 391.000000  magneticMoment: [ Abs: 3.57530  Tot: +0.00000 ]
	SubspaceRotationAdjust: set factor to 0.443
ElecMinimize: Iter:  16  F: -2735.058837189237693  |grad|_K:  1.771e-04  alpha:  1.029e-01  linmin:  2.553e-04  t[s]:   1702.06
	FillingsUpdate:  mu: +0.082228824  nElectrons: 391.000000  magneticMoment: [ Abs: 3.70177  Tot: +0.00000 ]
	SubspaceRotationAdjust: set factor to 0.609
ElecMinimize: Iter:  17  F: -2735.181164642410749  |grad|_K:  1.704e-04  alpha:  1.683e-02  linmin: -9.840e-04  t[s]:   1773.61
	FillingsUpdate:  mu: +0.099599334  nElectrons: 391.000000  magneticMoment: [ Abs: 3.83275  Tot: -0.00000 ]
	SubspaceRotationAdjust: set factor to 0.58
ElecMinimize: Iter:  18  F: -2735.470480177954414  |grad|_K:  1.481e-04  alpha:  4.642e-02  linmin:  1.078e-03  t[s]:   1844.32
	FillingsUpdate:  mu: +0.097226482  nElectrons: 391.000000  magneticMoment: [ Abs: 3.83323  Tot: -0.00000 ]
	SubspaceRotationAdjust: set factor to 0.708
ElecMinimize: Iter:  19  F: -2735.479950400171674  |grad|_K:  1.385e-04  alpha:  4.700e-03  linmin: -2.527e-04  t[s]:   1916.04
	FillingsUpdate:  mu: +0.079399064  nElectrons: 391.000000  magneticMoment: [ Abs: 3.86975  Tot: -0.00000 ]
	SubspaceRotationAdjust: set factor to 0.906
ElecMinimize: Iter:  20  F: -2735.518555688812739  |grad|_K:  1.138e-04  alpha:  1.153e-02  linmin:  1.283e-04  t[s]:   1988.39
	FillingsUpdate:  mu: +0.093072431  nElectrons: 391.000000  magneticMoment: [ Abs: 3.91294  Tot: +0.00000 ]
	SubspaceRotationAdjust: set factor to 0.883
ElecMinimize: Iter:  21  F: -2735.539388750598391  |grad|_K:  1.214e-04  alpha:  1.076e-02  linmin:  2.229e-05  t[s]:   2060.74
	FillingsUpdate:  mu: +0.090878093  nElectrons: 391.000000  magneticMoment: [ Abs: 3.96086  Tot: +0.00000 ]
	SubspaceRotationAdjust: set factor to 0.72
ElecMinimize: Iter:  22  F: -2735.563547398862738  |grad|_K:  1.150e-04  alpha:  1.040e-02  linmin:  4.887e-05  t[s]:   2134.81
	FillingsUpdate:  mu: +0.084919041  nElectrons: 391.000000  magneticMoment: [ Abs: 3.98298  Tot: -0.00000 ]
	SubspaceRotationAdjust: set factor to 0.643
ElecMinimize: Iter:  23  F: -2735.580511865346580  |grad|_K:  9.351e-05  alpha:  8.182e-03  linmin:  1.029e-05  t[s]:   2207.65
	FillingsUpdate:  mu: +0.083498739  nElectrons: 391.000000  magneticMoment: [ Abs: 4.00231  Tot: +0.00000 ]
	SubspaceRotationAdjust: set factor to 0.491
ElecMinimize: Iter:  24  F: -2735.595285055685508  |grad|_K:  9.191e-05  alpha:  1.068e-02  linmin:  9.763e-07  t[s]:   2281.94
	FillingsUpdate:  mu: +0.086236687  nElectrons: 391.000000  magneticMoment: [ Abs: 4.05356  Tot: +0.00000 ]
	SubspaceRotationAdjust: set factor to 0.344
ElecMinimize: Iter:  25  F: -2735.612530354274440  |grad|_K:  8.799e-05  alpha:  1.287e-02  linmin:  6.153e-06  t[s]:   2354.96
	FillingsUpdate:  mu: +0.075321403  nElectrons: 391.000000  magneticMoment: [ Abs: 4.14314  Tot: +0.00000 ]
	SubspaceRotationAdjust: set factor to 0.284
ElecMinimize: Iter:  26  F: -2735.628913385076430  |grad|_K:  7.237e-05  alpha:  1.334e-02  linmin: -1.464e-05  t[s]:   2424.72
	FillingsUpdate:  mu: +0.072659770  nElectrons: 391.000000  magneticMoment: [ Abs: 4.24922  Tot: -0.00000 ]
	SubspaceRotationAdjust: set factor to 0.289
ElecMinimize: Iter:  27  F: -2735.642903307485540  |grad|_K:  6.561e-05  alpha:  1.674e-02  linmin: -2.868e-05  t[s]:   2495.09
	FillingsUpdate:  mu: +0.078098134  nElectrons: 391.000000  magneticMoment: [ Abs: 4.37135  Tot: +0.00000 ]
	SubspaceRotationAdjust: set factor to 0.283
ElecMinimize: Iter:  28  F: -2735.657597587863165  |grad|_K:  7.021e-05  alpha:  2.126e-02  linmin: -3.949e-05  t[s]:   2568.02
	FillingsUpdate:  mu: +0.088062569  nElectrons: 391.000000  magneticMoment: [ Abs: 4.51053  Tot: +0.00000 ]
	SubspaceRotationAdjust: set factor to 0.286
ElecMinimize: Iter:  29  F: -2735.675320941325936  |grad|_K:  7.378e-05  alpha:  2.230e-02  linmin: -4.414e-05  t[s]:   2638.69
	FillingsUpdate:  mu: +0.087358120  nElectrons: 391.000000  magneticMoment: [ Abs: 4.64365  Tot: -0.00000 ]
	SubspaceRotationAdjust: set factor to 0.369
ElecMinimize: Iter:  30  F: -2735.693649242194624  |grad|_K:  7.160e-05  alpha:  2.080e-02  linmin: -3.157e-05  t[s]:   2711.43
	FillingsUpdate:  mu: +0.095801396  nElectrons: 391.000000  magneticMoment: [ Abs: 4.77031  Tot: +0.00000 ]
	SubspaceRotationAdjust: set factor to 0.457
ElecMinimize: Iter:  31  F: -2735.710323634767519  |grad|_K:  7.556e-05  alpha:  2.016e-02  linmin: -1.549e-05  t[s]:   2782.97
	FillingsUpdate:  mu: +0.109174829  nElectrons: 391.000000  magneticMoment: [ Abs: 4.93436  Tot: +0.00000 ]
	SubspaceRotationAdjust: set factor to 0.42
ElecMinimize: Iter:  32  F: -2735.728045874269810  |grad|_K:  8.879e-05  alpha:  1.938e-02  linmin: -1.174e-05  t[s]:   2852.02
	FillingsUpdate:  mu: +0.116972546  nElectrons: 391.000000  magneticMoment: [ Abs: 5.16651  Tot: +0.00000 ]
	SubspaceRotationAdjust: set factor to 0.408
ElecMinimize: Iter:  33  F: -2735.748497509976005  |grad|_K:  8.955e-05  alpha:  1.625e-02  linmin: -3.299e-05  t[s]:   2924.89
	FillingsUpdate:  mu: +0.109108698  nElectrons: 391.000000  magneticMoment: [ Abs: 5.41609  Tot: -0.00000 ]
	SubspaceRotationAdjust: set factor to 0.582
ElecMinimize: Iter:  34  F: -2735.767799148867653  |grad|_K:  8.049e-05  alpha:  1.492e-02  linmin: -3.594e-05  t[s]:   2995.38
	FillingsUpdate:  mu: +0.105089215  nElectrons: 391.000000  magneticMoment: [ Abs: 5.65184  Tot: -0.00000 ]
	SubspaceRotationAdjust: set factor to 0.708
ElecMinimize: Iter:  35  F: -2735.784265007525846  |grad|_K:  8.358e-05  alpha:  1.571e-02  linmin: -2.439e-05  t[s]:   3066.25
	FillingsUpdate:  mu: +0.105256109  nElectrons: 391.000000  magneticMoment: [ Abs: 5.92922  Tot: +0.00000 ]
	SubspaceRotationAdjust: set factor to 0.696
ElecMinimize: Iter:  36  F: -2735.802561677041467  |grad|_K:  9.392e-05  alpha:  1.628e-02  linmin: -3.452e-05  t[s]:   3138.92
	FillingsUpdate:  mu: +0.094848409  nElectrons: 391.000000  magneticMoment: [ Abs: 6.19111  Tot: -0.00000 ]
	SubspaceRotationAdjust: set factor to 0.91
ElecMinimize: Iter:  37  F: -2735.820640998510953  |grad|_K:  8.390e-05  alpha:  1.267e-02  linmin: -1.683e-05  t[s]:   3212.66
	FillingsUpdate:  mu: +0.096691139  nElectrons: 391.000000  magneticMoment: [ Abs: 6.40444  Tot: +0.00000 ]
	SubspaceRotationAdjust: set factor to 0.91
ElecMinimize: Iter:  38  F: -2735.835337210035959  |grad|_K:  9.246e-05  alpha:  1.303e-02  linmin: -1.287e-05  t[s]:   3284.88
	FillingsUpdate:  mu: +0.104343431  nElectrons: 391.000000  magneticMoment: [ Abs: 6.69406  Tot: -0.00000 ]
	SubspaceRotationAdjust: set factor to 0.821
ElecMinimize: Iter:  39  F: -2735.854226324019237  |grad|_K:  9.727e-05  alpha:  1.380e-02  linmin: -4.123e-05  t[s]:   3359.10
	FillingsUpdate:  mu: +0.100208429  nElectrons: 391.000000  magneticMoment: [ Abs: 6.95610  Tot: -0.00000 ]
	SubspaceRotationAdjust: set factor to 1.19
ElecMinimize: Iter:  40  F: -2735.870445840520006  |grad|_K:  7.868e-05  alpha:  1.064e-02  linmin: -2.194e-05  t[s]:   3432.44
	FillingsUpdate:  mu: +0.108324242  nElectrons: 391.000000  magneticMoment: [ Abs: 7.20438  Tot: +0.00000 ]
	SubspaceRotationAdjust: set factor to 1.12
ElecMinimize: Iter:  41  F: -2735.884871859962004  |grad|_K:  9.499e-05  alpha:  1.443e-02  linmin: -4.661e-05  t[s]:   3502.55
	FillingsUpdate:  mu: +0.107957429  nElectrons: 391.000000  magneticMoment: [ Abs: 7.54671  Tot: -0.00000 ]
	SubspaceRotationAdjust: set factor to 1.27
ElecMinimize: Iter:  42  F: -2735.905051996212933  |grad|_K:  8.741e-05  alpha:  1.379e-02  linmin: -4.025e-05  t[s]:   3573.28
	FillingsUpdate:  mu: +0.108891963  nElectrons: 391.000000  magneticMoment: [ Abs: 7.83031  Tot: +0.00000 ]
	SubspaceRotationAdjust: set factor to 1.35
ElecMinimize: Iter:  43  F: -2735.920263176124990  |grad|_K:  8.978e-05  alpha:  1.232e-02  linmin: -2.289e-05  t[s]:   3649.70
	FillingsUpdate:  mu: +0.098278201  nElectrons: 391.000000  magneticMoment: [ Abs: 8.27326  Tot: +0.00000 ]
	SubspaceRotationAdjust: set factor to 1.48
ElecMinimize: Iter:  44  F: -2735.940706734899777  |grad|_K:  8.918e-05  alpha:  1.567e-02  linmin: -8.919e-05  t[s]:   3722.47
	FillingsUpdate:  mu: +0.089804520  nElectrons: 391.000000  magneticMoment: [ Abs: 8.63672  Tot: -0.00000 ]
	SubspaceRotationAdjust: set factor to 1.61
ElecMinimize: Iter:  45  F: -2735.956382617104282  |grad|_K:  8.812e-05  alpha:  1.206e-02  linmin: -2.948e-05  t[s]:   3795.26
	FillingsUpdate:  mu: +0.087552937  nElectrons: 391.000000  magneticMoment: [ Abs: 9.22975  Tot: -0.00000 ]
	SubspaceRotationAdjust: set factor to 1.5
ElecMinimize: Iter:  46  F: -2735.982716894361147  |grad|_K:  9.549e-05  alpha:  2.077e-02  linmin: -9.624e-05  t[s]:   3865.83
	FillingsUpdate:  mu: +0.087773669  nElectrons: 391.000000  magneticMoment: [ Abs: 9.62802  Tot: -0.00000 ]
	SubspaceRotationAdjust: set factor to 1.63
ElecMinimize: Iter:  47  F: -2736.000588091061672  |grad|_K:  8.350e-05  alpha:  1.209e-02  linmin: -3.883e-06  t[s]:   3938.56
	FillingsUpdate:  mu: +0.093726458  nElectrons: 391.000000  magneticMoment: [ Abs: 10.20352  Tot: +0.00000 ]
	SubspaceRotationAdjust: set factor to 1.81
ElecMinimize: Iter:  48  F: -2736.023208170488942  |grad|_K:  8.618e-05  alpha:  2.027e-02  linmin: -4.435e-05  t[s]:   4011.09
	FillingsUpdate:  mu: +0.093919229  nElectrons: 391.000000  magneticMoment: [ Abs: 10.68499  Tot: -0.00000 ]
	SubspaceRotationAdjust: set factor to 1.94
ElecMinimize: Iter:  49  F: -2736.040764273562672  |grad|_K:  8.020e-05  alpha:  1.492e-02  linmin: -3.732e-05  t[s]:   4084.88
	FillingsUpdate:  mu: +0.086750846  nElectrons: 391.000000  magneticMoment: [ Abs: 11.38141  Tot: -0.00000 ]
	SubspaceRotationAdjust: set factor to 2.51
ElecMinimize: Iter:  50  F: -2736.062663137874551  |grad|_K:  7.014e-05  alpha:  2.121e-02  linmin:  2.137e-05  t[s]:   4160.44
	FillingsUpdate:  mu: +0.081084558  nElectrons: 391.000000  magneticMoment: [ Abs: 11.98601  Tot: +0.00000 ]
	SubspaceRotationAdjust: set factor to 2.73
ElecMinimize: Iter:  51  F: -2736.080798358411357  |grad|_K:  7.651e-05  alpha:  2.329e-02  linmin: -9.149e-05  t[s]:   4234.63
	FillingsUpdate:  mu: +0.079726410  nElectrons: 391.000000  magneticMoment: [ Abs: 12.46505  Tot: +0.00000 ]
	SubspaceRotationAdjust: set factor to 2.26
ElecMinimize: Iter:  52  F: -2736.095837929895879  |grad|_K:  8.533e-05  alpha:  1.564e-02  linmin: -2.012e-06  t[s]:   4308.00
	FillingsUpdate:  mu: +0.077749479  nElectrons: 391.000000  magneticMoment: [ Abs: 13.06127  Tot: +0.00000 ]
	SubspaceRotationAdjust: set factor to 2.76
ElecMinimize: Iter:  53  F: -2736.110429875172031  |grad|_K:  6.392e-05  alpha:  1.284e-02  linmin: -5.820e-05  t[s]:   4381.41
	FillingsUpdate:  mu: +0.077840877  nElectrons: 391.000000  magneticMoment: [ Abs: 13.93296  Tot: +0.00000 ]
	SubspaceRotationAdjust: set factor to 3.43
ElecMinimize: Iter:  54  F: -2736.131430254494717  |grad|_K:  6.657e-05  alpha:  3.099e-02  linmin: -6.656e-05  t[s]:   4454.78
	FillingsUpdate:  mu: +0.076683947  nElectrons: 391.000000  magneticMoment: [ Abs: 14.70134  Tot: +0.00000 ]
	SubspaceRotationAdjust: set factor to 2.81
ElecMinimize: Iter:  55  F: -2736.147921351996956  |grad|_K:  8.358e-05  alpha:  2.256e-02  linmin:  9.134e-06  t[s]:   4526.88
	FillingsUpdate:  mu: +0.078919302  nElectrons: 391.000000  magneticMoment: [ Abs: 15.47899  Tot: +0.00000 ]
	SubspaceRotationAdjust: set factor to 3.57
ElecMinimize: Iter:  56  F: -2736.161375773026521  |grad|_K:  6.615e-05  alpha:  1.296e-02  linmin:  8.797e-06  t[s]:   4602.19
	FillingsUpdate:  mu: +0.083912781  nElectrons: 391.000000  magneticMoment: [ Abs: 16.50352  Tot: +0.00000 ]
	SubspaceRotationAdjust: set factor to 4.47
ElecMinimize: Iter:  57  F: -2736.180022277766511  |grad|_K:  7.129e-05  alpha:  2.688e-02  linmin: -2.053e-08  t[s]:   4673.95
	FillingsUpdate:  mu: +0.087422230  nElectrons: 391.000000  magneticMoment: [ Abs: 17.30127  Tot: +0.00000 ]
	SubspaceRotationAdjust: set factor to 4.6
ElecMinimize: Iter:  58  F: -2736.193874226810294  |grad|_K:  8.049e-05  alpha:  1.803e-02  linmin: -5.159e-06  t[s]:   4747.77
	FillingsUpdate:  mu: +0.093499177  nElectrons: 391.000000  magneticMoment: [ Abs: 17.94159  Tot: -0.00000 ]
	SubspaceRotationAdjust: set factor to 4.66
ElecMinimize: Iter:  59  F: -2736.205819130558211  |grad|_K:  8.174e-05  alpha:  1.085e-02  linmin:  1.102e-04  t[s]:   4820.28
	FillingsUpdate:  mu: +0.096024827  nElectrons: 391.000000  magneticMoment: [ Abs: 18.72918  Tot: -0.00000 ]
	SubspaceRotationAdjust: set factor to 3.98
ElecMinimize: Iter:  60  F: -2736.220666626812545  |grad|_K:  8.994e-05  alpha:  1.439e-02  linmin: -1.182e-04  t[s]:   4894.25
	FillingsUpdate:  mu: +0.085657969  nElectrons: 391.000000  magneticMoment: [ Abs: 19.17194  Tot: -0.00000 ]
	SubspaceRotationAdjust: set factor to 4.59
ElecMinimize: Iter:  61  F: -2736.228646296904117  |grad|_K:  7.617e-05  alpha:  7.054e-03  linmin:  8.811e-05  t[s]:   4968.94
	FillingsUpdate:  mu: +0.092321257  nElectrons: 391.000000  magneticMoment: [ Abs: 19.69701  Tot: +0.00000 ]
	SubspaceRotationAdjust: set factor to 3.87
ElecMinimize: Iter:  62  F: -2736.239567293174332  |grad|_K:  8.660e-05  alpha:  1.252e-02  linmin: -1.827e-05  t[s]:   5039.61
	FillingsUpdate:  mu: +0.090839766  nElectrons: 391.000000  magneticMoment: [ Abs: 20.21541  Tot: -0.00000 ]
	SubspaceRotationAdjust: set factor to 4.62
ElecMinimize: Iter:  63  F: -2736.251301072474689  |grad|_K:  6.927e-05  alpha:  9.767e-03  linmin: -1.039e-05  t[s]:   5113.69
	FillingsUpdate:  mu: +0.100593868  nElectrons: 391.000000  magneticMoment: [ Abs: 20.66776  Tot: +0.00000 ]
	SubspaceRotationAdjust: set factor to 3.57
ElecMinimize: Iter:  64  F: -2736.261794590489444  |grad|_K:  8.391e-05  alpha:  1.373e-02  linmin:  2.036e-05  t[s]:   5187.54
	FillingsUpdate:  mu: +0.104624587  nElectrons: 391.000000  magneticMoment: [ Abs: 21.25702  Tot: -0.00000 ]
	SubspaceRotationAdjust: set factor to 3.23
ElecMinimize: Iter:  65  F: -2736.274596502067652  |grad|_K:  7.034e-05  alpha:  1.146e-02  linmin:  2.190e-05  t[s]:   5259.07
	FillingsUpdate:  mu: +0.098539488  nElectrons: 391.000000  magneticMoment: [ Abs: 21.91074  Tot: +0.00000 ]
	SubspaceRotationAdjust: set factor to 3.02
ElecMinimize: Iter:  66  F: -2736.285876124554306  |grad|_K:  6.712e-05  alpha:  1.434e-02  linmin: -7.606e-05  t[s]:   5332.97
	FillingsUpdate:  mu: +0.098734994  nElectrons: 391.000000  magneticMoment: [ Abs: 22.57375  Tot: +0.00000 ]
	SubspaceRotationAdjust: set factor to 2.69
ElecMinimize: Iter:  67  F: -2736.297495364432962  |grad|_K:  6.860e-05  alpha:  1.563e-02  linmin: -6.078e-05  t[s]:   5403.98
	FillingsUpdate:  mu: +0.095062657  nElectrons: 391.000000  magneticMoment: [ Abs: 23.11634  Tot: +0.00000 ]
	SubspaceRotationAdjust: set factor to 2.71
ElecMinimize: Iter:  68  F: -2736.309185291407175  |grad|_K:  6.496e-05  alpha:  1.517e-02  linmin:  5.597e-05  t[s]:   5475.66
	FillingsUpdate:  mu: +0.092595968  nElectrons: 391.000000  magneticMoment: [ Abs: 23.44409  Tot: -0.00000 ]
	SubspaceRotationAdjust: set factor to 3.03
ElecMinimize: Iter:  69  F: -2736.318433312019351  |grad|_K:  6.267e-05  alpha:  1.420e-02  linmin: -2.204e-05  t[s]:   5546.11
	FillingsUpdate:  mu: +0.101862996  nElectrons: 391.000000  magneticMoment: [ Abs: 23.65855  Tot: +0.00000 ]
	SubspaceRotationAdjust: set factor to 3.58
ElecMinimize: Iter:  70  F: -2736.327183808554764  |grad|_K:  6.138e-05  alpha:  1.386e-02  linmin:  7.971e-08  t[s]:   5616.36
	FillingsUpdate:  mu: +0.116096893  nElectrons: 391.000000  magneticMoment: [ Abs: 23.79275  Tot: +0.00000 ]
	SubspaceRotationAdjust: set factor to 3.16
ElecMinimize: Iter:  71  F: -2736.335341977478492  |grad|_K:  6.958e-05  alpha:  1.362e-02  linmin:  2.386e-05  t[s]:   5688.11
	FillingsUpdate:  mu: +0.117111644  nElectrons: 391.000000  magneticMoment: [ Abs: 23.93615  Tot: +0.00000 ]
	SubspaceRotationAdjust: set factor to 2.97
ElecMinimize: Iter:  72  F: -2736.344532351766247  |grad|_K:  6.566e-05  alpha:  1.215e-02  linmin: -2.076e-05  t[s]:   5759.85
	FillingsUpdate:  mu: +0.100536742  nElectrons: 391.000000  magneticMoment: [ Abs: 24.05737  Tot: +0.00000 ]
	SubspaceRotationAdjust: set factor to 3.56
ElecMinimize: Iter:  73  F: -2736.352317341913022  |grad|_K:  5.763e-05  alpha:  1.126e-02  linmin: -2.812e-05  t[s]:   5831.98
	FillingsUpdate:  mu: +0.093828649  nElectrons: 391.000000  magneticMoment: [ Abs: 24.16010  Tot: +0.00000 ]
	SubspaceRotationAdjust: set factor to 3.83
ElecMinimize: Iter:  74  F: -2736.360554117980882  |grad|_K:  5.825e-05  alpha:  1.516e-02  linmin: -6.732e-05  t[s]:   5907.40
	FillingsUpdate:  mu: +0.098999902  nElectrons: 391.000000  magneticMoment: [ Abs: 24.22317  Tot: -0.00000 ]
	SubspaceRotationAdjust: set factor to 4.19
ElecMinimize: Iter:  75  F: -2736.368758395830355  |grad|_K:  5.592e-05  alpha:  1.467e-02  linmin: -6.108e-05  t[s]:   5979.81
	FillingsUpdate:  mu: +0.106618698  nElectrons: 391.000000  magneticMoment: [ Abs: 24.22865  Tot: -0.00000 ]
	SubspaceRotationAdjust: set factor to 4.47
ElecMinimize: Iter:  76  F: -2736.377964995631373  |grad|_K:  5.472e-05  alpha:  1.778e-02  linmin: -3.978e-05  t[s]:   6053.50
	FillingsUpdate:  mu: +0.115934528  nElectrons: 391.000000  magneticMoment: [ Abs: 24.20299  Tot: -0.00000 ]
	SubspaceRotationAdjust: set factor to 5.3
ElecMinimize: Iter:  77  F: -2736.386219029862332  |grad|_K:  5.141e-05  alpha:  1.696e-02  linmin: -2.336e-06  t[s]:   6125.29
	FillingsUpdate:  mu: +0.118166670  nElectrons: 391.000000  magneticMoment: [ Abs: 24.17251  Tot: +0.00000 ]
	SubspaceRotationAdjust: set factor to 5.63
ElecMinimize: Iter:  78  F: -2736.393260251307311  |grad|_K:  5.263e-05  alpha:  1.674e-02  linmin:  7.052e-06  t[s]:   6198.82
	FillingsUpdate:  mu: +0.106835481  nElectrons: 391.000000  magneticMoment: [ Abs: 24.15683  Tot: +0.00000 ]
	SubspaceRotationAdjust: set factor to 6.12
ElecMinimize: Iter:  79  F: -2736.399945801195372  |grad|_K:  5.096e-05  alpha:  1.527e-02  linmin: -4.202e-06  t[s]:   6269.35
	FillingsUpdate:  mu: +0.094659828  nElectrons: 391.000000  magneticMoment: [ Abs: 24.16250  Tot: +0.00000 ]
	SubspaceRotationAdjust: set factor to 7.96
	SubspaceRotationAdjust: resetting CG because factor has changed by 7.95906
ElecMinimize: 	State modified externally: resetting search direction.
ElecMinimize: Iter:  80  F: -2736.405623804590050  |grad|_K:  4.907e-05  alpha:  1.374e-02
ElecMinimize: 	Predicted alpha/alphaT>3.000000, increasing alphaT to 4.120732e-02.
	FillingsUpdate:  mu: +0.149469483  nElectrons: 391.000000  magneticMoment: [ Abs: 24.09750  Tot: +0.00000 ]
	SubspaceRotationAdjust: set factor to 4.03
ElecMinimize: Iter:  81  F: -2736.421197017701161  |grad|_K:  2.364e-04  alpha:  9.814e-02  linmin:  9.883e-03  t[s]:   6457.94
ElecMinimize: 	Bad step direction: g.d > 0.
ElecMinimize: 	Undoing step.
ElecMinimize: 	Step failed: resetting search direction.
	FillingsUpdate:  mu: +0.149469483  nElectrons: 391.000000  magneticMoment: [ Abs: 24.09750  Tot: +0.00000 ]
	SubspaceRotationAdjust: set factor to 2.07
ElecMinimize: Iter:  82  F: -2736.421197017697068  |grad|_K:  1.694e-04  alpha:  0.000e+00
	FillingsUpdate:  mu: +0.117022368  nElectrons: 391.000000  magneticMoment: [ Abs: 24.25134  Tot: -0.00000 ]
	SubspaceRotationAdjust: set factor to 2.24
ElecMinimize: Iter:  83  F: -2736.451722444423922  |grad|_K:  3.156e-05  alpha:  9.410e-03  linmin: -2.646e-03  t[s]:   6572.79
ElecMinimize: 	Predicted alpha/alphaT>3.000000, increasing alphaT to 2.823123e-02.
ElecMinimize: 	Predicted alpha/alphaT>3.000000, increasing alphaT to 8.469369e-02.
	FillingsUpdate:  mu: +0.102643202  nElectrons: 391.000000  magneticMoment: [ Abs: 24.15820  Tot: -0.00000 ]
	SubspaceRotationAdjust: set factor to 1.51
ElecMinimize: Iter:  84  F: -2736.468024513588716  |grad|_K:  2.903e-05  alpha:  9.730e-02  linmin:  4.682e-04  t[s]:   6704.89
	FillingsUpdate:  mu: +0.094423545  nElectrons: 391.000000  magneticMoment: [ Abs: 24.12167  Tot: -0.00000 ]
	SubspaceRotationAdjust: set factor to 1.16
ElecMinimize: Iter:  85  F: -2736.481917226120913  |grad|_K:  2.357e-05  alpha:  1.083e-01  linmin: -9.523e-04  t[s]:   6778.69
	FillingsUpdate:  mu: +0.111906697  nElectrons: 391.000000  magneticMoment: [ Abs: 24.01741  Tot: +0.00000 ]
	SubspaceRotationAdjust: set factor to 1.15
ElecMinimize: Iter:  86  F: -2736.496481064989894  |grad|_K:  1.599e-05  alpha:  1.580e-01  linmin: -1.072e-05  t[s]:   6852.01
	FillingsUpdate:  mu: +0.109888818  nElectrons: 391.000000  magneticMoment: [ Abs: 23.81730  Tot: -0.00000 ]
	SubspaceRotationAdjust: set factor to 0.966
	SubspaceRotationAdjust: resetting CG because factor has changed by 0.121414
ElecMinimize: 	State modified externally: resetting search direction.
ElecMinimize: Iter:  87  F: -2736.504465636810437  |grad|_K:  1.380e-05  alpha:  1.990e-01
	FillingsUpdate:  mu: +0.097734167  nElectrons: 391.000000  magneticMoment: [ Abs: 23.79168  Tot: +0.00000 ]
	SubspaceRotationAdjust: set factor to 1.14
ElecMinimize: Iter:  88  F: -2736.508193730719995  |grad|_K:  7.870e-06  alpha:  1.249e-01  linmin:  5.677e-05  t[s]:   7012.46
	FillingsUpdate:  mu: +0.103619264  nElectrons: 391.000000  magneticMoment: [ Abs: 23.68971  Tot: +0.00000 ]
	SubspaceRotationAdjust: set factor to 0.91
ElecMinimize: Iter:  89  F: -2736.510716632828917  |grad|_K:  7.337e-06  alpha:  2.610e-01  linmin:  9.709e-04  t[s]:   7083.81
	FillingsUpdate:  mu: +0.099873421  nElectrons: 391.000000  magneticMoment: [ Abs: 23.60321  Tot: +0.00000 ]
	SubspaceRotationAdjust: set factor to 0.654
ElecMinimize: Iter:  90  F: -2736.512788486611953  |grad|_K:  5.397e-06  alpha:  2.504e-01  linmin: -4.138e-05  t[s]:   7155.17
	FillingsUpdate:  mu: +0.106960130  nElectrons: 391.000000  magneticMoment: [ Abs: 23.43843  Tot: -0.00000 ]
	SubspaceRotationAdjust: set factor to 0.541
ElecMinimize: Iter:  91  F: -2736.514520931717470  |grad|_K:  4.281e-06  alpha:  3.774e-01  linmin:  6.168e-04  t[s]:   7226.26
	FillingsUpdate:  mu: +0.099613846  nElectrons: 391.000000  magneticMoment: [ Abs: 23.35338  Tot: +0.00000 ]
	SubspaceRotationAdjust: set factor to 0.506
ElecMinimize: Iter:  92  F: -2736.515302139055621  |grad|_K:  2.283e-06  alpha:  2.766e-01  linmin: -5.491e-06  t[s]:   7297.57
	FillingsUpdate:  mu: +0.101554615  nElectrons: 391.000000  magneticMoment: [ Abs: 23.31270  Tot: -0.00000 ]
	SubspaceRotationAdjust: set factor to 0.501
ElecMinimize: Iter:  93  F: -2736.515536575034730  |grad|_K:  1.408e-06  alpha:  2.830e-01  linmin:  2.059e-05  t[s]:   7371.21
	FillingsUpdate:  mu: +0.101772288  nElectrons: 391.000000  magneticMoment: [ Abs: 23.28518  Tot: -0.00000 ]
	SubspaceRotationAdjust: set factor to 0.495
ElecMinimize: Iter:  94  F: -2736.515644858263386  |grad|_K:  1.095e-06  alpha:  3.441e-01  linmin:  2.328e-05  t[s]:   7442.35
	FillingsUpdate:  mu: +0.101249059  nElectrons: 391.000000  magneticMoment: [ Abs: 23.26551  Tot: -0.00000 ]
	SubspaceRotationAdjust: set factor to 0.511
ElecMinimize: Iter:  95  F: -2736.515721151107755  |grad|_K:  9.246e-07  alpha:  4.011e-01  linmin:  2.599e-05  t[s]:   7514.16
	FillingsUpdate:  mu: +0.101356867  nElectrons: 391.000000  magneticMoment: [ Abs: 23.25263  Tot: +0.00000 ]
	SubspaceRotationAdjust: set factor to 0.527
ElecMinimize: Iter:  96  F: -2736.515774294012772  |grad|_K:  7.403e-07  alpha:  3.926e-01  linmin:  2.075e-05  t[s]:   7587.79
	FillingsUpdate:  mu: +0.101435224  nElectrons: 391.000000  magneticMoment: [ Abs: 23.24342  Tot: -0.00000 ]
	SubspaceRotationAdjust: set factor to 0.553
ElecMinimize: Iter:  97  F: -2736.515802477179022  |grad|_K:  4.616e-07  alpha:  3.247e-01  linmin:  1.321e-05  t[s]:   7657.78
	FillingsUpdate:  mu: +0.101396509  nElectrons: 391.000000  magneticMoment: [ Abs: 23.23910  Tot: -0.00000 ]
	SubspaceRotationAdjust: set factor to 0.596
ElecMinimize: Iter:  98  F: -2736.515812465524959  |grad|_K:  3.025e-07  alpha:  2.957e-01  linmin:  6.905e-06  t[s]:   7730.16
	FillingsUpdate:  mu: +0.101461746  nElectrons: 391.000000  magneticMoment: [ Abs: 23.23638  Tot: -0.00000 ]
	SubspaceRotationAdjust: set factor to 0.646
ElecMinimize: Iter:  99  F: -2736.515817174828499  |grad|_K:  2.388e-07  alpha:  3.244e-01  linmin:  4.266e-06  t[s]:   7799.69
	FillingsUpdate:  mu: +0.101504609  nElectrons: 391.000000  magneticMoment: [ Abs: 23.23375  Tot: -0.00000 ]
	SubspaceRotationAdjust: set factor to 0.693
ElecMinimize: Iter: 100  F: -2736.515820371872451  |grad|_K:  2.098e-07  alpha:  3.534e-01  linmin:  3.399e-06  t[s]:   7874.02
	FillingsUpdate:  mu: +0.101407332  nElectrons: 391.000000  magneticMoment: [ Abs: 23.23199  Tot: +0.00000 ]
	SubspaceRotationAdjust: set factor to 0.742
ElecMinimize: Iter: 101  F: -2736.515822650756036  |grad|_K:  1.688e-07  alpha:  3.266e-01  linmin:  2.050e-06  t[s]:   7948.52
	FillingsUpdate:  mu: +0.101572308  nElectrons: 391.000000  magneticMoment: [ Abs: 23.23037  Tot: -0.00000 ]
	SubspaceRotationAdjust: set factor to 0.798
ElecMinimize: Iter: 102  F: -2736.515823977743821  |grad|_K:  1.263e-07  alpha:  2.935e-01  linmin:  1.360e-06  t[s]:   8021.44
	FillingsUpdate:  mu: +0.101409457  nElectrons: 391.000000  magneticMoment: [ Abs: 23.22879  Tot: -0.00000 ]
	SubspaceRotationAdjust: set factor to 0.857
ElecMinimize: Iter: 103  F: -2736.515824783383323  |grad|_K:  1.102e-07  alpha:  3.184e-01  linmin:  6.670e-07  t[s]:   8093.76
	FillingsUpdate:  mu: +0.101509914  nElectrons: 391.000000  magneticMoment: [ Abs: 23.22598  Tot: -0.00000 ]
	SubspaceRotationAdjust: set factor to 0.831
ElecMinimize: Iter: 104  F: -2736.515825446349936  |grad|_K:  1.167e-07  alpha:  3.440e-01  linmin:  1.136e-06  t[s]:   8166.87
	FillingsUpdate:  mu: +0.101461364  nElectrons: 391.000000  magneticMoment: [ Abs: 23.22309  Tot: +0.00000 ]
	SubspaceRotationAdjust: set factor to 0.685
ElecMinimize: Iter: 105  F: -2736.515825981568014  |grad|_K:  1.049e-07  alpha:  2.475e-01  linmin: -1.093e-07  t[s]:   8240.67
	FillingsUpdate:  mu: +0.101528556  nElectrons: 391.000000  magneticMoment: [ Abs: 23.21947  Tot: -0.00000 ]
	SubspaceRotationAdjust: set factor to 0.656
ElecMinimize: Iter: 106  F: -2736.515826479539555  |grad|_K:  8.450e-08  alpha:  2.851e-01  linmin:  1.809e-06  t[s]:   8313.09
	FillingsUpdate:  mu: +0.101479946  nElectrons: 391.000000  magneticMoment: [ Abs: 23.21645  Tot: +0.00000 ]
	SubspaceRotationAdjust: set factor to 0.72
ElecMinimize: Iter: 107  F: -2736.515826884775379  |grad|_K:  7.205e-08  alpha:  3.586e-01  linmin:  5.918e-07  t[s]:   8385.74
ElecMinimize: Converged (|Delta F|<1.000000e-06 for 5 iters).
Setting wave functions to eigenvectors of Hamiltonian

# Ionic positions in lattice coordinates:
ion Ni   0.000000000000000   0.000000000000000   0.150000000000000 1
ion Ni   0.500000000000000   0.000000000000000   0.150000000000000 1
ion Ni   0.000000000000000   0.500000000000000   0.150000000000000 1
ion Ni   0.500000000000000   0.500000000000000   0.150000000000000 1
ion Ni   0.250000000000000   0.250000000000000   0.050000000000000 1
ion Ni   0.250000000000000   0.750000000000000   0.050000000000000 1
ion Ni  -0.250000000000000   0.250000000000000   0.050000000000000 1
ion Ni  -0.250000000000000   0.750000000000000   0.050000000000000 1
ion Ni   0.000000000000000   0.000000000000000  -0.050000000000000 0
ion Ni   0.500000000000000   0.000000000000000  -0.050000000000000 0
ion Ni   0.000000000000000   0.500000000000000  -0.050000000000000 0
ion Ni   0.500000000000000   0.500000000000000  -0.050000000000000 0
ion Ni   0.250000000000000   0.250000000000000  -0.150000000000000 0
ion Ni   0.250000000000000   0.750000000000000  -0.150000000000000 0
ion Ni  -0.250000000000000   0.250000000000000  -0.150000000000000 0
ion Ni  -0.250000000000000   0.750000000000000  -0.150000000000000 0
ion O   0.250000000000000   0.250000000000000   0.150000000000000 1
ion O   0.250000000000000   0.750000000000000   0.150000000000000 1
ion O  -0.250000000000000   0.250000000000000   0.150000000000000 1
ion O  -0.250000000000000   0.750000000000000   0.150000000000000 1
ion O   0.000000000000000   0.000000000000000   0.050000000000000 1
ion O   0.500000000000000   0.000000000000000   0.050000000000000 1
ion O   0.000000000000000   0.500000000000000   0.050000000000000 1
ion O   0.500000000000000   0.500000000000000   0.050000000000000 1
ion O   0.250000000000000   0.250000000000000  -0.050000000000000 0
ion O   0.250000000000000   0.750000000000000  -0.050000000000000 0
ion O  -0.250000000000000   0.250000000000000  -0.050000000000000 0
ion O  -0.250000000000000   0.750000000000000  -0.050000000000000 0
ion O   0.000000000000000   0.000000000000000  -0.150000000000000 0
ion O   0.500000000000000   0.000000000000000  -0.150000000000000 0
ion O   0.000000000000000   0.500000000000000  -0.150000000000000 0
ion O   0.500000000000000   0.500000000000000  -0.150000000000000 0
ion O   0.000000000000000   0.000000000000000   0.230000000000000 1
ion H   0.100000000000000   0.100000000000000   0.250000000000000 1

# Forces in Lattice coordinates:
force Ni   0.074787696018369   0.044141161825891  -2.597839979785221 1
force Ni   0.023456814778514  -0.015391885723232  -0.322121302061248 1
force Ni  -0.015170340761084   0.024482533820400  -0.320451261006138 1
force Ni   0.010024985070160   0.012851742206755  -0.337213725420799 1
force Ni   0.007549933737854   0.009680301608570   0.156874773677242 1
force Ni   0.014265887922311  -0.015185024276890   0.187772617702391 1
force Ni  -0.009924331072255   0.012392620607470   0.150128568848450 1
force Ni  -0.009552403161517  -0.011265546266845   0.194080171077918 1
force Ni  -0.003075211709282  -0.002017074994367  -0.282892965331918 0
force Ni  -0.000548159237934   0.000697563017169  -0.180200105940509 0
force Ni   0.001529694867998  -0.000587650901274  -0.176368411348491 0
force Ni   0.000433004295146  -0.001403570080619  -0.171798765692174 0
force Ni   0.001214110230058   0.000326173957209   0.342447898563197 0
force Ni   0.001122256804170  -0.000280703745800   0.341412892517995 0
force Ni   0.001963042086707   0.000168963258864   0.342663328486832 0
force Ni   0.002019793282426  -0.000090001864716   0.342126471410701 0
force O   0.021954560884980   0.027714045596984  -0.194972227448762 1
force O   0.038177222797242  -0.041354271486494  -0.390546673393285 1
force O  -0.054070666901339   0.047507369240733  -0.380220432905269 1
force O  -0.051599746126766  -0.045231323034002  -0.337196477538832 1
force O  -0.016345929159928   0.001144577615028   0.427247153092011 1
force O   0.003735075078037   0.000910097214155  -0.072061618009123 1
force O   0.006606360409893  -0.001519834428405  -0.079224058695570 1
force O   0.000125621503684  -0.004357067221848  -0.107889182472243 1
force O  -0.006604670221604  -0.000743746826349   0.110334034834223 0
force O  -0.007255271049692   0.001277748162074   0.098841343735928 0
force O  -0.004461418164704  -0.000529066100694   0.103892008626317 0
force O  -0.004838005540488   0.000166442197027   0.098988266705736 0
force O   0.008248483304630   0.000627313266435   0.037312045694280 0
force O   0.007214280352967   0.000302532334692   0.041051929504590 0
force O   0.006796770662457  -0.000330835812317   0.042429153383141 0
force O   0.006977265664791  -0.000078808520637   0.023899190755925 0
force O  -0.375282028258690  -0.363703997068878   2.483247524046352 1
force H   0.323399081368251   0.323276404752411   0.518544100607285 1

# Energy components:
   Eewald =     7281.5124762993327749
       EH =     9762.9463096589570341
     Eloc =   -19859.4859374156658305
      Enl =     -852.2656223183862494
   Epulay =        0.0007330941558102
      Exc =     -302.1700588110223293
       KE =     1230.7261765840466978
        U =        2.2209357972151484
-------------------------------------
     Etot =    -2736.5149871113671907
       TS =        0.0008397734080751
-------------------------------------
        F =    -2736.5158268847753789

IonicMinimize: Iter:   0  F: -2736.515826884775379  |grad|_K:  1.568e-02  t[s]:   8394.38

#--- Lowdin population analysis ---
# oxidation-state Ni +3.532 +3.734 +3.732 +3.659 +3.372 +3.367 +3.367 +3.368 +3.373 +3.372 +3.372 +3.371 +3.725 +3.723 +3.724 +3.724
# magnetic-moments Ni +0.615 -1.009 +1.001 -0.875 +0.909 +0.905 -0.901 -0.904 -0.921 +0.908 -0.907 +0.913 -1.009 -1.008 +1.009 +1.008
# oxidation-state O -0.601 -0.581 -0.585 -0.584 -0.571 -0.579 -0.579 -0.579 -0.581 -0.581 -0.580 -0.580 -0.635 -0.638 -0.638 -0.638 -0.541
# magnetic-moments O +0.155 +0.187 -0.105 -0.122 -0.040 -0.051 +0.052 -0.026 -0.050 -0.054 +0.052 +0.052 -0.146 +0.139 -0.138 +0.136 +0.262
# oxidation-state H +0.392
# magnetic-moments H -0.004


-------- Electronic minimization -----------
	FillingsUpdate:  mu: +0.113602712  nElectrons: 391.000000  magneticMoment: [ Abs: 23.21424  Tot: +0.00000 ]
ElecMinimize: Iter:   0  F: -2735.523438436468041  |grad|_K:  1.917e-04  alpha:  1.000e+00
	FillingsUpdate:  mu: +0.135081878  nElectrons: 391.000000  magneticMoment: [ Abs: 23.21455  Tot: +0.00000 ]
	SubspaceRotationAdjust: set factor to 0.542
ElecMinimize: Iter:   1  F: -2736.418503445469923  |grad|_K:  5.835e-05  alpha:  1.884e-01  linmin:  1.747e-02  t[s]:   8488.92
	FillingsUpdate:  mu: +0.109376576  nElectrons: 391.000000  magneticMoment: [ Abs: 23.14635  Tot: -0.00000 ]
	SubspaceRotationAdjust: set factor to 0.287
ElecMinimize: Iter:   2  F: -2736.497890435351565  |grad|_K:  2.401e-05  alpha:  1.717e-01  linmin:  2.515e-03  t[s]:   8562.00
	FillingsUpdate:  mu: +0.106579991  nElectrons: 391.000000  magneticMoment: [ Abs: 23.14694  Tot: +0.00000 ]
	SubspaceRotationAdjust: set factor to 0.375
ElecMinimize: Iter:   3  F: -2736.513485596857208  |grad|_K:  1.024e-05  alpha:  1.813e-01  linmin:  2.077e-04  t[s]:   8635.40
	FillingsUpdate:  mu: +0.097169852  nElectrons: 391.000000  magneticMoment: [ Abs: 23.16060  Tot: +0.00000 ]
	SubspaceRotationAdjust: set factor to 0.389
ElecMinimize: Iter:   4  F: -2736.518162356716857  |grad|_K:  7.516e-06  alpha:  2.830e-01  linmin:  6.763e-05  t[s]:   8710.25
	FillingsUpdate:  mu: +0.099048661  nElectrons: 391.000000  magneticMoment: [ Abs: 23.15238  Tot: -0.00000 ]
	SubspaceRotationAdjust: set factor to 0.451
ElecMinimize: Iter:   5  F: -2736.521020461045282  |grad|_K:  6.026e-06  alpha:  3.191e-01  linmin: -7.942e-05  t[s]:   8783.13
	FillingsUpdate:  mu: +0.100710464  nElectrons: 391.000000  magneticMoment: [ Abs: 23.14639  Tot: -0.00000 ]
	SubspaceRotationAdjust: set factor to 0.553
ElecMinimize: Iter:   6  F: -2736.523075219446582  |grad|_K:  5.065e-06  alpha:  3.533e-01  linmin:  3.316e-05  t[s]:   8857.55
	FillingsUpdate:  mu: +0.097517862  nElectrons: 391.000000  magneticMoment: [ Abs: 23.15958  Tot: -0.00000 ]
	SubspaceRotationAdjust: set factor to 0.601
ElecMinimize: Iter:   7  F: -2736.524273525317312  |grad|_K:  4.067e-06  alpha:  2.939e-01  linmin:  4.919e-05  t[s]:   8932.41
	FillingsUpdate:  mu: +0.099015426  nElectrons: 391.000000  magneticMoment: [ Abs: 23.16462  Tot: -0.00000 ]
	SubspaceRotationAdjust: set factor to 0.527
ElecMinimize: Iter:   8  F: -2736.524882459909804  |grad|_K:  2.726e-06  alpha:  2.354e-01  linmin: -3.390e-05  t[s]:   9004.85
	FillingsUpdate:  mu: +0.098584198  nElectrons: 391.000000  magneticMoment: [ Abs: 23.17399  Tot: +0.00000 ]
	SubspaceRotationAdjust: set factor to 0.538
ElecMinimize: Iter:   9  F: -2736.525144344274395  |grad|_K:  1.565e-06  alpha:  2.203e-01  linmin:  1.735e-05  t[s]:   9079.48
	FillingsUpdate:  mu: +0.098995065  nElectrons: 391.000000  magneticMoment: [ Abs: 23.17921  Tot: +0.00000 ]
	SubspaceRotationAdjust: set factor to 0.56
ElecMinimize: Iter:  10  F: -2736.525249558299038  |grad|_K:  1.005e-06  alpha:  2.710e-01  linmin:  2.199e-06  t[s]:   9152.62
	FillingsUpdate:  mu: +0.099242214  nElectrons: 391.000000  magneticMoment: [ Abs: 23.18400  Tot: +0.00000 ]
	SubspaceRotationAdjust: set factor to 0.515
ElecMinimize: Iter:  11  F: -2736.525289875274666  |grad|_K:  6.936e-07  alpha:  2.513e-01  linmin: -7.535e-06  t[s]:   9226.29
	FillingsUpdate:  mu: +0.098827656  nElectrons: 391.000000  magneticMoment: [ Abs: 23.19034  Tot: -0.00000 ]
	SubspaceRotationAdjust: set factor to 0.478
ElecMinimize: Iter:  12  F: -2736.525307835802778  |grad|_K:  4.722e-07  alpha:  2.349e-01  linmin: -1.202e-05  t[s]:   9296.79
	FillingsUpdate:  mu: +0.099192421  nElectrons: 391.000000  magneticMoment: [ Abs: 23.19471  Tot: +0.00000 ]
	SubspaceRotationAdjust: set factor to 0.551
ElecMinimize: Iter:  13  F: -2736.525318059750134  |grad|_K:  3.455e-07  alpha:  2.883e-01  linmin: -1.788e-06  t[s]:   9368.69
	FillingsUpdate:  mu: +0.099091858  nElectrons: 391.000000  magneticMoment: [ Abs: 23.20043  Tot: -0.00000 ]
	SubspaceRotationAdjust: set factor to 0.673
ElecMinimize: Iter:  14  F: -2736.525323985923023  |grad|_K:  2.962e-07  alpha:  3.125e-01  linmin: -6.463e-07  t[s]:   9442.82
	FillingsUpdate:  mu: +0.098785543  nElectrons: 391.000000  magneticMoment: [ Abs: 23.20816  Tot: +0.00000 ]
	SubspaceRotationAdjust: set factor to 0.711
ElecMinimize: Iter:  15  F: -2736.525328416543744  |grad|_K:  2.898e-07  alpha:  3.178e-01  linmin: -8.110e-06  t[s]:   9515.46
	FillingsUpdate:  mu: +0.099162914  nElectrons: 391.000000  magneticMoment: [ Abs: 23.21535  Tot: -0.00000 ]
	SubspaceRotationAdjust: set factor to 0.691
ElecMinimize: Iter:  16  F: -2736.525332193222312  |grad|_K:  2.755e-07  alpha:  2.828e-01  linmin: -1.328e-06  t[s]:   9588.05
	FillingsUpdate:  mu: +0.098901981  nElectrons: 391.000000  magneticMoment: [ Abs: 23.22728  Tot: -0.00000 ]
	SubspaceRotationAdjust: set factor to 0.769
ElecMinimize: Iter:  17  F: -2736.525336217317545  |grad|_K:  2.498e-07  alpha:  3.336e-01  linmin: -8.122e-07  t[s]:   9661.36
	FillingsUpdate:  mu: +0.098796913  nElectrons: 391.000000  magneticMoment: [ Abs: 23.24072  Tot: -0.00000 ]
	SubspaceRotationAdjust: set factor to 0.83
ElecMinimize: Iter:  18  F: -2736.525339911493575  |grad|_K:  2.515e-07  alpha:  3.726e-01  linmin: -3.600e-07  t[s]:   9731.69
	FillingsUpdate:  mu: +0.099078528  nElectrons: 391.000000  magneticMoment: [ Abs: 23.25345  Tot: +0.00000 ]
	SubspaceRotationAdjust: set factor to 0.867
ElecMinimize: Iter:  19  F: -2736.525343286468342  |grad|_K:  2.356e-07  alpha:  3.355e-01  linmin:  5.949e-06  t[s]:   9804.37
	FillingsUpdate:  mu: +0.098655056  nElectrons: 391.000000  magneticMoment: [ Abs: 23.26562  Tot: -0.00000 ]
	SubspaceRotationAdjust: set factor to 0.896
ElecMinimize: Iter:  20  F: -2736.525345971075694  |grad|_K:  2.144e-07  alpha:  3.051e-01  linmin: -1.056e-06  t[s]:   9876.80
	FillingsUpdate:  mu: +0.098888409  nElectrons: 391.000000  magneticMoment: [ Abs: 23.27294  Tot: +0.00000 ]
	SubspaceRotationAdjust: set factor to 0.795
ElecMinimize: Iter:  21  F: -2736.525347622464778  |grad|_K:  1.860e-07  alpha:  2.264e-01  linmin: -1.383e-06  t[s]:   9947.57
	FillingsUpdate:  mu: +0.098855279  nElectrons: 391.000000  magneticMoment: [ Abs: 23.27852  Tot: -0.00000 ]
	SubspaceRotationAdjust: set factor to 0.694
ElecMinimize: Iter:  22  F: -2736.525348749113618  |grad|_K:  1.331e-07  alpha:  2.050e-01  linmin: -4.778e-06  t[s]:  10020.60
	FillingsUpdate:  mu: +0.098793357  nElectrons: 391.000000  magneticMoment: [ Abs: 23.28133  Tot: -0.00000 ]
	SubspaceRotationAdjust: set factor to 0.705
ElecMinimize: Iter:  23  F: -2736.525349433783958  |grad|_K:  9.010e-08  alpha:  2.429e-01  linmin:  2.449e-06  t[s]:  10092.74
	FillingsUpdate:  mu: +0.098806727  nElectrons: 391.000000  magneticMoment: [ Abs: 23.28298  Tot: -0.00000 ]
	SubspaceRotationAdjust: set factor to 0.825
ElecMinimize: Iter:  24  F: -2736.525349806194754  |grad|_K:  6.685e-08  alpha:  2.889e-01  linmin:  2.073e-07  t[s]:  10165.35
	FillingsUpdate:  mu: +0.098816628  nElectrons: 391.000000  magneticMoment: [ Abs: 23.28380  Tot: +0.00000 ]
	SubspaceRotationAdjust: set factor to 0.789
ElecMinimize: Iter:  25  F: -2736.525349991687108  |grad|_K:  5.682e-08  alpha:  2.617e-01  linmin:  1.418e-07  t[s]:  10238.83
	FillingsUpdate:  mu: +0.098840851  nElectrons: 391.000000  magneticMoment: [ Abs: 23.28387  Tot: -0.00000 ]
	SubspaceRotationAdjust: set factor to 0.761
ElecMinimize: Iter:  26  F: -2736.525350104117024  |grad|_K:  4.397e-08  alpha:  2.192e-01  linmin:  1.499e-07  t[s]:  10312.01
	FillingsUpdate:  mu: +0.098786617  nElectrons: 391.000000  magneticMoment: [ Abs: 23.28393  Tot: -0.00000 ]
	SubspaceRotationAdjust: set factor to 0.823
ElecMinimize: Iter:  27  F: -2736.525350185066145  |grad|_K:  3.459e-08  alpha:  2.637e-01  linmin:  2.850e-06  t[s]:  10384.27
ElecMinimize: Converged (|Delta F|<1.000000e-06 for 5 iters).
Setting wave functions to eigenvectors of Hamiltonian

# Ionic positions in lattice coordinates:
ion Ni   0.000602209668008   0.000355435931629   0.148326522211481 1
ion Ni   0.500188880275665  -0.000123939402935   0.149792495747081 1
ion Ni  -0.000122155466202   0.500197139627892   0.149793571554919 1
ion Ni   0.500080723745379   0.500103485517267   0.149782773502654 1
ion Ni   0.250060793998636   0.250077948265935   0.050101055666004 1
ion Ni   0.250114872580477   0.749877726298371   0.050120959453801 1
ion Ni  -0.250079913253629   0.250099788552651   0.050096709892582 1
ion Ni  -0.250076918394908   0.749909286938381   0.050125022656522 1
ion Ni   0.000000000000000   0.000000000000000  -0.050000000000000 0
ion Ni   0.500000000000000   0.000000000000000  -0.050000000000000 0
ion Ni   0.000000000000000   0.500000000000000  -0.050000000000000 0
ion Ni   0.500000000000000   0.500000000000000  -0.050000000000000 0
ion Ni   0.250000000000000   0.250000000000000  -0.150000000000000 0
ion Ni   0.250000000000000   0.750000000000000  -0.150000000000000 0
ion Ni  -0.250000000000000   0.250000000000000  -0.150000000000000 0
ion Ni  -0.250000000000000   0.750000000000000  -0.150000000000000 0
ion O   0.250176783742858   0.250223160587726   0.149874402698183 1
ion O   0.250307412768279   0.749667004822605   0.149748417458970 1
ion O  -0.250435390847656   0.250382541495213   0.149755069421458 1
ion O  -0.250415494361221   0.749635785811329   0.149782784613402 1
ion O  -0.000131621604846   0.000009216431877   0.050275224273424 1
ion O   0.500030075780409   0.000007328335680   0.049953579312782 1
ion O   0.000053196104720   0.499987761904226   0.049948965408349 1
ion O   0.500001011536497   0.499964915779669   0.049930499895339 1
ion O   0.250000000000000   0.250000000000000  -0.050000000000000 0
ion O   0.250000000000000   0.750000000000000  -0.050000000000000 0
ion O  -0.250000000000000   0.250000000000000  -0.050000000000000 0
ion O  -0.250000000000000   0.750000000000000  -0.050000000000000 0
ion O   0.000000000000000   0.000000000000000  -0.150000000000000 0
ion O   0.500000000000000   0.000000000000000  -0.150000000000000 0
ion O   0.000000000000000   0.500000000000000  -0.150000000000000 0
ion O   0.500000000000000   0.500000000000000  -0.150000000000000 0
ion O  -0.003021866933723  -0.002928637663532   0.231599659566110 1
ion H   0.102604092167476   0.102603104343970   0.250334035984312 1

# Forces in Lattice coordinates:
force Ni   0.052023345931569   0.017089710825951  -0.913809358994983 1
force Ni   0.024062917177388  -0.012790528161435  -0.293736185759892 1
force Ni  -0.014982472921921   0.022453652828360  -0.289440533149437 1
force Ni   0.010783521864297   0.010044345985990  -0.339743905327902 1
force Ni   0.011678185120096   0.010059483754395   0.100840404447022 1
force Ni   0.018723660361594  -0.015625106504114   0.123163808264949 1
force Ni  -0.012400098530348   0.013107570020024   0.098952606441877 1
force Ni  -0.011100807130636  -0.011334775174965   0.130384142978518 1
force Ni  -0.003167257331906  -0.002998211494037  -0.296410112548542 0
force Ni   0.000044624867805  -0.000277419135316  -0.197578436560035 0
force Ni   0.000861177935894   0.000423210979695  -0.196042599088449 0
force Ni   0.001158434981543  -0.000534056260669  -0.194164998347150 0
force Ni   0.002411101718482   0.000612572724887   0.337132670413636 0
force Ni   0.002359122753663  -0.000602533486538   0.337809758312222 0
force Ni   0.000630474022581   0.000646784023791   0.337064724613994 0
force Ni   0.000886329388927  -0.000460242064135   0.340282675903411 0
force O   0.025085613826658   0.030286345916752  -0.184885740031591 1
force O   0.040237926339985  -0.042293752745213  -0.361648032324471 1
force O  -0.057162618783924   0.049483294760775  -0.347785136234288 1
force O  -0.049707184261770  -0.041536988783460  -0.328512817675801 1
force O  -0.016374750011246   0.007366955007559   0.341929522535756 1
force O   0.003123870061196   0.000814219262941  -0.082548338023362 1
force O   0.006488563696145  -0.001495878697554  -0.088966092092334 1
force O   0.001610325172375  -0.005744752308541  -0.114859734753450 1
force O  -0.007432280384193  -0.001649040651981   0.112754049883976 0
force O  -0.008447355515517   0.002317976623770   0.102915352926499 0
force O  -0.003797703013825  -0.001671331114688   0.113392224259335 0
force O  -0.004354766742065   0.001179928334913   0.104029551599261 0
force O   0.008508428500628   0.000516148941573   0.038807705315715 0
force O   0.007041455521344   0.000218967380531   0.040157727564159 0
force O   0.006876337477885  -0.000197189658087   0.042022193580359 0
force O   0.006816355668127  -0.000009658569273   0.027523739732175 0
force O  -0.137343062275729  -0.119625869788717   1.509455590604204 1
force H   0.086362567927377   0.085989077655211  -0.014959201545195 1

# Energy components:
   Eewald =     7291.1794886048055560
       EH =     9772.2156060469078511
     Eloc =   -19878.3673459200872458
      Enl =     -852.2374432134831750
   Epulay =        0.0007330941558102
      Exc =     -302.1451217042858275
       KE =     1230.6095459880903036
        U =        2.2201626148064912
-------------------------------------
     Etot =    -2736.5243744890890412
       TS =        0.0009756959772246
-------------------------------------
        F =    -2736.5253501850661451

IonicMinimize: Iter:   1  F: -2736.525350185066145  |grad|_K:  7.612e-03  alpha:  1.000e+00  linmin: -8.630e-01  t[s]:  10392.95

#--- Lowdin population analysis ---
# oxidation-state Ni +3.520 +3.736 +3.735 +3.666 +3.368 +3.363 +3.363 +3.365 +3.373 +3.372 +3.372 +3.372 +3.725 +3.724 +3.725 +3.724
# magnetic-moments Ni +0.638 -1.009 +1.002 -0.892 +0.908 +0.903 -0.896 -0.903 -0.919 +0.908 -0.908 +0.913 -1.009 -1.008 +1.009 +1.008
# oxidation-state O -0.602 -0.582 -0.586 -0.583 -0.566 -0.579 -0.579 -0.577 -0.581 -0.581 -0.581 -0.581 -0.634 -0.638 -0.638 -0.638 -0.532
# magnetic-moments O +0.152 +0.180 -0.117 -0.136 -0.030 -0.049 +0.051 -0.027 -0.051 -0.055 +0.053 +0.053 -0.149 +0.138 -0.138 +0.136 +0.279
# oxidation-state H +0.384
# magnetic-moments H -0.005


-------- Electronic minimization -----------
	FillingsUpdate:  mu: +0.105276427  nElectrons: 391.000000  magneticMoment: [ Abs: 23.28300  Tot: +0.00000 ]
ElecMinimize: Iter:   0  F: -2735.432647612675282  |grad|_K:  2.014e-04  alpha:  1.000e+00
	FillingsUpdate:  mu: +0.134862872  nElectrons: 391.000000  magneticMoment: [ Abs: 23.30778  Tot: +0.00000 ]
	SubspaceRotationAdjust: set factor to 0.552
ElecMinimize: Iter:   1  F: -2736.423153607502172  |grad|_K:  5.202e-05  alpha:  1.571e-01  linmin: -5.069e-04  t[s]:  10489.56
	FillingsUpdate:  mu: +0.118422991  nElectrons: 391.000000  magneticMoment: [ Abs: 23.15384  Tot: -0.00000 ]
	SubspaceRotationAdjust: set factor to 0.262
ElecMinimize: Iter:   2  F: -2736.496635682952729  |grad|_K:  2.885e-05  alpha:  1.774e-01  linmin:  6.861e-03  t[s]:  10566.72
	FillingsUpdate:  mu: +0.116112894  nElectrons: 391.000000  magneticMoment: [ Abs: 23.13999  Tot: +0.00000 ]
	SubspaceRotationAdjust: set factor to 0.423
ElecMinimize: Iter:   3  F: -2736.515879440610206  |grad|_K:  1.454e-05  alpha:  1.941e-01  linmin:  3.663e-04  t[s]:  10639.91
	FillingsUpdate:  mu: +0.091863739  nElectrons: 391.000000  magneticMoment: [ Abs: 23.19297  Tot: -0.00000 ]
	SubspaceRotationAdjust: set factor to 0.44
ElecMinimize: Iter:   4  F: -2736.522700503132000  |grad|_K:  9.054e-06  alpha:  2.048e-01  linmin: -1.162e-03  t[s]:  10714.11
	FillingsUpdate:  mu: +0.094465542  nElectrons: 391.000000  magneticMoment: [ Abs: 23.19588  Tot: +0.00000 ]
	SubspaceRotationAdjust: set factor to 0.545
ElecMinimize: Iter:   5  F: -2736.525727709606144  |grad|_K:  5.907e-06  alpha:  2.239e-01  linmin: -1.430e-04  t[s]:  10785.21
	FillingsUpdate:  mu: +0.101044028  nElectrons: 391.000000  magneticMoment: [ Abs: 23.18819  Tot: +0.00000 ]
	SubspaceRotationAdjust: set factor to 0.661
ElecMinimize: Iter:   6  F: -2736.527458416293939  |grad|_K:  5.412e-06  alpha:  3.093e-01  linmin: -1.461e-05  t[s]:  10856.95
	FillingsUpdate:  mu: +0.094678188  nElectrons: 391.000000  magneticMoment: [ Abs: 23.21081  Tot: -0.00000 ]
	SubspaceRotationAdjust: set factor to 0.632
ElecMinimize: Iter:   7  F: -2736.528638361538469  |grad|_K:  4.814e-06  alpha:  2.521e-01  linmin:  3.171e-05  t[s]:  10929.14
	FillingsUpdate:  mu: +0.094662861  nElectrons: 391.000000  magneticMoment: [ Abs: 23.21374  Tot: -0.00000 ]
	SubspaceRotationAdjust: set factor to 0.665
ElecMinimize: Iter:   8  F: -2736.529385593301868  |grad|_K:  3.056e-06  alpha:  2.043e-01  linmin: -1.144e-05  t[s]:  11003.35
	FillingsUpdate:  mu: +0.097202901  nElectrons: 391.000000  magneticMoment: [ Abs: 23.22470  Tot: -0.00000 ]
	SubspaceRotationAdjust: set factor to 0.733
ElecMinimize: Iter:   9  F: -2736.529761367400170  |grad|_K:  1.942e-06  alpha:  2.525e-01  linmin: -2.455e-05  t[s]:  11077.80
	FillingsUpdate:  mu: +0.095596967  nElectrons: 391.000000  magneticMoment: [ Abs: 23.23570  Tot: +0.00000 ]
	SubspaceRotationAdjust: set factor to 0.565
ElecMinimize: Iter:  10  F: -2736.529864679942420  |grad|_K:  1.393e-06  alpha:  1.723e-01  linmin: -3.397e-07  t[s]:  11148.03
	FillingsUpdate:  mu: +0.095987594  nElectrons: 391.000000  magneticMoment: [ Abs: 23.23670  Tot: -0.00000 ]
	SubspaceRotationAdjust: set factor to 0.465
ElecMinimize: Iter:  11  F: -2736.529923387009603  |grad|_K:  8.709e-07  alpha:  1.903e-01  linmin: -3.774e-06  t[s]:  11219.93
	FillingsUpdate:  mu: +0.096118719  nElectrons: 391.000000  magneticMoment: [ Abs: 23.24430  Tot: +0.00000 ]
	SubspaceRotationAdjust: set factor to 0.577
ElecMinimize: Iter:  12  F: -2736.529954296312553  |grad|_K:  5.979e-07  alpha:  2.564e-01  linmin: -2.508e-06  t[s]:  11293.02
	FillingsUpdate:  mu: +0.095977796  nElectrons: 391.000000  magneticMoment: [ Abs: 23.25195  Tot: +0.00000 ]
	SubspaceRotationAdjust: set factor to 0.551
ElecMinimize: Iter:  13  F: -2736.529968571830068  |grad|_K:  4.592e-07  alpha:  2.513e-01  linmin: -3.677e-05  t[s]:  11366.58
	FillingsUpdate:  mu: +0.096232047  nElectrons: 391.000000  magneticMoment: [ Abs: 23.25607  Tot: +0.00000 ]
	SubspaceRotationAdjust: set factor to 0.602
ElecMinimize: Iter:  14  F: -2736.529976878044636  |grad|_K:  3.544e-07  alpha:  2.476e-01  linmin: -6.162e-06  t[s]:  11440.76
	FillingsUpdate:  mu: +0.095892848  nElectrons: 391.000000  magneticMoment: [ Abs: 23.26398  Tot: -0.00000 ]
	SubspaceRotationAdjust: set factor to 0.745
ElecMinimize: Iter:  15  F: -2736.529983403936967  |grad|_K:  3.199e-07  alpha:  3.270e-01  linmin:  7.606e-07  t[s]:  11512.48
	FillingsUpdate:  mu: +0.095967171  nElectrons: 391.000000  magneticMoment: [ Abs: 23.27443  Tot: +0.00000 ]
	SubspaceRotationAdjust: set factor to 0.795
ElecMinimize: Iter:  16  F: -2736.529989024353199  |grad|_K:  3.234e-07  alpha:  3.456e-01  linmin: -9.595e-06  t[s]:  11583.73
	FillingsUpdate:  mu: +0.096265122  nElectrons: 391.000000  magneticMoment: [ Abs: 23.28171  Tot: +0.00000 ]
	SubspaceRotationAdjust: set factor to 0.731
ElecMinimize: Iter:  17  F: -2736.529993007605299  |grad|_K:  3.075e-07  alpha:  2.396e-01  linmin: -6.571e-07  t[s]:  11656.40
	FillingsUpdate:  mu: +0.095736745  nElectrons: 391.000000  magneticMoment: [ Abs: 23.29160  Tot: -0.00000 ]
	SubspaceRotationAdjust: set factor to 0.668
ElecMinimize: Iter:  18  F: -2736.529996425836543  |grad|_K:  2.537e-07  alpha:  2.275e-01  linmin: -1.032e-05  t[s]:  11730.79
	FillingsUpdate:  mu: +0.095933642  nElectrons: 391.000000  magneticMoment: [ Abs: 23.30109  Tot: +0.00000 ]
	SubspaceRotationAdjust: set factor to 0.78
ElecMinimize: Iter:  19  F: -2736.529999602172666  |grad|_K:  2.099e-07  alpha:  3.102e-01  linmin:  5.907e-06  t[s]:  11803.13
	FillingsUpdate:  mu: +0.096109757  nElectrons: 391.000000  magneticMoment: [ Abs: 23.30852  Tot: +0.00000 ]
	SubspaceRotationAdjust: set factor to 0.863
ElecMinimize: Iter:  20  F: -2736.530001884029389  |grad|_K:  1.985e-07  alpha:  3.263e-01  linmin:  2.019e-06  t[s]:  11877.90
	FillingsUpdate:  mu: +0.095747934  nElectrons: 391.000000  magneticMoment: [ Abs: 23.31418  Tot: -0.00000 ]
	SubspaceRotationAdjust: set factor to 0.743
ElecMinimize: Iter:  21  F: -2736.530003189236595  |grad|_K:  1.726e-07  alpha:  2.092e-01  linmin:  1.885e-06  t[s]:  11947.56
	FillingsUpdate:  mu: +0.095887585  nElectrons: 391.000000  magneticMoment: [ Abs: 23.31760  Tot: +0.00000 ]
	SubspaceRotationAdjust: set factor to 0.735
ElecMinimize: Iter:  22  F: -2736.530004200859366  |grad|_K:  1.227e-07  alpha:  2.138e-01  linmin:  3.544e-08  t[s]:  12019.84
	FillingsUpdate:  mu: +0.095935935  nElectrons: 391.000000  magneticMoment: [ Abs: 23.32038  Tot: -0.00000 ]
	SubspaceRotationAdjust: set factor to 0.765
ElecMinimize: Iter:  23  F: -2736.530004828597157  |grad|_K:  8.760e-08  alpha:  2.625e-01  linmin: -1.247e-06  t[s]:  12092.71
	FillingsUpdate:  mu: +0.095842969  nElectrons: 391.000000  magneticMoment: [ Abs: 23.32165  Tot: -0.00000 ]
	SubspaceRotationAdjust: set factor to 0.805
ElecMinimize: Iter:  24  F: -2736.530005157815140  |grad|_K:  6.399e-08  alpha:  2.699e-01  linmin:  2.649e-06  t[s]:  12162.36
	FillingsUpdate:  mu: +0.095908746  nElectrons: 391.000000  magneticMoment: [ Abs: 23.32190  Tot: -0.00000 ]
	SubspaceRotationAdjust: set factor to 0.734
ElecMinimize: Iter:  25  F: -2736.530005317050382  |grad|_K:  5.270e-08  alpha:  2.448e-01  linmin: -4.443e-06  t[s]:  12236.24
	FillingsUpdate:  mu: +0.095865333  nElectrons: 391.000000  magneticMoment: [ Abs: 23.32233  Tot: +0.00000 ]
	SubspaceRotationAdjust: set factor to 0.61
ElecMinimize: Iter:  26  F: -2736.530005401946255  |grad|_K:  3.867e-08  alpha:  1.925e-01  linmin: -2.209e-06  t[s]:  12312.18
	FillingsUpdate:  mu: +0.095884836  nElectrons: 391.000000  magneticMoment: [ Abs: 23.32228  Tot: -0.00000 ]
	SubspaceRotationAdjust: set factor to 0.661
ElecMinimize: Iter:  27  F: -2736.530005461308519  |grad|_K:  2.845e-08  alpha:  2.524e-01  linmin:  2.551e-05  t[s]:  12385.88
[...]
	FillingsUpdate:  mu: +0.094050360  nElectrons: 391.000000  magneticMoment: [ Abs: 23.19115  Tot: -0.00000 ]
	SubspaceRotationAdjust: set factor to 0.493
ElecMinimize: Iter:   6  F: -2736.537479145797988  |grad|_K:  3.073e-07  alpha:  2.579e-01  linmin:  6.031e-07  t[s]:  21924.05
	FillingsUpdate:  mu: +0.093853113  nElectrons: 391.000000  magneticMoment: [ Abs: 23.19170  Tot: -0.00000 ]
	SubspaceRotationAdjust: set factor to 0.51
ElecMinimize: Iter:   7  F: -2736.537483104383682  |grad|_K:  2.282e-07  alpha:  2.638e-01  linmin:  7.050e-07  t[s]:  21997.20
	FillingsUpdate:  mu: +0.094064792  nElectrons: 391.000000  magneticMoment: [ Abs: 23.19133  Tot: -0.00000 ]
	SubspaceRotationAdjust: set factor to 0.533
ElecMinimize: Iter:   8  F: -2736.537485042105345  |grad|_K:  1.520e-07  alpha:  2.342e-01  linmin:  7.096e-07  t[s]:  22071.54
	FillingsUpdate:  mu: +0.094080485  nElectrons: 391.000000  magneticMoment: [ Abs: 23.19145  Tot: +0.00000 ]
	SubspaceRotationAdjust: set factor to 0.601
ElecMinimize: Iter:   9  F: -2736.537486011915917  |grad|_K:  1.073e-07  alpha:  2.642e-01  linmin:  5.446e-06  t[s]:  22143.34
	FillingsUpdate:  mu: +0.093983208  nElectrons: 391.000000  magneticMoment: [ Abs: 23.19177  Tot: +0.00000 ]
	SubspaceRotationAdjust: set factor to 0.601
ElecMinimize: Iter:  10  F: -2736.537486476725917  |grad|_K:  7.850e-08  alpha:  2.544e-01  linmin: -3.982e-07  t[s]:  22216.72
	FillingsUpdate:  mu: +0.094039399  nElectrons: 391.000000  magneticMoment: [ Abs: 23.19162  Tot: +0.00000 ]
	SubspaceRotationAdjust: set factor to 0.585
ElecMinimize: Iter:  11  F: -2736.537486718168111  |grad|_K:  5.612e-08  alpha:  2.465e-01  linmin: -7.648e-06  t[s]:  22290.27
	FillingsUpdate:  mu: +0.094035470  nElectrons: 391.000000  magneticMoment: [ Abs: 23.19175  Tot: +0.00000 ]
	SubspaceRotationAdjust: set factor to 0.66
ElecMinimize: Iter:  12  F: -2736.537486841667032  |grad|_K:  3.791e-08  alpha:  2.463e-01  linmin: -1.982e-05  t[s]:  22365.79
	FillingsUpdate:  mu: +0.094010163  nElectrons: 391.000000  magneticMoment: [ Abs: 23.19191  Tot: +0.00000 ]
	SubspaceRotationAdjust: set factor to 0.694
ElecMinimize: Iter:  13  F: -2736.537486902143883  |grad|_K:  2.843e-08  alpha:  2.652e-01  linmin:  3.066e-05  t[s]:  22437.79
ElecMinimize: Converged (|Delta F|<1.000000e-06 for 5 iters).
Setting wave functions to eigenvectors of Hamiltonian

# Ionic positions in lattice coordinates:
ion Ni   0.000068714530409  -0.001681111399990   0.151106624564534 1
ion Ni   0.501537311045474  -0.000203571990510   0.145418736577036 1
ion Ni  -0.001705258383761   0.501143582071919   0.145396849975667 1
ion Ni   0.499270313215349   0.500305834361063   0.145633918132354 1
ion Ni   0.250052771997665   0.249349755927093   0.049210712801508 1
ion Ni   0.250327634961120   0.750458964583803   0.048532553713301 1
ion Ni  -0.249432594766732   0.250345737678843   0.048527946355583 1
ion Ni  -0.249206501688318   0.750147425900694   0.048518413367539 1
ion Ni   0.000000000000000   0.000000000000000  -0.050000000000000 0
ion Ni   0.500000000000000   0.000000000000000  -0.050000000000000 0
ion Ni   0.000000000000000   0.500000000000000  -0.050000000000000 0
ion Ni   0.500000000000000   0.500000000000000  -0.050000000000000 0
ion Ni   0.250000000000000   0.250000000000000  -0.150000000000000 0
ion Ni   0.250000000000000   0.750000000000000  -0.150000000000000 0
ion Ni  -0.250000000000000   0.250000000000000  -0.150000000000000 0
ion Ni  -0.250000000000000   0.750000000000000  -0.150000000000000 0
ion O   0.252640803895900   0.254028207678996   0.146487311781947 1
ion O   0.254898268962583   0.745376840255621   0.144885629297850 1
ion O  -0.256828348513975   0.256149171480680   0.144985823109523 1
ion O  -0.255811962440600   0.745144141172043   0.144955183604348 1
ion O  -0.000558112914545   0.001902980729956   0.054076553455349 1
ion O   0.500117229942562  -0.000037765860026   0.047913900064050 1
ion O   0.002653512299851   0.500077069393940   0.047873937045098 1
ion O   0.500299949220027   0.498136725314700   0.047363511612859 1
ion O   0.250000000000000   0.250000000000000  -0.050000000000000 0
ion O   0.250000000000000   0.750000000000000  -0.050000000000000 0
ion O  -0.250000000000000   0.250000000000000  -0.050000000000000 0
ion O  -0.250000000000000   0.750000000000000  -0.050000000000000 0
ion O   0.000000000000000   0.000000000000000  -0.150000000000000 0
ion O   0.500000000000000   0.000000000000000  -0.150000000000000 0
ion O   0.000000000000000   0.500000000000000  -0.150000000000000 0
ion O   0.500000000000000   0.500000000000000  -0.150000000000000 0
ion O  -0.008400808049526  -0.006689936460549   0.238556152314649 1
ion H   0.104221385430029   0.104489714545460   0.252070358825029 1

# Forces in Lattice coordinates:
force Ni   0.007062804742189   0.010975899832557  -0.112730224539947 1
force Ni  -0.002163745761514  -0.000983911818149  -0.025567191670405 1
force Ni  -0.001339468258909   0.001166620995520  -0.024595997006132 1
force Ni   0.000453505985712  -0.000061131767590  -0.024043636908329 1
force Ni   0.001384506465897   0.001674501718321  -0.011080250575897 1
force Ni   0.004279184797419  -0.003045661187634   0.002256183665255 1
force Ni  -0.001000471611621   0.001487379978688  -0.002659083716478 1
force Ni  -0.002381239189642  -0.002889003182386   0.006970782827973 1
force Ni  -0.003713777926640  -0.000562789895628  -0.219865224957968 0
force Ni   0.000256492415959   0.002526493130198  -0.368774050119704 0
force Ni   0.004866853116715  -0.001943151433499  -0.375243771964643 0
force Ni   0.000648199703933  -0.002867877084948  -0.402950401409914 0
force Ni   0.003023824115421   0.001528454338116   0.317018923942699 0
force Ni   0.002969705721257  -0.001583313655018   0.311135688811533 0
force Ni  -0.000550940236826   0.001458241240065   0.317929789547549 0
force Ni  -0.000482152609009  -0.001381561961436   0.315095339100782 0
force O  -0.002244896349133   0.000101090829679  -0.037813227233556 1
force O  -0.001693143814036  -0.001726537618387  -0.008308816938367 1
force O  -0.002181842457942  -0.001301750536513  -0.013814024763235 1
force O  -0.004391437080801  -0.002757613848862  -0.008562835337178 1
force O  -0.001056911577689  -0.003020597062165  -0.010449898895065 1
force O   0.002971354266554  -0.001113350096216  -0.000370910556631 1
force O  -0.001961921758208   0.001170165274887  -0.000339764237872 1
force O  -0.001343290700158   0.000787841600878   0.011601599791235 1
force O  -0.015442797487620  -0.010748478908144   0.070866244347313 0
force O  -0.015856092908914   0.011119879606707   0.041153628636379 0
force O   0.006577512266516  -0.011109642488318   0.031149083554014 0
force O   0.005994694792258   0.010359869656956   0.041436372516098 0
force O   0.009614891689640   0.000172869664178   0.056754656655681 0
force O   0.007077767933069  -0.000133068828479   0.050157306442527 0
force O   0.006020070793335   0.000070551520981   0.051525700871933 0
force O   0.006636036253160   0.000541279867951   0.048540422252698 0
force O  -0.001341163342467  -0.001449926720070   0.056582115937694 1
force H  -0.005395972541898  -0.005674338922565   0.038913096422153 1

# Energy components:
   Eewald =     7383.6741575947826277
       EH =     9863.3522012966550392
     Eloc =   -20062.0864804306547740
      Enl =     -852.2880862008236136
   Epulay =        0.0007330941558102
      Exc =     -302.1992520794222514
       KE =     1230.7926554657638007
        U =        2.2174918019302781
-------------------------------------
     Etot =    -2736.5365794576123335
       TS =        0.0009074445316560
-------------------------------------
        F =    -2736.5374869021438826

IonicMinimize: Iter:   9  F: -2736.537486902143883  |grad|_K:  5.572e-04  alpha:  1.000e+00  linmin: -1.210e-01  t[s]:  22446.53

#--- Lowdin population analysis ---
# oxidation-state Ni +3.564 +3.715 +3.713 +3.649 +3.345 +3.337 +3.337 +3.340 +3.368 +3.359 +3.358 +3.363 +3.725 +3.723 +3.722 +3.725
# magnetic-moments Ni +0.693 -1.001 +0.995 -0.874 +0.892 +0.887 -0.884 -0.890 -0.918 +0.902 -0.903 +0.904 -1.009 -1.008 +1.007 +1.009
# oxidation-state O -0.596 -0.576 -0.579 -0.577 -0.563 -0.573 -0.573 -0.568 -0.580 -0.579 -0.578 -0.579 -0.631 -0.638 -0.638 -0.638 -0.564
# magnetic-moments O +0.148 +0.180 -0.119 -0.138 -0.024 -0.054 +0.057 -0.047 -0.054 -0.057 +0.056 +0.053 -0.164 +0.134 -0.133 +0.130 +0.256
# oxidation-state H +0.382
# magnetic-moments H -0.005


-------- Electronic minimization -----------
	FillingsUpdate:  mu: +0.104541411  nElectrons: 391.000000  magneticMoment: [ Abs: 23.19123  Tot: +0.00000 ]
ElecMinimize: Iter:   0  F: -2736.409314225659728  |grad|_K:  6.916e-05  alpha:  1.000e+00
	FillingsUpdate:  mu: +0.095877777  nElectrons: 391.000000  magneticMoment: [ Abs: 23.27620  Tot: -0.00000 ]
	SubspaceRotationAdjust: set factor to 0.472
ElecMinimize: Iter:   1  F: -2736.528474819091116  |grad|_K:  1.434e-05  alpha:  1.534e-01  linmin: -4.539e-03  t[s]:  22541.05
	FillingsUpdate:  mu: +0.101345391  nElectrons: 391.000000  magneticMoment: [ Abs: 23.19313  Tot: -0.00000 ]
	SubspaceRotationAdjust: set factor to 0.274
ElecMinimize: Iter:   2  F: -2736.534460018631307  |grad|_K:  6.943e-06  alpha:  1.808e-01  linmin:  1.903e-03  t[s]:  22614.06
	FillingsUpdate:  mu: +0.095915571  nElectrons: 391.000000  magneticMoment: [ Abs: 23.20133  Tot: -0.00000 ]
	SubspaceRotationAdjust: set factor to 0.346
ElecMinimize: Iter:   3  F: -2736.536182485283007  |grad|_K:  3.399e-06  alpha:  2.404e-01  linmin:  2.215e-05  t[s]:  22687.02
	FillingsUpdate:  mu: +0.092806689  nElectrons: 391.000000  magneticMoment: [ Abs: 23.20580  Tot: +0.00000 ]
	SubspaceRotationAdjust: set factor to 0.422
ElecMinimize: Iter:   4  F: -2736.536738070403317  |grad|_K:  2.390e-06  alpha:  3.031e-01  linmin:  3.386e-06  t[s]:  22757.67
	FillingsUpdate:  mu: +0.093970846  nElectrons: 391.000000  magneticMoment: [ Abs: 23.19731  Tot: +0.00000 ]
	SubspaceRotationAdjust: set factor to 0.517
ElecMinimize: Iter:   5  F: -2736.537056182991819  |grad|_K:  1.998e-06  alpha:  3.506e-01  linmin:  3.920e-07  t[s]:  22832.21
	FillingsUpdate:  mu: +0.094796820  nElectrons: 391.000000  magneticMoment: [ Abs: 23.19331  Tot: +0.00000 ]
	SubspaceRotationAdjust: set factor to 0.604
ElecMinimize: Iter:   6  F: -2736.537311078970561  |grad|_K:  1.689e-06  alpha:  4.021e-01  linmin:  1.474e-05  t[s]:  22907.22
	FillingsUpdate:  mu: +0.093683935  nElectrons: 391.000000  magneticMoment: [ Abs: 23.19412  Tot: +0.00000 ]
	SubspaceRotationAdjust: set factor to 0.691
ElecMinimize: Iter:   7  F: -2736.537445807039148  |grad|_K:  1.168e-06  alpha:  2.979e-01  linmin:  1.911e-06  t[s]:  22981.15
	FillingsUpdate:  mu: +0.094065179  nElectrons: 391.000000  magneticMoment: [ Abs: 23.19130  Tot: +0.00000 ]
	SubspaceRotationAdjust: set factor to 0.655
ElecMinimize: Iter:   8  F: -2736.537503061108055  |grad|_K:  7.492e-07  alpha:  2.643e-01  linmin: -4.683e-06  t[s]:  23055.13
	FillingsUpdate:  mu: +0.093792021  nElectrons: 391.000000  magneticMoment: [ Abs: 23.19303  Tot: -0.00000 ]
	SubspaceRotationAdjust: set factor to 0.519
ElecMinimize: Iter:   9  F: -2736.537522210041971  |grad|_K:  4.798e-07  alpha:  2.146e-01  linmin:  1.161e-06  t[s]:  23128.17
	FillingsUpdate:  mu: +0.094096900  nElectrons: 391.000000  magneticMoment: [ Abs: 23.19147  Tot: -0.00000 ]
	SubspaceRotationAdjust: set factor to 0.461
ElecMinimize: Iter:  10  F: -2736.537530738583428  |grad|_K:  2.874e-07  alpha:  2.333e-01  linmin:  1.493e-06  t[s]:  23200.29
	FillingsUpdate:  mu: +0.093938315  nElectrons: 391.000000  magneticMoment: [ Abs: 23.19193  Tot: +0.00000 ]
	SubspaceRotationAdjust: set factor to 0.497
ElecMinimize: Iter:  11  F: -2736.537534405898441  |grad|_K:  1.857e-07  alpha:  2.794e-01  linmin: -2.780e-06  t[s]:  23271.21
	FillingsUpdate:  mu: +0.093917745  nElectrons: 391.000000  magneticMoment: [ Abs: 23.19233  Tot: +0.00000 ]
	SubspaceRotationAdjust: set factor to 0.507
ElecMinimize: Iter:  12  F: -2736.537535940647558  |grad|_K:  1.285e-07  alpha:  2.802e-01  linmin:  2.752e-07  t[s]:  23345.18
	FillingsUpdate:  mu: +0.094022314  nElectrons: 391.000000  magneticMoment: [ Abs: 23.19195  Tot: +0.00000 ]
	SubspaceRotationAdjust: set factor to 0.532
ElecMinimize: Iter:  13  F: -2736.537536653234383  |grad|_K:  9.059e-08  alpha:  2.716e-01  linmin: -3.420e-06  t[s]:  23419.22
	FillingsUpdate:  mu: +0.093949503  nElectrons: 391.000000  magneticMoment: [ Abs: 23.19209  Tot: -0.00000 ]
	SubspaceRotationAdjust: set factor to 0.624
ElecMinimize: Iter:  14  F: -2736.537537060731665  |grad|_K:  6.867e-08  alpha:  3.123e-01  linmin: -1.183e-05  t[s]:  23492.33
	FillingsUpdate:  mu: +0.093958851  nElectrons: 391.000000  magneticMoment: [ Abs: 23.19213  Tot: -0.00000 ]
	SubspaceRotationAdjust: set factor to 0.747
ElecMinimize: Iter:  15  F: -2736.537537291596891  |grad|_K:  5.184e-08  alpha:  3.078e-01  linmin:  5.380e-06  t[s]:  23561.50
	FillingsUpdate:  mu: +0.093998764  nElectrons: 391.000000  magneticMoment: [ Abs: 23.19195  Tot: +0.00000 ]
	SubspaceRotationAdjust: set factor to 0.772
ElecMinimize: Iter:  16  F: -2736.537537413668360  |grad|_K:  4.222e-08  alpha:  2.861e-01  linmin: -8.565e-07  t[s]:  23634.81
	FillingsUpdate:  mu: +0.093945688  nElectrons: 391.000000  magneticMoment: [ Abs: 23.19210  Tot: -0.00000 ]
	SubspaceRotationAdjust: set factor to 0.692
ElecMinimize: Iter:  17  F: -2736.537537479593084  |grad|_K:  3.365e-08  alpha:  2.323e-01  linmin: -2.682e-06  t[s]:  23706.78
ElecMinimize: Converged (|Delta F|<1.000000e-06 for 5 iters).
Setting wave functions to eigenvectors of Hamiltonian

# Ionic positions in lattice coordinates:
ion Ni   0.000254163264509  -0.000742854935519   0.150688122249682 1
ion Ni   0.501123711293412  -0.000204541589307   0.145217944007396 1
ion Ni  -0.001795872759948   0.501102728517707   0.145208088258052 1
ion Ni   0.499245126315790   0.500307337949878   0.145491953632987 1
ion Ni   0.250171866400775   0.249476051758888   0.049027673751061 1
ion Ni   0.250576789852806   0.750277162201715   0.048573584349071 1
ion Ni  -0.249453023631675   0.250410764497791   0.048539663802260 1
ion Ni  -0.249379390391141   0.749936748299254   0.048560188512439 1
ion Ni   0.000000000000000   0.000000000000000  -0.050000000000000 0
ion Ni   0.500000000000000   0.000000000000000  -0.050000000000000 0
ion Ni   0.000000000000000   0.500000000000000  -0.050000000000000 0
ion Ni   0.500000000000000   0.500000000000000  -0.050000000000000 0
ion Ni   0.250000000000000   0.250000000000000  -0.150000000000000 0
ion Ni   0.250000000000000   0.750000000000000  -0.150000000000000 0
ion Ni  -0.250000000000000   0.250000000000000  -0.150000000000000 0
ion Ni  -0.250000000000000   0.750000000000000  -0.150000000000000 0
ion O   0.252224950497720   0.253831845930053   0.146064569360854 1
ion O   0.254463385947734   0.745558257898516   0.144673661644151 1
ion O  -0.256608771271505   0.255707209189813   0.144743617049460 1
ion O  -0.255970244775011   0.745033732891253   0.144744957233368 1
ion O  -0.000447764923498   0.001569599841322   0.054032372593060 1
ion O   0.500359738527158  -0.000164447697824   0.047877352626061 1
ion O   0.002619564380176   0.500237592712009   0.047833170798592 1
ion O   0.500133158173263   0.498159750075020   0.047453843269244 1
ion O   0.250000000000000   0.250000000000000  -0.050000000000000 0
ion O   0.250000000000000   0.750000000000000  -0.050000000000000 0
ion O  -0.250000000000000   0.250000000000000  -0.050000000000000 0
ion O  -0.250000000000000   0.750000000000000  -0.050000000000000 0
ion O   0.000000000000000   0.000000000000000  -0.150000000000000 0
ion O   0.500000000000000   0.000000000000000  -0.150000000000000 0
ion O   0.000000000000000   0.500000000000000  -0.150000000000000 0
ion O   0.500000000000000   0.500000000000000  -0.150000000000000 0
ion O  -0.008191589230143  -0.006651254407686   0.238502037945864 1
ion H   0.103734782316753   0.103997032316448   0.252600296767917 1

# Forces in Lattice coordinates:
force Ni   0.005136321196373   0.003794519549868   0.025620177190739 1
force Ni   0.000486668835633  -0.002154220025145  -0.004825972048635 1
force Ni  -0.001866677996032   0.005094043365811  -0.005429174934412 1
force Ni  -0.000865026771024  -0.000167337103575  -0.004902395959791 1
force Ni   0.000436974786239   0.000115774565732  -0.021181134308575 1
force Ni   0.002656311181189  -0.001797662279595  -0.032514959708337 1
force Ni  -0.001095229061805   0.000635430265223  -0.037178691228271 1
force Ni  -0.000425857179319  -0.001488838138403  -0.024764142244943 1
force Ni  -0.004589457226057  -0.001761102645876  -0.222261068927062 0
force Ni   0.001200022721836   0.001352441321437  -0.373020477365196 0
force Ni   0.004095543378220  -0.000602040813319  -0.378715306409303 0
force Ni   0.001687697107518  -0.001887205945192  -0.401282867779659 0
force Ni   0.002921018653836   0.001434877099831   0.315181357579750 0
force Ni   0.002865111478908  -0.001482678294131   0.312105343135666 0
force Ni  -0.000461189826128   0.001362631351241   0.318320746519456 0
force Ni  -0.000392534343533  -0.001275495670759   0.316957075973103 0
force O  -0.000157947556607   0.002071018432702  -0.001121436456380 1
force O   0.001183666781017  -0.004140980522297   0.023777502461183 1
force O  -0.005344939972744   0.001824949550950   0.016844583202724 1
force O  -0.004459619357648  -0.001845425609981   0.020180896697189 1
force O  -0.001643181675851  -0.001456003227156  -0.034735892541092 1
force O   0.002809888893375  -0.000539935940565  -0.009754078425743 1
force O  -0.002099443972923   0.000339501536997  -0.009133215541727 1
force O  -0.000613606138410   0.000273007341378  -0.016316698317469 1
force O  -0.015050936142177  -0.010560566885026   0.063414737373955 0
force O  -0.015559249759204   0.010869944135143   0.043103767387183 0
force O   0.006359320513633  -0.010838450378161   0.033224101698685 0
force O   0.005741145685114   0.010104083385805   0.043520558802411 0
force O   0.009677861385383   0.000208323504740   0.057706268507491 0
force O   0.007022543685398  -0.000053602118841   0.051026542982235 0
force O   0.006035620376283  -0.000008427340033   0.052380016000305 0
force O   0.006620585925974   0.000469675357055   0.049809775374985 0
force O  -0.011965162332322  -0.010451024570015  -0.027820754348989 1
force H   0.003008654307770   0.002513726378887   0.029751976879263 1

# Energy components:
   Eewald =     7391.7143118821986718
       EH =     9871.4156502625537541
     Eloc =   -20078.1998442457661440
      Enl =     -852.2945961834618629
   Epulay =        0.0007330941558102
      Exc =     -302.2049668702987901
       KE =     1230.8152056216545134
        U =        2.2168931303012007
-------------------------------------
     Etot =    -2736.5366133086613445
       TS =        0.0009241709316394
-------------------------------------
        F =    -2736.5375374795930838

IonicMinimize: Iter:  10  F: -2736.537537479593084  |grad|_K:  4.156e-04  alpha:  1.000e+00  linmin:  2.859e-03  t[s]:  23715.53
IonicMinimize: Converged (|Delta F|<1.000000e-04 for 3 iters).

#--- Lowdin population analysis ---
# oxidation-state Ni +3.563 +3.714 +3.712 +3.648 +3.342 +3.335 +3.335 +3.338 +3.368 +3.358 +3.358 +3.363 +3.725 +3.723 +3.722 +3.725
# magnetic-moments Ni +0.694 -1.000 +0.994 -0.876 +0.891 +0.886 -0.883 -0.888 -0.917 +0.902 -0.903 +0.905 -1.009 -1.008 +1.007 +1.009
# oxidation-state O -0.595 -0.575 -0.579 -0.576 -0.562 -0.572 -0.572 -0.568 -0.580 -0.580 -0.578 -0.579 -0.631 -0.638 -0.638 -0.638 -0.565
# magnetic-moments O +0.149 +0.180 -0.120 -0.140 -0.023 -0.055 +0.058 -0.047 -0.054 -0.058 +0.056 +0.054 -0.164 +0.134 -0.133 +0.130 +0.257
# oxidation-state H +0.384
# magnetic-moments H -0.005


Dumping 'OH.ionpos' ... done
Dumping 'OH.lattice' ... done
Dumping 'OH.Ecomponents' ... done
End date and time: Sat May 17 10:40:49 2025  (Duration: 0-6:35:18.39)
Done!
