
*************** JDFTx 1.7.0  ***************

Start date and time: Sat May 17 11:36:47 2025
Executable /data2/jt577/jdftx_eat_withLibXC/build/jdftx with command-line: -i /data2/jt577/May_2025/Relax_Mag_litU/rel11+1_6/OH/runs/calc_/run.in
Running on hosts (process indices):  node3406 (0-8)
Divided in process groups (process indices):  0 (0)  1 (1)  2 (2)  3 (3)  4 (4)  5 (5)  6 (6)  7 (7)  8 (8)
Resource initialization completed at t[s]:      0.00
Run totals: 9 processes, 90 threads, 0 GPUs


Input parsed successfully to the following command list (including defaults):

add-mix 
add-U 	Ni d 0.235196 \
	V d 0.113923 \
	Co d 0.121273 \
	Cr d 0.128623
basis kpoint-dependent
coords-type Lattice
core-overlap-check vector
coulomb-interaction Periodic
davidson-band-ratio 1.1
dump End IonicPositions Lattice Ecomponents
dump-name run.$VAR
elec-cutoff 30
elec-eigen-algo Davidson
elec-ex-corr gga-x-rpbe gga-c-pbe
elec-smearing Fermi 0.001
electronic-minimize  \
	dirUpdateScheme      FletcherReeves \
	linminMethod         DirUpdateRecommended \
	nIterations          1000 \
	history              15 \
	knormThreshold       0 \
	energyDiffThreshold  1e-06 \
	nEnergyDiff          5 \
	alphaTstart          1 \
	alphaTmin            1e-10 \
	updateTestStepSize   yes \
	alphaTreduceFactor   0.1 \
	alphaTincreaseFactor 3 \
	nAlphaAdjustMax      3 \
	wolfeEnergy          0.0001 \
	wolfeGradient        0.9 \
	fdTest               no
exchange-regularization WignerSeitzTruncated
fluid None
fluid-ex-corr (null) lda-PZ
fluid-gummel-loop 10 1.000000e-05
fluid-minimize  \
	dirUpdateScheme      PolakRibiere \
	linminMethod         DirUpdateRecommended \
	nIterations          100 \
	history              15 \
	knormThreshold       0 \
	energyDiffThreshold  0 \
	nEnergyDiff          2 \
	alphaTstart          1 \
	alphaTmin            1e-10 \
	updateTestStepSize   yes \
	alphaTreduceFactor   0.1 \
	alphaTincreaseFactor 3 \
	nAlphaAdjustMax      3 \
	wolfeEnergy          0.0001 \
	wolfeGradient        0.9 \
	fdTest               no
fluid-solvent H2O 55.338 ScalarEOS \
	epsBulk 78.4 \
	pMol 0.92466 \
	epsInf 1.77 \
	Pvap 1.06736e-10 \
	sigmaBulk 4.62e-05 \
	Rvdw 2.61727 \
	Res 1.42 \
	tauNuc 343133 \
	poleEl 15 7 1
forces-output-coords Positions
initial-magnetic-moments  \
	Ni 1 1 1 1 -1 -1 1 1 \
	V -1 1 -1 -1 -1 1 \
	Co -1 \
	Cr -1
initial-state run.$VAR
ion Ni  0.000000000000000   0.000000000000000   0.150000000000000 1
ion Ni  0.000000000000000   0.500000000000000   0.150000000000000 1
ion Ni  0.250000000000000   0.750000000000000   0.050000000000000 1
ion Ni  0.500000000000000   0.000000000000000  -0.050000000000000 0
ion Ni  0.250000000000000   0.250000000000000  -0.150000000000000 0
ion Ni  0.250000000000000   0.750000000000000  -0.150000000000000 0
ion Ni -0.250000000000000   0.250000000000000  -0.150000000000000 0
ion Ni -0.250000000000000   0.750000000000000  -0.150000000000000 0
ion V  0.500000000000000   0.000000000000000   0.150000000000000 1
ion V  0.250000000000000   0.250000000000000   0.050000000000000 1
ion V -0.250000000000000   0.750000000000000   0.050000000000000 1
ion V  0.000000000000000   0.000000000000000  -0.050000000000000 0
ion V  0.000000000000000   0.500000000000000  -0.050000000000000 0
ion V  0.500000000000000   0.500000000000000  -0.050000000000000 0
ion Co  0.500000000000000   0.500000000000000   0.150000000000000 1
ion Cr -0.250000000000000   0.250000000000000   0.050000000000000 1
ion O  0.250000000000000   0.250000000000000   0.150000000000000 1
ion O  0.250000000000000   0.750000000000000   0.150000000000000 1
ion O -0.250000000000000   0.250000000000000   0.150000000000000 1
ion O -0.250000000000000   0.750000000000000   0.150000000000000 1
ion O  0.000000000000000   0.000000000000000   0.050000000000000 1
ion O  0.500000000000000   0.000000000000000   0.050000000000000 1
ion O  0.000000000000000   0.500000000000000   0.050000000000000 1
ion O  0.500000000000000   0.500000000000000   0.050000000000000 1
ion O  0.250000000000000   0.250000000000000  -0.050000000000000 0
ion O  0.250000000000000   0.750000000000000  -0.050000000000000 0
ion O -0.250000000000000   0.250000000000000  -0.050000000000000 0
ion O -0.250000000000000   0.750000000000000  -0.050000000000000 0
ion O  0.000000000000000   0.000000000000000  -0.150000000000000 0
ion O  0.500000000000000   0.000000000000000  -0.150000000000000 0
ion O  0.000000000000000   0.500000000000000  -0.150000000000000 0
ion O  0.500000000000000   0.500000000000000  -0.150000000000000 0
ion O -0.008040138212305  -0.008269777577920   0.235000196603227 1
ion H  0.095742872057713   0.094897636790041   0.252810710255288 1
ion-species SG15/$ID_ONCV_PBE.upf
ion-width 0
ionic-minimize  \
	dirUpdateScheme      L-BFGS \
	linminMethod         DirUpdateRecommended \
	nIterations          1000 \
	history              15 \
	knormThreshold       0.0001 \
	energyDiffThreshold  0.0001 \
	nEnergyDiff          3 \
	alphaTstart          1 \
	alphaTmin            1e-10 \
	updateTestStepSize   yes \
	alphaTreduceFactor   0.1 \
	alphaTincreaseFactor 3 \
	nAlphaAdjustMax      3 \
	wolfeEnergy          0.0001 \
	wolfeGradient        0.9 \
	fdTest               no
kpoint   0.500000000000   0.500000000000   0.500000000000  1.00000000000000
kpoint-folding 3 3 1 
latt-move-scale 1 1 1
latt-scale 1 1 1 
lattice  \
	   8.140000000000001    8.140000000000001    0.000000000000000  \
	   8.140000000000001   -8.140000000000001    0.000000000000000  \
	   0.000000000000000    0.000000000000000   40.700000000000003 
lattice-minimize  \
	dirUpdateScheme      L-BFGS \
	linminMethod         DirUpdateRecommended \
	nIterations          0 \
	history              15 \
	knormThreshold       0 \
	energyDiffThreshold  1e-06 \
	nEnergyDiff          2 \
	alphaTstart          1 \
	alphaTmin            1e-10 \
	updateTestStepSize   yes \
	alphaTreduceFactor   0.1 \
	alphaTincreaseFactor 3 \
	nAlphaAdjustMax      3 \
	wolfeEnergy          0.0001 \
	wolfeGradient        0.9 \
	fdTest               no
lcao-params -1 1e-06 0.001
pcm-variant GLSSA13
spintype z-spin
subspace-rotation-factor 1 yes
symmetries none
symmetry-threshold 0.0001


Applied RMS atom displacement 0 bohrs to make symmetries exact.

---------- Initializing the Grid ----------
R = 
[         8.14         8.14            0  ]
[         8.14        -8.14            0  ]
[            0            0         40.7  ]
unit cell volume = 5393.53
G =
[   0.385945   0.385945         -0  ]
[   0.385945  -0.385945         -0  ]
[         -0         -0   0.154378  ]
Minimum fftbox size, Smin = [  60  60  204  ]
Chosen fftbox size, S = [  60  60  210  ]

---------- Exchange Correlation functional ----------
Initialized LibXC exchange functional 'Hammer, Hansen, and Norskov'
Initialized LibXC correlation functional 'Perdew, Burke & Ernzerhof'

---------- Setting up pseudopotentials ----------
Width of ionic core gaussian charges (only for fluid interactions / plotting) set to 0

Reading pseudopotential file '/data2/jt577/jdftx_eat_withLibXC/build/pseudopotentials/SG15/Ni_ONCV_PBE.upf':
  'Ni' pseudopotential, 'PBE' functional
  Generated using ONCVPSP code by D. R. Hamann
  Author: Martin Schlipf and Francois Gygi  Date: 150915.
  18 valence electrons, 4 orbitals, 6 projectors, 1292 radial grid points, with lMax = 2
  Transforming local potential to a uniform radial grid of dG=0.02 with 1419 points.
  Transforming nonlocal projectors to a uniform radial grid of dG=0.02 with 528 points.
    3S    l: 0   occupation:  2.0   eigenvalue: -4.081355
    3P    l: 1   occupation:  6.0   eigenvalue: -2.623460
    4S    l: 0   occupation:  2.0   eigenvalue: -0.207378
    3D    l: 2   occupation:  8.0   eigenvalue: -0.326118
  Transforming atomic orbitals to a uniform radial grid of dG=0.02 with 528 points.
  WARNING: large normalization error in atomic orbital 1s (integral: 0.000006).
  Core radius for overlap checks: 1.99 bohrs.
  Reading pulay file /data2/jt577/jdftx_eat_withLibXC/build/pseudopotentials/SG15/Ni_ONCV_PBE.pulay ... using dE_dnG = -7.250568e-04 computed for Ecut = 30.

Reading pseudopotential file '/data2/jt577/jdftx_eat_withLibXC/build/pseudopotentials/SG15/V_ONCV_PBE.upf':
  'V' pseudopotential, 'PBE' functional
  Generated using ONCVPSP code by D. R. Hamann
  Author: Martin Schlipf and Francois Gygi  Date: 150915.
  13 valence electrons, 4 orbitals, 6 projectors, 1536 radial grid points, with lMax = 2
  Transforming local potential to a uniform radial grid of dG=0.02 with 1419 points.
  Transforming nonlocal projectors to a uniform radial grid of dG=0.02 with 528 points.
    3S    l: 0   occupation:  2.0   eigenvalue: -2.581105
    3P    l: 1   occupation:  6.0   eigenvalue: -1.618486
    4S    l: 0   occupation:  2.0   eigenvalue: -0.172804
    3D    l: 2   occupation:  3.0   eigenvalue: -0.189795
  Transforming atomic orbitals to a uniform radial grid of dG=0.02 with 528 points.
  Core radius for overlap checks: 1.80 bohrs.
  Reading pulay file /data2/jt577/jdftx_eat_withLibXC/build/pseudopotentials/SG15/V_ONCV_PBE.pulay ... using dE_dnG = -1.698632e-04 computed for Ecut = 30.

Reading pseudopotential file '/data2/jt577/jdftx_eat_withLibXC/build/pseudopotentials/SG15/Co_ONCV_PBE.upf':
  'Co' pseudopotential, 'PBE' functional
  Generated using ONCVPSP code by D. R. Hamann
  Author: Martin Schlipf and Francois Gygi  Date: 150915.
  17 valence electrons, 4 orbitals, 6 projectors, 1388 radial grid points, with lMax = 2
  Transforming local potential to a uniform radial grid of dG=0.02 with 1419 points.
  Transforming nonlocal projectors to a uniform radial grid of dG=0.02 with 528 points.
    3S    l: 0   occupation:  2.0   eigenvalue: -3.763303
    3P    l: 1   occupation:  6.0   eigenvalue: -2.412101
    4S    l: 0   occupation:  2.0   eigenvalue: -0.201022
    3D    l: 2   occupation:  7.0   eigenvalue: -0.301498
  Transforming atomic orbitals to a uniform radial grid of dG=0.02 with 528 points.
  Core radius for overlap checks: 1.94 bohrs.
  Reading pulay file /data2/jt577/jdftx_eat_withLibXC/build/pseudopotentials/SG15/Co_ONCV_PBE.pulay ... using dE_dnG = -9.787391e-05 computed for Ecut = 30.

Reading pseudopotential file '/data2/jt577/jdftx_eat_withLibXC/build/pseudopotentials/SG15/Cr_ONCV_PBE.upf':
  'Cr' pseudopotential, 'PBE' functional
  Generated using ONCVPSP code by D. R. Hamann
  Author: Martin Schlipf and Francois Gygi  Date: 150915.
  14 valence electrons, 4 orbitals, 6 projectors, 1160 radial grid points, with lMax = 2
  Transforming local potential to a uniform radial grid of dG=0.02 with 1419 points.
  Transforming nonlocal projectors to a uniform radial grid of dG=0.02 with 528 points.
    3S    l: 0   occupation:  2.0   eigenvalue: -2.865131
    3P    l: 1   occupation:  6.0   eigenvalue: -1.810600
    4S    l: 0   occupation:  2.0   eigenvalue: -0.180525
    3D    l: 2   occupation:  4.0   eigenvalue: -0.220312
  Transforming atomic orbitals to a uniform radial grid of dG=0.02 with 528 points.
  WARNING: large normalization error in atomic orbital 1s (integral: 0.000001).
  Core radius for overlap checks: 2.10 bohrs.
  Reading pulay file /data2/jt577/jdftx_eat_withLibXC/build/pseudopotentials/SG15/Cr_ONCV_PBE.pulay ... using dE_dnG = -9.817895e-06 computed for Ecut = 30.

Reading pseudopotential file '/data2/jt577/jdftx_eat_withLibXC/build/pseudopotentials/SG15/O_ONCV_PBE.upf':
  'O' pseudopotential, 'PBE' functional
  Generated using ONCVPSP code by D. R. Hamann
  Author: Martin Schlipf and Francois Gygi  Date: 150915.
  6 valence electrons, 2 orbitals, 4 projectors, 936 radial grid points, with lMax = 1
  Transforming local potential to a uniform radial grid of dG=0.02 with 1419 points.
  Transforming nonlocal projectors to a uniform radial grid of dG=0.02 with 528 points.
    2S    l: 0   occupation:  2.0   eigenvalue: -0.880572
    2P    l: 1   occupation:  4.0   eigenvalue: -0.331869
  Transforming atomic orbitals to a uniform radial grid of dG=0.02 with 528 points.
  Core radius for overlap checks: 1.29 bohrs.
  Reading pulay file /data2/jt577/jdftx_eat_withLibXC/build/pseudopotentials/SG15/O_ONCV_PBE.pulay ... using dE_dnG = -8.209514e-03 computed for Ecut = 30.

Reading pseudopotential file '/data2/jt577/jdftx_eat_withLibXC/build/pseudopotentials/SG15/H_ONCV_PBE.upf':
  'H' pseudopotential, 'PBE' functional
  Generated using ONCVPSP code by D. R. Hamann
  Author: Martin Schlipf and Francois Gygi  Date: 150915.
  1 valence electrons, 1 orbitals, 2 projectors, 1166 radial grid points, with lMax = 0
  Transforming local potential to a uniform radial grid of dG=0.02 with 1419 points.
  Transforming nonlocal projectors to a uniform radial grid of dG=0.02 with 528 points.
    1S    l: 0   occupation:  1.0   eigenvalue: -0.238602
  Transforming atomic orbitals to a uniform radial grid of dG=0.02 with 528 points.
  Core radius for overlap checks: 1.01 bohrs.
  Reading pulay file /data2/jt577/jdftx_eat_withLibXC/build/pseudopotentials/SG15/H_ONCV_PBE.pulay ... using dE_dnG = -8.245991e-05 computed for Ecut = 30.

Initialized 6 species with 34 total atoms.

Folded 1 k-points by 3x3x1 to 9 k-points.

---------- Setting up k-points, bands, fillings ----------
No reducable k-points. 
Computing the number of bands and number of electrons
Calculating initial fillings.
nElectrons: 356.000000   nBands: 229   nStates: 18

----- Setting up reduced wavefunction bases (one per k-point) -----
average nbasis = 42312.000 , ideal nbasis = 42330.081

---------- Setting up ewald sum ----------
Optimum gaussian width for ewald sums = 3.887061 bohr.
Real space sum over 605 unit cells with max indices [  5  5  2  ]
Reciprocal space sum over 5915 terms with max indices [  6  6  17  ]

---------- Allocating electronic variables ----------
Initializing wave functions:  linear combination of atomic orbitals
Ni (M=1) pseudo-atom majority spin occupations:   s ( 1 0.5 )  p ( 3 )  d ( 5 )
Ni (M=1) pseudo-atom minority spin occupations:   s ( 1 0 )  p ( 3 )  d ( 4.5 )
V (M=1) pseudo-atom majority spin occupations:   s ( 1 0 )  p ( 3 )  d ( 3 )
V (M=1) pseudo-atom minority spin occupations:   s ( 1 0 )  p ( 3 )  d ( 2 )
Co (M=1) pseudo-atom majority spin occupations:   s ( 1 0 )  p ( 3 )  d ( 5 )
Co (M=1) pseudo-atom minority spin occupations:   s ( 1 0 )  p ( 3 )  d ( 4 )
Cr (M=1) pseudo-atom majority spin occupations:   s ( 1 0 )  p ( 3 )  d ( 3.5 )
Cr (M=1) pseudo-atom minority spin occupations:   s ( 1 0 )  p ( 3 )  d ( 2.5 )
O pseudo-atom occupations:   s ( 2 )  p ( 4 )
H pseudo-atom occupations:   s ( 1 )
	FillingsUpdate:  mu: +0.228656309  nElectrons: 356.000000  magneticMoment: [ Abs: 0.28393  Tot: -0.00000 ]
LCAOMinimize: Iter:   0  F: -1987.8604868119377898  |grad|_K:  7.248e-03  alpha:  1.000e+00
	FillingsUpdate:  mu: +0.159326056  nElectrons: 356.000000  magneticMoment: [ Abs: 0.22566  Tot: +0.00000 ]
LCAOMinimize: Iter:   1  F: -1989.4131682324568828  |grad|_K:  6.763e-03  alpha:  3.403e-02  linmin: -6.530e-02  cgtest:  9.888e-01  t[s]:     43.12
LCAOMinimize: Encountered beta<0, resetting CG.
LCAOMinimize: 	Wrong curvature in test step, increasing alphaT to 1.020947e-01.
	FillingsUpdate:  mu: +0.099606391  nElectrons: 356.000000  magneticMoment: [ Abs: 0.23900  Tot: -0.00000 ]
LCAOMinimize: Iter:   2  F: -1991.0999430007143474  |grad|_K:  7.913e-03  alpha: -1.233e-01  linmin: -6.054e-02  cgtest:  8.025e-01  t[s]:     56.79
	FillingsUpdate:  mu: +0.811402090  nElectrons: 356.000000  magneticMoment: [ Abs: 0.38502  Tot: -0.00000 ]
LCAOMinimize: Iter:   3  F: -1999.6871593504408793  |grad|_K:  1.252e-02  alpha:  4.412e-02  linmin:  3.231e-02  cgtest: -2.236e-01  t[s]:     71.77
LCAOMinimize: 	Bad step direction: g.d > 0.
LCAOMinimize: 	Undoing step.
LCAOMinimize: 	Step failed: resetting search direction.
	FillingsUpdate:  mu: +0.811402090  nElectrons: 356.000000  magneticMoment: [ Abs: 0.38502  Tot: -0.00000 ]
LCAOMinimize: Iter:   4  F: -1999.6871593504445173  |grad|_K:  1.252e-02  alpha:  0.000e+00
	FillingsUpdate:  mu: -0.154138380  nElectrons: 356.000000  magneticMoment: [ Abs: 4.57113  Tot: +0.00000 ]
LCAOMinimize: Iter:   5  F: -2009.7156101731907256  |grad|_K:  1.872e-02  alpha:  1.742e-02  linmin:  3.281e-02  cgtest: -8.928e-02  t[s]:     97.22
LCAOMinimize: 	Bad step direction: g.d > 0.
LCAOMinimize: 	Undoing step.
LCAOMinimize: 	Step failed: resetting search direction.
	FillingsUpdate:  mu: -0.154138380  nElectrons: 356.000000  magneticMoment: [ Abs: 4.57113  Tot: +0.00000 ]
LCAOMinimize: Iter:   6  F: -2009.7156101731907256  |grad|_K:  1.872e-02  alpha:  0.000e+00
	FillingsUpdate:  mu: -0.106601014  nElectrons: 356.000000  magneticMoment: [ Abs: 3.41085  Tot: +0.00000 ]
LCAOMinimize: Iter:   7  F: -2012.7225850509553311  |grad|_K:  8.555e-03  alpha:  6.798e-03  linmin:  3.932e-02  cgtest:  4.216e-01  t[s]:    122.33
	FillingsUpdate:  mu: -0.131665823  nElectrons: 356.000000  magneticMoment: [ Abs: 4.21079  Tot: +0.00000 ]
LCAOMinimize: Iter:   8  F: -2013.3474464627811358  |grad|_K:  7.263e-03  alpha:  1.463e-02  linmin: -2.641e-02  cgtest:  3.747e-01  t[s]:    136.95
LCAOMinimize: 	Predicted alpha/alphaT>3.000000, increasing alphaT to 4.388935e-02.
LCAOMinimize: 	Predicted alpha/alphaT>3.000000, increasing alphaT to 1.316681e-01.
	FillingsUpdate:  mu: +0.116499990  nElectrons: 356.000000  magneticMoment: [ Abs: 2.53646  Tot: -0.00000 ]
LCAOMinimize: Iter:   9  F: -2019.5547925723237768  |grad|_K:  2.024e-02  alpha:  1.094e-01  linmin: -1.690e-03  cgtest:  3.709e-01  t[s]:    160.00
LCAOMinimize: 	Step increased F by 4.882099e+01, reducing alpha to 8.147496e-04.
	FillingsUpdate:  mu: +0.293642586  nElectrons: 356.000000  magneticMoment: [ Abs: 2.86904  Tot: -0.00000 ]
LCAOMinimize: Iter:  10  F: -2019.9746772825196786  |grad|_K:  1.778e-02  alpha:  8.147e-04  linmin: -4.790e-03  cgtest:  1.160e+00  t[s]:    185.12
LCAOMinimize: Encountered beta<0, resetting CG.
LCAOMinimize: 	Wrong curvature in test step, increasing alphaT to 2.444249e-03.
	FillingsUpdate:  mu: +0.295507100  nElectrons: 356.000000  magneticMoment: [ Abs: 2.93833  Tot: +0.00000 ]
LCAOMinimize: Iter:  11  F: -2020.2296306578932672  |grad|_K:  1.827e-02  alpha: -1.029e-02  linmin: -1.179e-01  cgtest:  9.498e-01  t[s]:    198.77
LCAOMinimize: 	Step increased F by 1.562894e+02, reducing alpha to 2.241052e-02.
	FillingsUpdate:  mu: +0.064590551  nElectrons: 356.000000  magneticMoment: [ Abs: 3.65943  Tot: -0.00000 ]
LCAOMinimize: Iter:  12  F: -2024.8426172278457216  |grad|_K:  1.581e-02  alpha:  2.241e-02  linmin:  4.397e-02  cgtest: -2.573e-01  t[s]:    223.49
	FillingsUpdate:  mu: +0.186013018  nElectrons: 356.000000  magneticMoment: [ Abs: 4.93694  Tot: -0.00000 ]
LCAOMinimize: Iter:  13  F: -2025.7226105051834111  |grad|_K:  1.502e-02  alpha:  1.171e-02  linmin:  4.329e-03  cgtest:  1.166e+00  t[s]:    237.94
LCAOMinimize: Encountered beta<0, resetting CG.
LCAOMinimize: 	Step increased F by 4.628449e-02, reducing alpha to 2.926966e-03.
	FillingsUpdate:  mu: +0.108727412  nElectrons: 356.000000  magneticMoment: [ Abs: 4.89671  Tot: -0.00000 ]
LCAOMinimize: Iter:  14  F: -2026.3156102843609006  |grad|_K:  1.314e-02  alpha:  2.927e-03  linmin: -1.243e-01  cgtest:  9.644e-01  t[s]:    262.68
LCAOMinimize: Encountered beta<0, resetting CG.
LCAOMinimize: 	Predicted alpha/alphaT>3.000000, increasing alphaT to 8.780899e-03.
LCAOMinimize: 	Predicted alpha/alphaT>3.000000, increasing alphaT to 2.634270e-02.
	FillingsUpdate:  mu: -0.075274991  nElectrons: 356.000000  magneticMoment: [ Abs: 5.82454  Tot: -0.00000 ]
LCAOMinimize: Iter:  15  F: -2028.0053233621486015  |grad|_K:  5.834e-03  alpha:  1.433e-02  linmin: -8.470e-03  cgtest: -4.473e-02  t[s]:    286.03
	FillingsUpdate:  mu: +0.023554355  nElectrons: 356.000000  magneticMoment: [ Abs: 6.43790  Tot: -0.00000 ]
LCAOMinimize: Iter:  16  F: -2028.3603765196660333  |grad|_K:  8.208e-03  alpha:  2.288e-02  linmin:  3.166e-03  cgtest:  3.787e-01  t[s]:    300.62
	FillingsUpdate:  mu: +0.058794954  nElectrons: 356.000000  magneticMoment: [ Abs: 6.75343  Tot: +0.00000 ]
LCAOMinimize: Iter:  17  F: -2028.8814092979343968  |grad|_K:  4.998e-03  alpha:  1.432e-02  linmin: -4.827e-03  cgtest:  5.354e-01  t[s]:    315.15
	FillingsUpdate:  mu: -0.118905846  nElectrons: 356.000000  magneticMoment: [ Abs: 6.91844  Tot: -0.00000 ]
LCAOMinimize: Iter:  18  F: -2029.1318819352379705  |grad|_K:  4.309e-03  alpha:  3.071e-02  linmin:  2.628e-02  cgtest: -4.058e-01  t[s]:    329.71
	FillingsUpdate:  mu: -0.143241174  nElectrons: 356.000000  magneticMoment: [ Abs: 6.99892  Tot: -0.00000 ]
LCAOMinimize: Iter:  19  F: -2029.2010376746177371  |grad|_K:  4.224e-03  alpha:  1.857e-02  linmin:  2.361e-04  cgtest:  7.630e-01  t[s]:    344.29
	FillingsUpdate:  mu: -0.028643586  nElectrons: 356.000000  magneticMoment: [ Abs: 7.36695  Tot: +0.00000 ]
LCAOMinimize: Iter:  20  F: -2029.4331648001984831  |grad|_K:  2.115e-03  alpha:  2.941e-02  linmin:  1.863e-02  cgtest: -3.151e-01  t[s]:    358.80
	FillingsUpdate:  mu: -0.011176869  nElectrons: 356.000000  magneticMoment: [ Abs: 7.54963  Tot: -0.00000 ]
LCAOMinimize: Iter:  21  F: -2029.4778275894484523  |grad|_K:  2.468e-03  alpha:  2.852e-02  linmin:  2.178e-04  cgtest:  3.473e-01  t[s]:    373.30
	FillingsUpdate:  mu: -0.057829890  nElectrons: 356.000000  magneticMoment: [ Abs: 7.96720  Tot: +0.00000 ]
LCAOMinimize: Iter:  22  F: -2029.5755888172516279  |grad|_K:  7.569e-04  alpha:  3.299e-02  linmin: -1.219e-02  cgtest: -2.567e-01  t[s]:    387.89
	FillingsUpdate:  mu: -0.047114021  nElectrons: 356.000000  magneticMoment: [ Abs: 8.40660  Tot: -0.00000 ]
LCAOMinimize: Iter:  23  F: -2029.5986508461048743  |grad|_K:  1.262e-03  alpha:  7.197e-02  linmin:  8.821e-04  cgtest: -2.070e-01  t[s]:    402.41
	FillingsUpdate:  mu: -0.041875901  nElectrons: 356.000000  magneticMoment: [ Abs: 8.89647  Tot: +0.00000 ]
LCAOMinimize: Iter:  24  F: -2029.6118656321534672  |grad|_K:  9.970e-04  alpha:  1.971e-02  linmin: -2.451e-04  cgtest:  9.566e-01  t[s]:    417.05
LCAOMinimize: Encountered beta<0, resetting CG.
	FillingsUpdate:  mu: -0.042945339  nElectrons: 356.000000  magneticMoment: [ Abs: 8.99380  Tot: +0.00000 ]
LCAOMinimize: Iter:  25  F: -2029.6206127835630468  |grad|_K:  5.869e-04  alpha:  1.857e-02  linmin: -3.015e-03  cgtest:  5.055e-02  t[s]:    431.68
LCAOMinimize: 	Predicted alpha/alphaT>3.000000, increasing alphaT to 5.569749e-02.
	FillingsUpdate:  mu: -0.043379246  nElectrons: 356.000000  magneticMoment: [ Abs: 9.92087  Tot: +0.00000 ]
LCAOMinimize: Iter:  26  F: -2029.6490626871313907  |grad|_K:  7.052e-04  alpha:  1.639e-01  linmin: -7.518e-04  cgtest: -2.334e-01  t[s]:    450.50
	FillingsUpdate:  mu: -0.047267637  nElectrons: 356.000000  magneticMoment: [ Abs: 10.63965  Tot: +0.00000 ]
LCAOMinimize: Iter:  27  F: -2029.6604535147491788  |grad|_K:  8.519e-04  alpha:  7.074e-02  linmin:  1.600e-03  cgtest: -3.276e-01  t[s]:    465.08
	FillingsUpdate:  mu: -0.047303433  nElectrons: 356.000000  magneticMoment: [ Abs: 11.61232  Tot: +0.00000 ]
LCAOMinimize: Iter:  28  F: -2029.6725911032463046  |grad|_K:  6.497e-04  alpha:  4.492e-02  linmin: -1.631e-04  cgtest:  5.460e-01  t[s]:    479.59
	FillingsUpdate:  mu: -0.020834952  nElectrons: 356.000000  magneticMoment: [ Abs: 12.44108  Tot: +0.00000 ]
LCAOMinimize: Iter:  29  F: -2029.6966146083243530  |grad|_K:  8.282e-04  alpha:  1.242e-01  linmin:  1.918e-03  cgtest: -4.425e-02  t[s]:    494.22
	FillingsUpdate:  mu: -0.024334852  nElectrons: 356.000000  magneticMoment: [ Abs: 12.87332  Tot: +0.00000 ]
LCAOMinimize: Iter:  30  F: -2029.7088069132664714  |grad|_K:  5.353e-04  alpha:  4.347e-02  linmin:  7.335e-04  cgtest:  2.717e-01  t[s]:    508.68
LCAOMinimize: None of the convergence criteria satisfied after 30 iterations.


---- Citations for features of the code used in this run ----

   Software package:
      R. Sundararaman, K. Letchworth-Weaver, K.A. Schwarz, D. Gunceler, Y. Ozhabes and T.A. Arias, 'JDFTx: software for joint density-functional theory', SoftwareX 6, 278 (2017)

   Simplified rotationally-invariant DFT+U:
      S. L. Dudarev et al., Phys. Rev. B 57, 1505 (1998)

   LibXC library of exchange-correlation functions:
      M. A. L. Marques, M. J. T. Oliveira and T. Burnus, Comput. Phys. Commun. 183, 2272 (2012)

   Hammer, Hansen, and Norskov exchange functional:
      B. Hammer, L. B. Hansen, and J. K. Nørskov, Phys. Rev. B 59, 7413 (1999)

   Perdew, Burke & Ernzerhof correlation functional:
      J. P. Perdew, K. Burke, and M. Ernzerhof, Phys. Rev. Lett. 77, 3865 (1996)

   Pseudopotentials:
      M Schlipf and F Gygi, Comput. Phys. Commun. 196, 36 (2015)

   Total energy minimization with Auxiliary Hamiltonian:
      C. Freysoldt, S. Boeck, and J. Neugebauer, Phys. Rev. B 79, 241103(R) (2009)

This list may not be complete. Please suggest additional citations or
report any other bugs at https://github.com/shankar1729/jdftx/issues

Initialization completed successfully at t[s]:    515.28


-------- Electronic minimization -----------
	FillingsUpdate:  mu: -0.024334851  nElectrons: 356.000000  magneticMoment: [ Abs: 12.87332  Tot: +0.00000 ]
ElecMinimize: Iter:   0  F: -2029.708806913263970  |grad|_K:  1.191e-03  alpha:  1.000e+00
	FillingsUpdate:  mu: +0.497724607  nElectrons: 356.000000  magneticMoment: [ Abs: 14.17488  Tot: -0.00000 ]
	SubspaceRotationAdjust: set factor to 0.996
ElecMinimize: Iter:   1  F: -2098.007938109963561  |grad|_K:  1.416e-03  alpha:  4.838e-01  linmin:  1.487e-02  t[s]:    604.83
	FillingsUpdate:  mu: +0.896337626  nElectrons: 356.000000  magneticMoment: [ Abs: 14.78133  Tot: +0.00000 ]
	SubspaceRotationAdjust: set factor to 0.801
ElecMinimize: Iter:   2  F: -2105.576730133156616  |grad|_K:  1.324e-03  alpha:  1.125e-01  linmin:  2.143e-03  t[s]:    680.79
	FillingsUpdate:  mu: +0.563224548  nElectrons: 356.000000  magneticMoment: [ Abs: 15.32532  Tot: -0.00000 ]
	SubspaceRotationAdjust: set factor to 1.26
ElecMinimize: Iter:   3  F: -2113.840958188225159  |grad|_K:  7.926e-04  alpha:  2.258e-02  linmin: -2.595e-03  t[s]:    754.90
	FillingsUpdate:  mu: +1.054497126  nElectrons: 356.000000  magneticMoment: [ Abs: 16.75635  Tot: +0.00000 ]
	SubspaceRotationAdjust: set factor to 0.687
ElecMinimize: Iter:   4  F: -2118.365174535951610  |grad|_K:  2.150e-03  alpha:  4.768e-02  linmin:  4.549e-03  t[s]:    831.39
ElecMinimize: 	Bad step direction: g.d > 0.
ElecMinimize: 	Undoing step.
ElecMinimize: 	Step failed: resetting search direction.
	FillingsUpdate:  mu: +1.054497126  nElectrons: 356.000000  magneticMoment: [ Abs: 16.75635  Tot: +0.00000 ]
	SubspaceRotationAdjust: set factor to 0.399
ElecMinimize: Iter:   5  F: -2118.365174535947972  |grad|_K:  1.638e-03  alpha:  0.000e+00
	FillingsUpdate:  mu: +0.495417750  nElectrons: 356.000000  magneticMoment: [ Abs: 15.91065  Tot: +0.00000 ]
	SubspaceRotationAdjust: set factor to 0.22
ElecMinimize: Iter:   6  F: -2127.937801336707707  |grad|_K:  5.824e-04  alpha:  2.876e-02  linmin: -7.127e-04  t[s]:    953.17
ElecMinimize: 	Predicted alpha/alphaT>3.000000, increasing alphaT to 8.627752e-02.
ElecMinimize: 	Predicted alpha/alphaT>3.000000, increasing alphaT to 2.588326e-01.
	FillingsUpdate:  mu: +0.398246608  nElectrons: 356.000000  magneticMoment: [ Abs: 18.42911  Tot: +0.00000 ]
	SubspaceRotationAdjust: set factor to 0.142
ElecMinimize: Iter:   7  F: -2144.112742937041730  |grad|_K:  3.171e-04  alpha:  2.709e-01  linmin:  2.219e-03  t[s]:   1095.44
	FillingsUpdate:  mu: +0.161163538  nElectrons: 356.000000  magneticMoment: [ Abs: 18.09664  Tot: -0.00000 ]
	SubspaceRotationAdjust: set factor to 0.119
	SubspaceRotationAdjust: resetting CG because factor has changed by 0.118824
ElecMinimize: 	State modified externally: resetting search direction.
ElecMinimize: Iter:   8  F: -2146.795352951298810  |grad|_K:  1.695e-04  alpha:  1.860e-01
	FillingsUpdate:  mu: +0.172716301  nElectrons: 356.000000  magneticMoment: [ Abs: 17.97082  Tot: -0.00000 ]
	SubspaceRotationAdjust: set factor to 0.101
ElecMinimize: Iter:   9  F: -2147.922130298407410  |grad|_K:  8.765e-05  alpha:  2.248e-01  linmin:  2.976e-05  t[s]:   1269.27
	FillingsUpdate:  mu: +0.215884646  nElectrons: 356.000000  magneticMoment: [ Abs: 18.49905  Tot: +0.00000 ]
	SubspaceRotationAdjust: set factor to 0.086
ElecMinimize: Iter:  10  F: -2148.199010537805862  |grad|_K:  6.015e-05  alpha:  2.083e-01  linmin: -5.165e-04  t[s]:   1347.59
	FillingsUpdate:  mu: +0.102435121  nElectrons: 356.000000  magneticMoment: [ Abs: 18.76495  Tot: -0.00000 ]
	SubspaceRotationAdjust: set factor to 0.0928
ElecMinimize: Iter:  11  F: -2148.529021867422671  |grad|_K:  5.648e-05  alpha:  5.107e-01  linmin:  1.015e-04  t[s]:   1425.09
	FillingsUpdate:  mu: +0.093450963  nElectrons: 356.000000  magneticMoment: [ Abs: 19.40001  Tot: -0.00000 ]
	SubspaceRotationAdjust: set factor to 0.114
ElecMinimize: Iter:  12  F: -2148.724096096059384  |grad|_K:  4.345e-05  alpha:  3.598e-01  linmin: -7.534e-05  t[s]:   1503.58
	FillingsUpdate:  mu: +0.123943539  nElectrons: 356.000000  magneticMoment: [ Abs: 20.27563  Tot: +0.00000 ]
	SubspaceRotationAdjust: set factor to 0.116
ElecMinimize: Iter:  13  F: -2148.922442252381643  |grad|_K:  5.723e-05  alpha:  5.844e-01  linmin:  4.791e-07  t[s]:   1584.49
	FillingsUpdate:  mu: +0.098396167  nElectrons: 356.000000  magneticMoment: [ Abs: 21.46825  Tot: +0.00000 ]
	SubspaceRotationAdjust: set factor to 0.151
ElecMinimize: Iter:  14  F: -2149.132918607443116  |grad|_K:  5.097e-05  alpha:  3.466e-01  linmin: -1.026e-04  t[s]:   1661.27
	FillingsUpdate:  mu: +0.081251230  nElectrons: 356.000000  magneticMoment: [ Abs: 22.53068  Tot: -0.00000 ]
	SubspaceRotationAdjust: set factor to 0.159
ElecMinimize: Iter:  15  F: -2149.285399953968408  |grad|_K:  5.649e-05  alpha:  2.992e-01  linmin:  5.682e-05  t[s]:   1739.42
	FillingsUpdate:  mu: +0.080542164  nElectrons: 356.000000  magneticMoment: [ Abs: 23.59397  Tot: +0.00000 ]
	SubspaceRotationAdjust: set factor to 0.174
ElecMinimize: Iter:  16  F: -2149.410086730391413  |grad|_K:  6.120e-05  alpha:  2.149e-01  linmin: -3.070e-05  t[s]:   1818.60
	FillingsUpdate:  mu: +0.092514538  nElectrons: 356.000000  magneticMoment: [ Abs: 23.98140  Tot: +0.00000 ]
	SubspaceRotationAdjust: set factor to 0.146
ElecMinimize: Iter:  17  F: -2149.489591401606049  |grad|_K:  6.502e-05  alpha:  8.004e-02  linmin: -3.842e-04  t[s]:   1898.91
	FillingsUpdate:  mu: +0.106454265  nElectrons: 356.000000  magneticMoment: [ Abs: 24.51135  Tot: +0.00000 ]
	SubspaceRotationAdjust: set factor to 0.108
ElecMinimize: Iter:  18  F: -2149.587698777258993  |grad|_K:  6.818e-05  alpha:  9.810e-02  linmin:  2.416e-04  t[s]:   1980.85
	FillingsUpdate:  mu: +0.102647313  nElectrons: 356.000000  magneticMoment: [ Abs: 24.64336  Tot: +0.00000 ]
	SubspaceRotationAdjust: set factor to 0.0912
ElecMinimize: Iter:  19  F: -2149.605012150288076  |grad|_K:  6.212e-05  alpha:  2.267e-02  linmin: -1.661e-04  t[s]:   2060.24
	FillingsUpdate:  mu: +0.085735297  nElectrons: 356.000000  magneticMoment: [ Abs: 24.85833  Tot: -0.00000 ]
	SubspaceRotationAdjust: set factor to 0.0813
ElecMinimize: Iter:  20  F: -2149.638593751878034  |grad|_K:  6.011e-05  alpha:  4.498e-02  linmin:  1.371e-04  t[s]:   2140.61
	FillingsUpdate:  mu: +0.093133010  nElectrons: 356.000000  magneticMoment: [ Abs: 24.97482  Tot: +0.00000 ]
	SubspaceRotationAdjust: set factor to 0.0691
ElecMinimize: Iter:  21  F: -2149.653778557312762  |grad|_K:  6.174e-05  alpha:  2.634e-02  linmin: -3.140e-05  t[s]:   2217.29
	FillingsUpdate:  mu: +0.116570995  nElectrons: 356.000000  magneticMoment: [ Abs: 25.09119  Tot: +0.00000 ]
	SubspaceRotationAdjust: set factor to 0.0555
ElecMinimize: Iter:  22  F: -2149.671525306750937  |grad|_K:  6.308e-05  alpha:  2.539e-02  linmin:  8.696e-05  t[s]:   2292.29
	FillingsUpdate:  mu: +0.130502425  nElectrons: 356.000000  magneticMoment: [ Abs: 25.15491  Tot: +0.00000 ]
	SubspaceRotationAdjust: set factor to 0.0454
ElecMinimize: Iter:  23  F: -2149.680098088879731  |grad|_K:  6.132e-05  alpha:  1.210e-02  linmin: -6.472e-05  t[s]:   2373.93
	FillingsUpdate:  mu: +0.145441300  nElectrons: 356.000000  magneticMoment: [ Abs: 25.23981  Tot: -0.00000 ]
	SubspaceRotationAdjust: set factor to 0.037
ElecMinimize: Iter:  24  F: -2149.689885707904978  |grad|_K:  6.027e-05  alpha:  1.405e-02  linmin:  9.261e-05  t[s]:   2455.06
	FillingsUpdate:  mu: +0.153181251  nElectrons: 356.000000  magneticMoment: [ Abs: 25.29540  Tot: +0.00000 ]
	SubspaceRotationAdjust: set factor to 0.0311
ElecMinimize: Iter:  25  F: -2149.694503073473243  |grad|_K:  5.829e-05  alpha:  7.765e-03  linmin: -1.740e-05  t[s]:   2535.29
	FillingsUpdate:  mu: +0.160073452  nElectrons: 356.000000  magneticMoment: [ Abs: 25.36313  Tot: +0.00000 ]
	SubspaceRotationAdjust: set factor to 0.0264
ElecMinimize: Iter:  26  F: -2149.699930143116489  |grad|_K:  5.689e-05  alpha:  8.997e-03  linmin:  2.963e-05  t[s]:   2617.32
	FillingsUpdate:  mu: +0.167580374  nElectrons: 356.000000  magneticMoment: [ Abs: 25.42620  Tot: -0.00000 ]
	SubspaceRotationAdjust: set factor to 0.0227
ElecMinimize: Iter:  27  F: -2149.704361241001152  |grad|_K:  5.525e-05  alpha:  8.151e-03  linmin:  5.757e-06  t[s]:   2697.15
	FillingsUpdate:  mu: +0.173354765  nElectrons: 356.000000  magneticMoment: [ Abs: 25.49363  Tot: +0.00000 ]
	SubspaceRotationAdjust: set factor to 0.02
ElecMinimize: Iter:  28  F: -2149.709170994355645  |grad|_K:  5.345e-05  alpha:  9.074e-03  linmin: -3.045e-06  t[s]:   2780.88
	FillingsUpdate:  mu: +0.177220231  nElectrons: 356.000000  magneticMoment: [ Abs: 25.56323  Tot: -0.00000 ]
	SubspaceRotationAdjust: set factor to 0.018
ElecMinimize: Iter:  29  F: -2149.714390537336385  |grad|_K:  5.128e-05  alpha:  1.037e-02  linmin: -8.679e-06  t[s]:   2859.70
	FillingsUpdate:  mu: +0.178882376  nElectrons: 356.000000  magneticMoment: [ Abs: 25.62738  Tot: +0.00000 ]
	SubspaceRotationAdjust: set factor to 0.0168
ElecMinimize: Iter:  30  F: -2149.719775701112212  |grad|_K:  4.872e-05  alpha:  1.158e-02  linmin:  7.249e-06  t[s]:   2940.18
	FillingsUpdate:  mu: +0.175659880  nElectrons: 356.000000  magneticMoment: [ Abs: 25.67049  Tot: -0.00000 ]
	SubspaceRotationAdjust: set factor to 0.0163
ElecMinimize: Iter:  31  F: -2149.724101671210065  |grad|_K:  4.630e-05  alpha:  1.043e-02  linmin:  2.527e-05  t[s]:   3022.90
	FillingsUpdate:  mu: +0.171627365  nElectrons: 356.000000  magneticMoment: [ Abs: 25.69395  Tot: -0.00000 ]
	SubspaceRotationAdjust: set factor to 0.0163
ElecMinimize: Iter:  32  F: -2149.727048839003146  |grad|_K:  4.449e-05  alpha:  7.893e-03  linmin:  1.209e-05  t[s]:   3103.37
	FillingsUpdate:  mu: +0.167471762  nElectrons: 356.000000  magneticMoment: [ Abs: 25.70789  Tot: -0.00000 ]
	SubspaceRotationAdjust: set factor to 0.0164
ElecMinimize: Iter:  33  F: -2149.729262145980556  |grad|_K:  4.302e-05  alpha:  6.378e-03  linmin:  1.641e-05  t[s]:   3184.93
	FillingsUpdate:  mu: +0.163614088  nElectrons: 356.000000  magneticMoment: [ Abs: 25.71636  Tot: +0.00000 ]
	SubspaceRotationAdjust: set factor to 0.0166
ElecMinimize: Iter:  34  F: -2149.730935999528356  |grad|_K:  4.174e-05  alpha:  5.211e-03  linmin:  1.357e-05  t[s]:   3265.72
	FillingsUpdate:  mu: +0.161759530  nElectrons: 356.000000  magneticMoment: [ Abs: 25.72167  Tot: -0.00000 ]
	SubspaceRotationAdjust: set factor to 0.0167
ElecMinimize: Iter:  35  F: -2149.732293762584504  |grad|_K:  4.048e-05  alpha:  4.498e-03  linmin:  1.346e-05  t[s]:   3346.74
	FillingsUpdate:  mu: +0.159194922  nElectrons: 356.000000  magneticMoment: [ Abs: 25.72478  Tot: -0.00000 ]
	SubspaceRotationAdjust: set factor to 0.0167
ElecMinimize: Iter:  36  F: -2149.733427177714930  |grad|_K:  3.920e-05  alpha:  4.000e-03  linmin:  1.198e-05  t[s]:   3424.94
	FillingsUpdate:  mu: +0.155678115  nElectrons: 356.000000  magneticMoment: [ Abs: 25.72624  Tot: +0.00000 ]
	SubspaceRotationAdjust: set factor to 0.0166
ElecMinimize: Iter:  37  F: -2149.734399631883207  |grad|_K:  3.788e-05  alpha:  3.657e-03  linmin:  1.082e-05  t[s]:   3508.12
	FillingsUpdate:  mu: +0.151853304  nElectrons: 356.000000  magneticMoment: [ Abs: 25.72631  Tot: +0.00000 ]
	SubspaceRotationAdjust: set factor to 0.0165
ElecMinimize: Iter:  38  F: -2149.735246784143328  |grad|_K:  3.652e-05  alpha:  3.410e-03  linmin:  9.715e-06  t[s]:   3585.38
	FillingsUpdate:  mu: +0.147884137  nElectrons: 356.000000  magneticMoment: [ Abs: 25.72519  Tot: +0.00000 ]
	SubspaceRotationAdjust: set factor to 0.0163
ElecMinimize: Iter:  39  F: -2149.735992678508410  |grad|_K:  3.515e-05  alpha:  3.226e-03  linmin:  8.780e-06  t[s]:   3666.19
	FillingsUpdate:  mu: +0.143889323  nElectrons: 356.000000  magneticMoment: [ Abs: 25.72301  Tot: -0.00000 ]
	SubspaceRotationAdjust: set factor to 0.0161
ElecMinimize: Iter:  40  F: -2149.736654169125813  |grad|_K:  3.377e-05  alpha:  3.087e-03  linmin:  7.970e-06  t[s]:   3739.45
	FillingsUpdate:  mu: +0.140166609  nElectrons: 356.000000  magneticMoment: [ Abs: 25.71989  Tot: -0.00000 ]
	SubspaceRotationAdjust: set factor to 0.0159
	SubspaceRotationAdjust: resetting CG because factor has changed by 0.133946
ElecMinimize: 	State modified externally: resetting search direction.
ElecMinimize: Iter:  41  F: -2149.737244008646485  |grad|_K:  3.231e-05  alpha:  2.979e-03
ElecMinimize: 	Predicted alpha/alphaT>3.000000, increasing alphaT to 8.937070e-03.
ElecMinimize: 	Predicted alpha/alphaT>3.000000, increasing alphaT to 2.681121e-02.
ElecMinimize: 	Predicted alpha/alphaT>3.000000, increasing alphaT to 8.043363e-02.
	FillingsUpdate:  mu: +0.087219435  nElectrons: 356.000000  magneticMoment: [ Abs: 25.48572  Tot: +0.00000 ]
	SubspaceRotationAdjust: set factor to 0.0198
ElecMinimize: Iter:  42  F: -2149.825873292703818  |grad|_K:  2.176e-05  alpha:  4.803e-01  linmin: -4.485e-03  t[s]:   3980.87
	FillingsUpdate:  mu: +0.069517945  nElectrons: 356.000000  magneticMoment: [ Abs: 25.29558  Tot: +0.00000 ]
	SubspaceRotationAdjust: set factor to 0.0238
ElecMinimize: Iter:  43  F: -2149.870554282451394  |grad|_K:  2.250e-05  alpha:  5.318e-01  linmin:  1.150e-03  t[s]:   4061.00
	FillingsUpdate:  mu: +0.070267770  nElectrons: 356.000000  magneticMoment: [ Abs: 25.03282  Tot: -0.00000 ]
	SubspaceRotationAdjust: set factor to 0.0269
ElecMinimize: Iter:  44  F: -2149.913951315480517  |grad|_K:  2.214e-05  alpha:  4.944e-01  linmin:  3.794e-04  t[s]:   4141.53
	FillingsUpdate:  mu: +0.069696575  nElectrons: 356.000000  magneticMoment: [ Abs: 24.74632  Tot: -0.00000 ]
	SubspaceRotationAdjust: set factor to 0.0303
ElecMinimize: Iter:  45  F: -2149.950136025520806  |grad|_K:  1.835e-05  alpha:  4.264e-01  linmin: -9.341e-04  t[s]:   4219.44
	FillingsUpdate:  mu: +0.072265157  nElectrons: 356.000000  magneticMoment: [ Abs: 24.58177  Tot: -0.00000 ]
	SubspaceRotationAdjust: set factor to 0.0355
ElecMinimize: Iter:  46  F: -2149.975226391386514  |grad|_K:  1.670e-05  alpha:  4.202e-01  linmin: -4.670e-04  t[s]:   4297.37
	FillingsUpdate:  mu: +0.074504728  nElectrons: 356.000000  magneticMoment: [ Abs: 24.49512  Tot: -0.00000 ]
	SubspaceRotationAdjust: set factor to 0.0386
ElecMinimize: Iter:  47  F: -2149.996928047041820  |grad|_K:  1.627e-05  alpha:  4.410e-01  linmin: -3.416e-04  t[s]:   4376.80
	FillingsUpdate:  mu: +0.077348109  nElectrons: 356.000000  magneticMoment: [ Abs: 24.43644  Tot: -0.00000 ]
	SubspaceRotationAdjust: set factor to 0.043
ElecMinimize: Iter:  48  F: -2150.018742378002571  |grad|_K:  1.539e-05  alpha:  4.665e-01  linmin: -5.905e-04  t[s]:   4455.99
	FillingsUpdate:  mu: +0.081044656  nElectrons: 356.000000  magneticMoment: [ Abs: 24.46774  Tot: -0.00000 ]
	SubspaceRotationAdjust: set factor to 0.048
ElecMinimize: Iter:  49  F: -2150.038956908123964  |grad|_K:  1.600e-05  alpha:  4.789e-01  linmin: -3.201e-04  t[s]:   4535.06
	FillingsUpdate:  mu: +0.083915755  nElectrons: 356.000000  magneticMoment: [ Abs: 24.57742  Tot: +0.00000 ]
	SubspaceRotationAdjust: set factor to 0.0542
ElecMinimize: Iter:  50  F: -2150.059588919162252  |grad|_K:  1.571e-05  alpha:  4.549e-01  linmin: -2.984e-04  t[s]:   4615.38
	FillingsUpdate:  mu: +0.089226207  nElectrons: 356.000000  magneticMoment: [ Abs: 24.74859  Tot: +0.00000 ]
	SubspaceRotationAdjust: set factor to 0.0583
ElecMinimize: Iter:  51  F: -2150.079647816683973  |grad|_K:  1.553e-05  alpha:  4.580e-01  linmin: -2.272e-04  t[s]:   4694.01
	FillingsUpdate:  mu: +0.090660414  nElectrons: 356.000000  magneticMoment: [ Abs: 24.96515  Tot: +0.00000 ]
	SubspaceRotationAdjust: set factor to 0.0609
ElecMinimize: Iter:  52  F: -2150.096222286987540  |grad|_K:  1.424e-05  alpha:  3.879e-01  linmin: -7.873e-05  t[s]:   4775.42
	FillingsUpdate:  mu: +0.091790028  nElectrons: 356.000000  magneticMoment: [ Abs: 25.21517  Tot: -0.00000 ]
	SubspaceRotationAdjust: set factor to 0.0634
ElecMinimize: Iter:  53  F: -2150.111076893918835  |grad|_K:  1.318e-05  alpha:  4.167e-01  linmin: -1.656e-04  t[s]:   4853.35
	FillingsUpdate:  mu: +0.087239513  nElectrons: 356.000000  magneticMoment: [ Abs: 25.47248  Tot: -0.00000 ]
	SubspaceRotationAdjust: set factor to 0.0689
ElecMinimize: Iter:  54  F: -2150.123574801079030  |grad|_K:  1.196e-05  alpha:  4.076e-01  linmin: -1.246e-04  t[s]:   4933.51
	FillingsUpdate:  mu: +0.088452958  nElectrons: 356.000000  magneticMoment: [ Abs: 25.71006  Tot: +0.00000 ]
	SubspaceRotationAdjust: set factor to 0.0786
ElecMinimize: Iter:  55  F: -2150.133885932546036  |grad|_K:  1.093e-05  alpha:  4.097e-01  linmin: -3.648e-05  t[s]:   5015.25
	FillingsUpdate:  mu: +0.090257564  nElectrons: 356.000000  magneticMoment: [ Abs: 25.94712  Tot: +0.00000 ]
	SubspaceRotationAdjust: set factor to 0.0923
ElecMinimize: Iter:  56  F: -2150.142658508444129  |grad|_K:  1.030e-05  alpha:  4.187e-01  linmin:  2.475e-05  t[s]:   5093.62
	FillingsUpdate:  mu: +0.088329807  nElectrons: 356.000000  magneticMoment: [ Abs: 26.16210  Tot: -0.00000 ]
	SubspaceRotationAdjust: set factor to 0.107
ElecMinimize: Iter:  57  F: -2150.149912139395383  |grad|_K:  1.015e-05  alpha:  3.908e-01  linmin:  2.263e-04  t[s]:   5174.38
	FillingsUpdate:  mu: +0.085714582  nElectrons: 356.000000  magneticMoment: [ Abs: 26.35115  Tot: -0.00000 ]
	SubspaceRotationAdjust: set factor to 0.126
	SubspaceRotationAdjust: resetting CG because factor has changed by 7.89334
ElecMinimize: 	State modified externally: resetting search direction.
ElecMinimize: Iter:  58  F: -2150.156473410746912  |grad|_K:  9.592e-06  alpha:  3.697e-01
	FillingsUpdate:  mu: +0.087485624  nElectrons: 356.000000  magneticMoment: [ Abs: 26.39801  Tot: -0.00000 ]
	SubspaceRotationAdjust: set factor to 0.156
ElecMinimize: Iter:  59  F: -2150.162012354000126  |grad|_K:  9.501e-06  alpha:  3.442e-01  linmin:  2.029e-05  t[s]:   5350.84
	FillingsUpdate:  mu: +0.088582509  nElectrons: 356.000000  magneticMoment: [ Abs: 26.44487  Tot: -0.00000 ]
	SubspaceRotationAdjust: set factor to 0.125
ElecMinimize: Iter:  60  F: -2150.167996557384868  |grad|_K:  1.155e-05  alpha:  3.782e-01  linmin: -5.665e-04  t[s]:   5432.55
	FillingsUpdate:  mu: +0.084853150  nElectrons: 356.000000  magneticMoment: [ Abs: 26.54695  Tot: -0.00000 ]
	SubspaceRotationAdjust: set factor to 0.0923
ElecMinimize: Iter:  61  F: -2150.173270408646658  |grad|_K:  9.814e-06  alpha:  2.298e-01  linmin:  2.562e-04  t[s]:   5513.11
	FillingsUpdate:  mu: +0.081704664  nElectrons: 356.000000  magneticMoment: [ Abs: 26.65821  Tot: -0.00000 ]
	SubspaceRotationAdjust: set factor to 0.0935
ElecMinimize: Iter:  62  F: -2150.179071544157978  |grad|_K:  8.500e-06  alpha:  3.484e-01  linmin:  1.401e-04  t[s]:   5587.12
	FillingsUpdate:  mu: +0.084333880  nElectrons: 356.000000  magneticMoment: [ Abs: 26.77863  Tot: -0.00000 ]
	SubspaceRotationAdjust: set factor to 0.109
ElecMinimize: Iter:  63  F: -2150.183638418846385  |grad|_K:  7.174e-06  alpha:  3.642e-01  linmin:  1.926e-04  t[s]:   5665.78
	FillingsUpdate:  mu: +0.082710553  nElectrons: 356.000000  magneticMoment: [ Abs: 26.90208  Tot: +0.00000 ]
	SubspaceRotationAdjust: set factor to 0.108
ElecMinimize: Iter:  64  F: -2150.186802979678305  |grad|_K:  6.407e-06  alpha:  3.550e-01  linmin: -6.110e-04  t[s]:   5746.95
	FillingsUpdate:  mu: +0.083188716  nElectrons: 356.000000  magneticMoment: [ Abs: 27.00493  Tot: +0.00000 ]
	SubspaceRotationAdjust: set factor to 0.0967
ElecMinimize: Iter:  65  F: -2150.189354771732269  |grad|_K:  6.184e-06  alpha:  3.468e-01  linmin:  2.805e-04  t[s]:   5820.55
	FillingsUpdate:  mu: +0.081611482  nElectrons: 356.000000  magneticMoment: [ Abs: 27.21903  Tot: -0.00000 ]
	SubspaceRotationAdjust: set factor to 0.0982
ElecMinimize: Iter:  66  F: -2150.192248575466238  |grad|_K:  6.156e-06  alpha:  4.355e-01  linmin: -3.709e-04  t[s]:   5897.64
	FillingsUpdate:  mu: +0.082062908  nElectrons: 356.000000  magneticMoment: [ Abs: 27.45118  Tot: -0.00000 ]
	SubspaceRotationAdjust: set factor to 0.107
ElecMinimize: Iter:  67  F: -2150.195119507563959  |grad|_K:  6.507e-06  alpha:  4.244e-01  linmin:  1.373e-04  t[s]:   5977.64
	FillingsUpdate:  mu: +0.082896644  nElectrons: 356.000000  magneticMoment: [ Abs: 27.72088  Tot: +0.00000 ]
	SubspaceRotationAdjust: set factor to 0.121
ElecMinimize: Iter:  68  F: -2150.197942891154980  |grad|_K:  6.488e-06  alpha:  3.837e-01  linmin:  1.545e-04  t[s]:   6060.86
	FillingsUpdate:  mu: +0.082118400  nElectrons: 356.000000  magneticMoment: [ Abs: 28.03134  Tot: +0.00000 ]
	SubspaceRotationAdjust: set factor to 0.121
ElecMinimize: Iter:  69  F: -2150.200568548722913  |grad|_K:  6.294e-06  alpha:  3.609e-01  linmin: -2.246e-04  t[s]:   6136.07
	FillingsUpdate:  mu: +0.084603997  nElectrons: 356.000000  magneticMoment: [ Abs: 28.29269  Tot: -0.00000 ]
	SubspaceRotationAdjust: set factor to 0.112
ElecMinimize: Iter:  70  F: -2150.202878946131023  |grad|_K:  7.192e-06  alpha:  3.265e-01  linmin:  4.303e-04  t[s]:   6213.10
	FillingsUpdate:  mu: +0.083439773  nElectrons: 356.000000  magneticMoment: [ Abs: 28.68656  Tot: -0.00000 ]
	SubspaceRotationAdjust: set factor to 0.142
ElecMinimize: Iter:  71  F: -2150.205740679817154  |grad|_K:  6.493e-06  alpha:  3.263e-01  linmin: -4.540e-05  t[s]:   6291.28
	FillingsUpdate:  mu: +0.085273209  nElectrons: 356.000000  magneticMoment: [ Abs: 29.08674  Tot: +0.00000 ]
	SubspaceRotationAdjust: set factor to 0.162
ElecMinimize: Iter:  72  F: -2150.208687085513247  |grad|_K:  7.746e-06  alpha:  3.977e-01  linmin: -2.811e-05  t[s]:   6366.00
	FillingsUpdate:  mu: +0.087959623  nElectrons: 356.000000  magneticMoment: [ Abs: 29.42256  Tot: +0.00000 ]
	SubspaceRotationAdjust: set factor to 0.159
ElecMinimize: Iter:  73  F: -2150.211476776840755  |grad|_K:  9.287e-06  alpha:  2.637e-01  linmin: -4.533e-07  t[s]:   6443.15
	FillingsUpdate:  mu: +0.086252003  nElectrons: 356.000000  magneticMoment: [ Abs: 29.83972  Tot: -0.00000 ]
	SubspaceRotationAdjust: set factor to 0.185
ElecMinimize: Iter:  74  F: -2150.215007636200880  |grad|_K:  8.275e-06  alpha:  2.340e-01  linmin:  9.394e-07  t[s]:   6518.74
	FillingsUpdate:  mu: +0.087781252  nElectrons: 356.000000  magneticMoment: [ Abs: 30.16416  Tot: -0.00000 ]
	SubspaceRotationAdjust: set factor to 0.207
ElecMinimize: Iter:  75  F: -2150.218108588119776  |grad|_K:  7.789e-06  alpha:  2.584e-01  linmin: -1.641e-04  t[s]:   6597.42
	FillingsUpdate:  mu: +0.091381049  nElectrons: 356.000000  magneticMoment: [ Abs: 30.37293  Tot: -0.00000 ]
	SubspaceRotationAdjust: set factor to 0.197
ElecMinimize: Iter:  76  F: -2150.220435519087459  |grad|_K:  8.099e-06  alpha:  2.187e-01  linmin: -2.599e-04  t[s]:   6676.35
	FillingsUpdate:  mu: +0.090206078  nElectrons: 356.000000  magneticMoment: [ Abs: 30.56111  Tot: +0.00000 ]
	SubspaceRotationAdjust: set factor to 0.196
ElecMinimize: Iter:  77  F: -2150.222622888685692  |grad|_K:  6.730e-06  alpha:  1.878e-01  linmin: -1.629e-04  t[s]:   6752.47
	FillingsUpdate:  mu: +0.089981178  nElectrons: 356.000000  magneticMoment: [ Abs: 30.70525  Tot: -0.00000 ]
	SubspaceRotationAdjust: set factor to 0.208
ElecMinimize: Iter:  78  F: -2150.225407598722541  |grad|_K:  7.432e-06  alpha:  3.456e-01  linmin:  4.025e-05  t[s]:   6827.30
	FillingsUpdate:  mu: +0.088346775  nElectrons: 356.000000  magneticMoment: [ Abs: 30.93409  Tot: +0.00000 ]
	SubspaceRotationAdjust: set factor to 0.239
ElecMinimize: Iter:  79  F: -2150.228872713974397  |grad|_K:  7.653e-06  alpha:  3.600e-01  linmin: -1.027e-04  t[s]:   6899.64
	FillingsUpdate:  mu: +0.090227225  nElectrons: 356.000000  magneticMoment: [ Abs: 31.18924  Tot: -0.00000 ]
	SubspaceRotationAdjust: set factor to 0.274
ElecMinimize: Iter:  80  F: -2150.232389966736719  |grad|_K:  8.474e-06  alpha:  3.363e-01  linmin:  4.082e-04  t[s]:   6977.02
	FillingsUpdate:  mu: +0.090060953  nElectrons: 356.000000  magneticMoment: [ Abs: 31.31912  Tot: -0.00000 ]
	SubspaceRotationAdjust: set factor to 0.318
ElecMinimize: Iter:  81  F: -2150.235061352246703  |grad|_K:  8.108e-06  alpha:  2.265e-01  linmin: -5.822e-05  t[s]:   7053.96
	FillingsUpdate:  mu: +0.089667423  nElectrons: 356.000000  magneticMoment: [ Abs: 31.36164  Tot: +0.00000 ]
	SubspaceRotationAdjust: set factor to 0.374
ElecMinimize: Iter:  82  F: -2150.237289140474331  |grad|_K:  7.800e-06  alpha:  1.924e-01  linmin: -1.365e-05  t[s]:   7130.11
	FillingsUpdate:  mu: +0.089490836  nElectrons: 356.000000  magneticMoment: [ Abs: 31.39424  Tot: -0.00000 ]
	SubspaceRotationAdjust: set factor to 0.454
ElecMinimize: Iter:  83  F: -2150.239425555646449  |grad|_K:  7.645e-06  alpha:  2.000e-01  linmin: -2.326e-04  t[s]:   7207.01
	FillingsUpdate:  mu: +0.089711581  nElectrons: 356.000000  magneticMoment: [ Abs: 31.41894  Tot: +0.00000 ]
	SubspaceRotationAdjust: set factor to 0.565
ElecMinimize: Iter:  84  F: -2150.241903146843470  |grad|_K:  7.957e-06  alpha:  2.348e-01  linmin: -4.540e-05  t[s]:   7282.60
	FillingsUpdate:  mu: +0.090020642  nElectrons: 356.000000  magneticMoment: [ Abs: 31.37226  Tot: +0.00000 ]
	SubspaceRotationAdjust: set factor to 0.668
ElecMinimize: Iter:  85  F: -2150.244039349006471  |grad|_K:  8.095e-06  alpha:  1.917e-01  linmin: -3.064e-06  t[s]:   7359.54
	FillingsUpdate:  mu: +0.092302223  nElectrons: 356.000000  magneticMoment: [ Abs: 31.33898  Tot: +0.00000 ]
	SubspaceRotationAdjust: set factor to 0.592
ElecMinimize: Iter:  86  F: -2150.245682327581562  |grad|_K:  8.698e-06  alpha:  1.431e-01  linmin: -5.736e-07  t[s]:   7432.21
	FillingsUpdate:  mu: +0.091974877  nElectrons: 356.000000  magneticMoment: [ Abs: 31.29999  Tot: -0.00000 ]
	SubspaceRotationAdjust: set factor to 0.65
ElecMinimize: Iter:  87  F: -2150.247096564647109  |grad|_K:  7.097e-06  alpha:  1.079e-01  linmin: -4.050e-05  t[s]:   7508.77
	FillingsUpdate:  mu: +0.091220493  nElectrons: 356.000000  magneticMoment: [ Abs: 31.22047  Tot: -0.00000 ]
	SubspaceRotationAdjust: set factor to 0.81
ElecMinimize: Iter:  88  F: -2150.248724563588894  |grad|_K:  6.828e-06  alpha:  1.835e-01  linmin:  1.668e-05  t[s]:   7584.20
	FillingsUpdate:  mu: +0.090870898  nElectrons: 356.000000  magneticMoment: [ Abs: 31.09505  Tot: +0.00000 ]
	SubspaceRotationAdjust: set factor to 0.957
	SubspaceRotationAdjust: resetting CG because factor has changed by 7.61597
ElecMinimize: 	State modified externally: resetting search direction.
ElecMinimize: Iter:  89  F: -2150.250015649845864  |grad|_K:  6.843e-06  alpha:  1.586e-01
	FillingsUpdate:  mu: +0.095141838  nElectrons: 356.000000  magneticMoment: [ Abs: 31.18372  Tot: +0.00000 ]
	SubspaceRotationAdjust: set factor to 0.558
ElecMinimize: Iter:  90  F: -2150.251652845305671  |grad|_K:  9.460e-06  alpha:  2.005e-01  linmin:  2.172e-04  t[s]:   7751.94
	FillingsUpdate:  mu: +0.091195414  nElectrons: 356.000000  magneticMoment: [ Abs: 31.12029  Tot: +0.00000 ]
	SubspaceRotationAdjust: set factor to 0.459
ElecMinimize: Iter:  91  F: -2150.253091858121479  |grad|_K:  7.471e-06  alpha:  9.763e-02  linmin:  3.004e-04  t[s]:   7827.57
	FillingsUpdate:  mu: +0.093197277  nElectrons: 356.000000  magneticMoment: [ Abs: 31.08229  Tot: +0.00000 ]
	SubspaceRotationAdjust: set factor to 0.357
ElecMinimize: Iter:  92  F: -2150.254467966579341  |grad|_K:  6.707e-06  alpha:  1.432e-01  linmin: -2.609e-04  t[s]:   7902.51
	FillingsUpdate:  mu: +0.090195185  nElectrons: 356.000000  magneticMoment: [ Abs: 31.08244  Tot: -0.00000 ]
	SubspaceRotationAdjust: set factor to 0.342
ElecMinimize: Iter:  93  F: -2150.256149968518457  |grad|_K:  4.543e-06  alpha:  2.148e-01  linmin:  8.788e-04  t[s]:   7978.09
	FillingsUpdate:  mu: +0.090813616  nElectrons: 356.000000  magneticMoment: [ Abs: 31.07747  Tot: -0.00000 ]
	SubspaceRotationAdjust: set factor to 0.294
ElecMinimize: Iter:  94  F: -2150.256988980594087  |grad|_K:  3.930e-06  alpha:  2.512e-01  linmin:  3.338e-04  t[s]:   8054.76
	FillingsUpdate:  mu: +0.090959657  nElectrons: 356.000000  magneticMoment: [ Abs: 31.07130  Tot: -0.00000 ]
	SubspaceRotationAdjust: set factor to 0.23
ElecMinimize: Iter:  95  F: -2150.257417042281304  |grad|_K:  2.896e-06  alpha:  1.626e-01  linmin: -9.898e-07  t[s]:   8132.29
	FillingsUpdate:  mu: +0.090718070  nElectrons: 356.000000  magneticMoment: [ Abs: 31.05560  Tot: -0.00000 ]
	SubspaceRotationAdjust: set factor to 0.269
ElecMinimize: Iter:  96  F: -2150.257750370058602  |grad|_K:  2.264e-06  alpha:  2.265e-01  linmin: -2.265e-04  t[s]:   8209.16
	FillingsUpdate:  mu: +0.090370109  nElectrons: 356.000000  magneticMoment: [ Abs: 31.07119  Tot: +0.00000 ]
	SubspaceRotationAdjust: set factor to 0.279
ElecMinimize: Iter:  97  F: -2150.258066334560681  |grad|_K:  2.362e-06  alpha:  3.526e-01  linmin:  5.197e-04  t[s]:   8287.70
	FillingsUpdate:  mu: +0.091132281  nElectrons: 356.000000  magneticMoment: [ Abs: 31.09204  Tot: -0.00000 ]
	SubspaceRotationAdjust: set factor to 0.264
ElecMinimize: Iter:  98  F: -2150.258306863650432  |grad|_K:  2.473e-06  alpha:  2.505e-01  linmin:  2.717e-05  t[s]:   8364.95
	FillingsUpdate:  mu: +0.091276833  nElectrons: 356.000000  magneticMoment: [ Abs: 31.08847  Tot: -0.00000 ]
	SubspaceRotationAdjust: set factor to 0.273
ElecMinimize: Iter:  99  F: -2150.258580986433572  |grad|_K:  2.115e-06  alpha:  2.566e-01  linmin: -9.969e-07  t[s]:   8442.88
	FillingsUpdate:  mu: +0.091344546  nElectrons: 356.000000  magneticMoment: [ Abs: 31.10358  Tot: +0.00000 ]
	SubspaceRotationAdjust: set factor to 0.314
ElecMinimize: Iter: 100  F: -2150.258848269150803  |grad|_K:  2.354e-06  alpha:  3.434e-01  linmin:  2.583e-04  t[s]:   8519.44
	FillingsUpdate:  mu: +0.092039487  nElectrons: 356.000000  magneticMoment: [ Abs: 31.13811  Tot: -0.00000 ]
	SubspaceRotationAdjust: set factor to 0.28
ElecMinimize: Iter: 101  F: -2150.259079225659207  |grad|_K:  2.554e-06  alpha:  2.420e-01  linmin: -3.021e-06  t[s]:   8590.06
	FillingsUpdate:  mu: +0.091235520  nElectrons: 356.000000  magneticMoment: [ Abs: 31.15871  Tot: +0.00000 ]
	SubspaceRotationAdjust: set factor to 0.277
ElecMinimize: Iter: 102  F: -2150.259371820329761  |grad|_K:  2.613e-06  alpha:  2.575e-01  linmin:  4.543e-04  t[s]:   8665.86
	FillingsUpdate:  mu: +0.091636431  nElectrons: 356.000000  magneticMoment: [ Abs: 31.19993  Tot: -0.00000 ]
	SubspaceRotationAdjust: set factor to 0.345
ElecMinimize: Iter: 103  F: -2150.259713308435039  |grad|_K:  2.597e-06  alpha:  2.988e-01  linmin:  7.890e-05  t[s]:   8741.98
	FillingsUpdate:  mu: +0.092876557  nElectrons: 356.000000  magneticMoment: [ Abs: 31.26178  Tot: +0.00000 ]
	SubspaceRotationAdjust: set factor to 0.321
ElecMinimize: Iter: 104  F: -2150.260005250013819  |grad|_K:  3.031e-06  alpha:  2.500e-01  linmin: -4.392e-05  t[s]:   8819.54
	FillingsUpdate:  mu: +0.092253159  nElectrons: 356.000000  magneticMoment: [ Abs: 31.29978  Tot: +0.00000 ]
	SubspaceRotationAdjust: set factor to 0.308
ElecMinimize: Iter: 105  F: -2150.260265841056935  |grad|_K:  2.849e-06  alpha:  1.528e-01  linmin: -1.673e-04  t[s]:   8896.74
	FillingsUpdate:  mu: +0.091849471  nElectrons: 356.000000  magneticMoment: [ Abs: 31.34088  Tot: +0.00000 ]
	SubspaceRotationAdjust: set factor to 0.386
ElecMinimize: Iter: 106  F: -2150.260571578424788  |grad|_K:  2.647e-06  alpha:  2.098e-01  linmin: -2.086e-04  t[s]:   8976.57
	FillingsUpdate:  mu: +0.093843407  nElectrons: 356.000000  magneticMoment: [ Abs: 31.40463  Tot: -0.00000 ]
	SubspaceRotationAdjust: set factor to 0.297
ElecMinimize: Iter: 107  F: -2150.260902997844369  |grad|_K:  3.663e-06  alpha:  2.622e-01  linmin: -1.234e-04  t[s]:   9054.06
	FillingsUpdate:  mu: +0.092823285  nElectrons: 356.000000  magneticMoment: [ Abs: 31.44944  Tot: -0.00000 ]
	SubspaceRotationAdjust: set factor to 0.341
ElecMinimize: Iter: 108  F: -2150.261143380240810  |grad|_K:  2.786e-06  alpha:  8.349e-02  linmin: -1.295e-03  t[s]:   9129.99
	FillingsUpdate:  mu: +0.093040714  nElectrons: 356.000000  magneticMoment: [ Abs: 31.52549  Tot: +0.00000 ]
	SubspaceRotationAdjust: set factor to 0.228
ElecMinimize: Iter: 109  F: -2150.261454658608727  |grad|_K:  4.249e-06  alpha:  2.012e-01  linmin:  4.005e-04  t[s]:   9205.12
	FillingsUpdate:  mu: +0.094436029  nElectrons: 356.000000  magneticMoment: [ Abs: 31.58763  Tot: +0.00000 ]
	SubspaceRotationAdjust: set factor to 0.365
ElecMinimize: Iter: 110  F: -2150.261691447290559  |grad|_K:  3.242e-06  alpha:  7.702e-02  linmin: -1.403e-04  t[s]:   9283.71
	FillingsUpdate:  mu: +0.096427998  nElectrons: 356.000000  magneticMoment: [ Abs: 31.62784  Tot: -0.00000 ]
	SubspaceRotationAdjust: set factor to 0.321
ElecMinimize: Iter: 111  F: -2150.261889685361893  |grad|_K:  3.845e-06  alpha:  1.056e-01  linmin:  1.082e-04  t[s]:   9360.52
	FillingsUpdate:  mu: +0.095835140  nElectrons: 356.000000  magneticMoment: [ Abs: 31.67838  Tot: -0.00000 ]
	SubspaceRotationAdjust: set factor to 0.312
ElecMinimize: Iter: 112  F: -2150.262142208664955  |grad|_K:  3.414e-06  alpha:  9.952e-02  linmin:  7.227e-05  t[s]:   9438.18
	FillingsUpdate:  mu: +0.094952809  nElectrons: 356.000000  magneticMoment: [ Abs: 31.72258  Tot: +0.00000 ]
	SubspaceRotationAdjust: set factor to 0.338
ElecMinimize: Iter: 113  F: -2150.262302905499837  |grad|_K:  3.445e-06  alpha:  7.934e-02  linmin:  3.228e-05  t[s]:   9514.97
	FillingsUpdate:  mu: +0.094833130  nElectrons: 356.000000  magneticMoment: [ Abs: 31.80560  Tot: -0.00000 ]
	SubspaceRotationAdjust: set factor to 0.251
ElecMinimize: Iter: 114  F: -2150.262568564861795  |grad|_K:  4.431e-06  alpha:  1.304e-01  linmin:  1.877e-04  t[s]:   9591.97
	FillingsUpdate:  mu: +0.094992548  nElectrons: 356.000000  magneticMoment: [ Abs: 31.83458  Tot: +0.00000 ]
	SubspaceRotationAdjust: set factor to 0.332
ElecMinimize: Iter: 115  F: -2150.262725518181924  |grad|_K:  3.243e-06  alpha:  3.657e-02  linmin: -1.224e-03  t[s]:   9670.73
	FillingsUpdate:  mu: +0.096047350  nElectrons: 356.000000  magneticMoment: [ Abs: 31.85140  Tot: -0.00000 ]
	SubspaceRotationAdjust: set factor to 0.293
ElecMinimize: Iter: 116  F: -2150.262859806600773  |grad|_K:  3.443e-06  alpha:  5.932e-02  linmin:  3.129e-04  t[s]:   9748.38
	FillingsUpdate:  mu: +0.096375748  nElectrons: 356.000000  magneticMoment: [ Abs: 31.86834  Tot: +0.00000 ]
	SubspaceRotationAdjust: set factor to 0.193
ElecMinimize: Iter: 117  F: -2150.262975267556158  |grad|_K:  4.202e-06  alpha:  5.936e-02  linmin:  1.306e-04  t[s]:   9822.44
	FillingsUpdate:  mu: +0.095575690  nElectrons: 356.000000  magneticMoment: [ Abs: 31.89074  Tot: +0.00000 ]
	SubspaceRotationAdjust: set factor to 0.171
ElecMinimize: Iter: 118  F: -2150.263113392101786  |grad|_K:  3.555e-06  alpha:  4.529e-02  linmin:  3.070e-05  t[s]:   9899.32
	FillingsUpdate:  mu: +0.094891105  nElectrons: 356.000000  magneticMoment: [ Abs: 31.91631  Tot: -0.00000 ]
	SubspaceRotationAdjust: set factor to 0.206
ElecMinimize: Iter: 119  F: -2150.263234580261269  |grad|_K:  3.405e-06  alpha:  5.534e-02  linmin:  4.120e-05  t[s]:   9975.38
	FillingsUpdate:  mu: +0.094698947  nElectrons: 356.000000  magneticMoment: [ Abs: 31.95114  Tot: -0.00000 ]
	SubspaceRotationAdjust: set factor to 0.17
ElecMinimize: Iter: 120  F: -2150.263370521438901  |grad|_K:  4.091e-06  alpha:  6.779e-02  linmin:  1.455e-05  t[s]:  10050.83
	FillingsUpdate:  mu: +0.095827115  nElectrons: 356.000000  magneticMoment: [ Abs: 31.99932  Tot: -0.00000 ]
	SubspaceRotationAdjust: set factor to 0.149
ElecMinimize: Iter: 121  F: -2150.263559007484673  |grad|_K:  4.209e-06  alpha:  6.466e-02  linmin: -1.500e-05  t[s]:  10126.55
	FillingsUpdate:  mu: +0.097091387  nElectrons: 356.000000  magneticMoment: [ Abs: 32.04156  Tot: -0.00000 ]
	SubspaceRotationAdjust: set factor to 0.223
ElecMinimize: Iter: 122  F: -2150.263749075189025  |grad|_K:  3.762e-06  alpha:  6.112e-02  linmin: -2.058e-06  t[s]:  10204.64
	FillingsUpdate:  mu: +0.097989505  nElectrons: 356.000000  magneticMoment: [ Abs: 32.07366  Tot: -0.00000 ]
	SubspaceRotationAdjust: set factor to 0.25
ElecMinimize: Iter: 123  F: -2150.263909327688452  |grad|_K:  3.908e-06  alpha:  6.472e-02  linmin:  1.343e-05  t[s]:  10280.16
	FillingsUpdate:  mu: +0.098843627  nElectrons: 356.000000  magneticMoment: [ Abs: 32.11168  Tot: -0.00000 ]
	SubspaceRotationAdjust: set factor to 0.207
ElecMinimize: Iter: 124  F: -2150.264097496889008  |grad|_K:  4.641e-06  alpha:  7.070e-02  linmin: -5.747e-06  t[s]:  10358.07
	FillingsUpdate:  mu: +0.098735338  nElectrons: 356.000000  magneticMoment: [ Abs: 32.15420  Tot: -0.00000 ]
	SubspaceRotationAdjust: set factor to 0.238
ElecMinimize: Iter: 125  F: -2150.264320284327368  |grad|_K:  4.136e-06  alpha:  5.917e-02  linmin: -1.578e-05  t[s]:  10436.01
	FillingsUpdate:  mu: +0.098039429  nElectrons: 356.000000  magneticMoment: [ Abs: 32.18488  Tot: +0.00000 ]
	SubspaceRotationAdjust: set factor to 0.289
ElecMinimize: Iter: 126  F: -2150.264498872634704  |grad|_K:  3.718e-06  alpha:  5.942e-02  linmin: -6.173e-05  t[s]:  10510.83
	FillingsUpdate:  mu: +0.097352048  nElectrons: 356.000000  magneticMoment: [ Abs: 32.21574  Tot: +0.00000 ]
	SubspaceRotationAdjust: set factor to 0.286
ElecMinimize: Iter: 127  F: -2150.264697714502290  |grad|_K:  4.297e-06  alpha:  7.971e-02  linmin: -1.492e-04  t[s]:  10586.68
	FillingsUpdate:  mu: +0.097685058  nElectrons: 356.000000  magneticMoment: [ Abs: 32.25030  Tot: -0.00000 ]
	SubspaceRotationAdjust: set factor to 0.305
ElecMinimize: Iter: 128  F: -2150.264972921002936  |grad|_K:  4.129e-06  alpha:  8.210e-02  linmin:  1.213e-04  t[s]:  10663.83
	FillingsUpdate:  mu: +0.097796565  nElectrons: 356.000000  magneticMoment: [ Abs: 32.27527  Tot: +0.00000 ]
	SubspaceRotationAdjust: set factor to 0.38
ElecMinimize: Iter: 129  F: -2150.265143744606121  |grad|_K:  4.171e-06  alpha:  5.771e-02  linmin:  1.081e-05  t[s]:  10741.64
	FillingsUpdate:  mu: +0.098624039  nElectrons: 356.000000  magneticMoment: [ Abs: 32.31107  Tot: -0.00000 ]
	SubspaceRotationAdjust: set factor to 0.311
ElecMinimize: Iter: 130  F: -2150.265337207674293  |grad|_K:  5.287e-06  alpha:  6.406e-02  linmin:  9.477e-05  t[s]:  10820.73
	FillingsUpdate:  mu: +0.099688811  nElectrons: 356.000000  magneticMoment: [ Abs: 32.34885  Tot: -0.00000 ]
	SubspaceRotationAdjust: set factor to 0.276
ElecMinimize: Iter: 131  F: -2150.265560950413146  |grad|_K:  5.257e-06  alpha:  4.712e-02  linmin: -2.273e-05  t[s]:  10899.82
	FillingsUpdate:  mu: +0.099511201  nElectrons: 356.000000  magneticMoment: [ Abs: 32.37071  Tot: +0.00000 ]
	SubspaceRotationAdjust: set factor to 0.332
ElecMinimize: Iter: 132  F: -2150.265803253364084  |grad|_K:  4.746e-06  alpha:  4.968e-02  linmin: -9.299e-05  t[s]:  10978.11
	FillingsUpdate:  mu: +0.098664724  nElectrons: 356.000000  magneticMoment: [ Abs: 32.36861  Tot: -0.00000 ]
	SubspaceRotationAdjust: set factor to 0.343
ElecMinimize: Iter: 133  F: -2150.266015517541291  |grad|_K:  4.976e-06  alpha:  5.352e-02  linmin:  6.424e-04  t[s]:  11055.21
	FillingsUpdate:  mu: +0.098424452  nElectrons: 356.000000  magneticMoment: [ Abs: 32.36582  Tot: +0.00000 ]
	SubspaceRotationAdjust: set factor to 0.314
ElecMinimize: Iter: 134  F: -2150.266070550046607  |grad|_K:  5.216e-06  alpha:  1.076e-02  linmin: -1.255e-03  t[s]:  11130.94
	FillingsUpdate:  mu: +0.097679277  nElectrons: 356.000000  magneticMoment: [ Abs: 32.35839  Tot: +0.00000 ]
	SubspaceRotationAdjust: set factor to 0.228
ElecMinimize: Iter: 135  F: -2150.266189081578887  |grad|_K:  5.957e-06  alpha:  2.144e-02  linmin:  1.413e-03  t[s]:  11205.06
	FillingsUpdate:  mu: +0.097353168  nElectrons: 356.000000  magneticMoment: [ Abs: 32.35558  Tot: -0.00000 ]
	SubspaceRotationAdjust: set factor to 0.17
ElecMinimize: Iter: 136  F: -2150.266215170672240  |grad|_K:  5.757e-06  alpha:  6.612e-03  linmin:  1.482e-04  t[s]:  11283.59
	FillingsUpdate:  mu: +0.097035763  nElectrons: 356.000000  magneticMoment: [ Abs: 32.35297  Tot: -0.00000 ]
	SubspaceRotationAdjust: set factor to 0.128
	SubspaceRotationAdjust: resetting CG because factor has changed by 0.133514
ElecMinimize: 	State modified externally: resetting search direction.
ElecMinimize: Iter: 137  F: -2150.266284459205508  |grad|_K:  5.115e-06  alpha:  1.189e-02
ElecMinimize: 	Predicted alpha/alphaT>3.000000, increasing alphaT to 3.568489e-02.
ElecMinimize: 	Predicted alpha/alphaT>3.000000, increasing alphaT to 1.070547e-01.
	FillingsUpdate:  mu: +0.100034292  nElectrons: 356.000000  magneticMoment: [ Abs: 32.39763  Tot: +0.00000 ]
	SubspaceRotationAdjust: set factor to 0.114
ElecMinimize: Iter: 138  F: -2150.267246754345706  |grad|_K:  2.696e-06  alpha:  2.085e-01  linmin: -2.129e-03  t[s]:  11508.85
	FillingsUpdate:  mu: +0.101350371  nElectrons: 356.000000  magneticMoment: [ Abs: 32.41620  Tot: +0.00000 ]
	SubspaceRotationAdjust: set factor to 0.117
ElecMinimize: Iter: 139  F: -2150.267697302057513  |grad|_K:  2.115e-06  alpha:  3.485e-01  linmin:  2.321e-04  t[s]:  11583.36
	FillingsUpdate:  mu: +0.100504921  nElectrons: 356.000000  magneticMoment: [ Abs: 32.40875  Tot: -0.00000 ]
	SubspaceRotationAdjust: set factor to 0.137
ElecMinimize: Iter: 140  F: -2150.268121157452242  |grad|_K:  2.240e-06  alpha:  5.430e-01  linmin: -1.457e-04  t[s]:  11661.27
	FillingsUpdate:  mu: +0.100157978  nElectrons: 356.000000  magneticMoment: [ Abs: 32.41415  Tot: -0.00000 ]
	SubspaceRotationAdjust: set factor to 0.157
ElecMinimize: Iter: 141  F: -2150.268657629234895  |grad|_K:  2.682e-06  alpha:  6.089e-01  linmin:  5.536e-05  t[s]:  11737.92
	FillingsUpdate:  mu: +0.100228222  nElectrons: 356.000000  magneticMoment: [ Abs: 32.41166  Tot: -0.00000 ]
	SubspaceRotationAdjust: set factor to 0.174
ElecMinimize: Iter: 142  F: -2150.269259422784671  |grad|_K:  2.893e-06  alpha:  4.807e-01  linmin: -9.556e-06  t[s]:  11815.75
	FillingsUpdate:  mu: +0.100309357  nElectrons: 356.000000  magneticMoment: [ Abs: 32.39785  Tot: -0.00000 ]
	SubspaceRotationAdjust: set factor to 0.186
ElecMinimize: Iter: 143  F: -2150.269866908577114  |grad|_K:  3.058e-06  alpha:  4.141e-01  linmin:  4.677e-05  t[s]:  11891.48
	FillingsUpdate:  mu: +0.100790469  nElectrons: 356.000000  magneticMoment: [ Abs: 32.37465  Tot: -0.00000 ]
	SubspaceRotationAdjust: set factor to 0.186
ElecMinimize: Iter: 144  F: -2150.270548792548198  |grad|_K:  2.843e-06  alpha:  4.186e-01  linmin: -1.484e-04  t[s]:  11968.61
	FillingsUpdate:  mu: +0.100401031  nElectrons: 356.000000  magneticMoment: [ Abs: 32.32357  Tot: +0.00000 ]
	SubspaceRotationAdjust: set factor to 0.191
ElecMinimize: Iter: 145  F: -2150.271135982683063  |grad|_K:  2.615e-06  alpha:  4.099e-01  linmin: -5.500e-05  t[s]:  12045.44
	FillingsUpdate:  mu: +0.099899293  nElectrons: 356.000000  magneticMoment: [ Abs: 32.28829  Tot: +0.00000 ]
	SubspaceRotationAdjust: set factor to 0.195
ElecMinimize: Iter: 146  F: -2150.271568009690327  |grad|_K:  2.488e-06  alpha:  3.563e-01  linmin:  2.287e-04  t[s]:  12122.56
	FillingsUpdate:  mu: +0.099828140  nElectrons: 356.000000  magneticMoment: [ Abs: 32.25810  Tot: -0.00000 ]
	SubspaceRotationAdjust: set factor to 0.222
ElecMinimize: Iter: 147  F: -2150.271933215658009  |grad|_K:  2.000e-06  alpha:  3.444e-01  linmin: -1.000e-04  t[s]:  12199.88
	FillingsUpdate:  mu: +0.099619881  nElectrons: 356.000000  magneticMoment: [ Abs: 32.23647  Tot: -0.00000 ]
	SubspaceRotationAdjust: set factor to 0.266
ElecMinimize: Iter: 148  F: -2150.272193205026269  |grad|_K:  1.864e-06  alpha:  3.694e-01  linmin:  1.884e-04  t[s]:  12279.04
	FillingsUpdate:  mu: +0.100032126  nElectrons: 356.000000  magneticMoment: [ Abs: 32.23058  Tot: -0.00000 ]
	SubspaceRotationAdjust: set factor to 0.327
ElecMinimize: Iter: 149  F: -2150.272421845305416  |grad|_K:  1.826e-06  alpha:  3.809e-01  linmin: -8.708e-05  t[s]:  12356.86
	FillingsUpdate:  mu: +0.099864759  nElectrons: 356.000000  magneticMoment: [ Abs: 32.21326  Tot: -0.00000 ]
	SubspaceRotationAdjust: set factor to 0.381
ElecMinimize: Iter: 150  F: -2150.272664438942229  |grad|_K:  1.964e-06  alpha:  4.135e-01  linmin: -3.627e-05  t[s]:  12433.05
	FillingsUpdate:  mu: +0.099980369  nElectrons: 356.000000  magneticMoment: [ Abs: 32.21090  Tot: -0.00000 ]
	SubspaceRotationAdjust: set factor to 0.281
ElecMinimize: Iter: 151  F: -2150.272847649242976  |grad|_K:  2.484e-06  alpha:  2.628e-01  linmin: -6.644e-05  t[s]:  12510.59
	FillingsUpdate:  mu: +0.100313281  nElectrons: 356.000000  magneticMoment: [ Abs: 32.21136  Tot: +0.00000 ]
	SubspaceRotationAdjust: set factor to 0.228
ElecMinimize: Iter: 152  F: -2150.273001112435850  |grad|_K:  2.064e-06  alpha:  1.487e-01  linmin:  1.390e-04  t[s]:  12584.78
	FillingsUpdate:  mu: +0.099466974  nElectrons: 356.000000  magneticMoment: [ Abs: 32.19587  Tot: -0.00000 ]
	SubspaceRotationAdjust: set factor to 0.219
ElecMinimize: Iter: 153  F: -2150.273230189808601  |grad|_K:  2.184e-06  alpha:  3.341e-01  linmin:  1.001e-03  t[s]:  12662.09
	FillingsUpdate:  mu: +0.099961718  nElectrons: 356.000000  magneticMoment: [ Abs: 32.20017  Tot: +0.00000 ]
	SubspaceRotationAdjust: set factor to 0.277
ElecMinimize: Iter: 154  F: -2150.273450073929780  |grad|_K:  2.044e-06  alpha:  3.029e-01  linmin: -2.801e-05  t[s]:  12743.07
	FillingsUpdate:  mu: +0.100786869  nElectrons: 356.000000  magneticMoment: [ Abs: 32.20627  Tot: -0.00000 ]
	SubspaceRotationAdjust: set factor to 0.271
ElecMinimize: Iter: 155  F: -2150.273634616558411  |grad|_K:  1.955e-06  alpha:  2.561e-01  linmin: -2.879e-04  t[s]:  12821.24
	FillingsUpdate:  mu: +0.099992594  nElectrons: 356.000000  magneticMoment: [ Abs: 32.19281  Tot: +0.00000 ]
	SubspaceRotationAdjust: set factor to 0.239
ElecMinimize: Iter: 156  F: -2150.273791549921043  |grad|_K:  2.069e-06  alpha:  2.245e-01  linmin:  3.959e-04  t[s]:  12899.81
	FillingsUpdate:  mu: +0.100237764  nElectrons: 356.000000  magneticMoment: [ Abs: 32.19079  Tot: +0.00000 ]
	SubspaceRotationAdjust: set factor to 0.301
ElecMinimize: Iter: 157  F: -2150.273960815168266  |grad|_K:  1.805e-06  alpha:  2.342e-01  linmin: -3.355e-04  t[s]:  12975.96
	FillingsUpdate:  mu: +0.100681509  nElectrons: 356.000000  magneticMoment: [ Abs: 32.20062  Tot: -0.00000 ]
	SubspaceRotationAdjust: set factor to 0.335
ElecMinimize: Iter: 158  F: -2150.274136171057762  |grad|_K:  1.732e-06  alpha:  2.938e-01  linmin: -5.425e-04  t[s]:  13053.36
	FillingsUpdate:  mu: +0.099954252  nElectrons: 356.000000  magneticMoment: [ Abs: 32.19201  Tot: +0.00000 ]
	SubspaceRotationAdjust: set factor to 0.255
ElecMinimize: Iter: 159  F: -2150.274250409622709  |grad|_K:  2.039e-06  alpha:  2.009e-01  linmin:  2.831e-05  t[s]:  13132.64
	FillingsUpdate:  mu: +0.100064273  nElectrons: 356.000000  magneticMoment: [ Abs: 32.19323  Tot: +0.00000 ]
	SubspaceRotationAdjust: set factor to 0.349
ElecMinimize: Iter: 160  F: -2150.274369245798880  |grad|_K:  1.548e-06  alpha:  1.654e-01  linmin: -1.632e-04  t[s]:  13209.23
	FillingsUpdate:  mu: +0.100755538  nElectrons: 356.000000  magneticMoment: [ Abs: 32.20455  Tot: -0.00000 ]
	SubspaceRotationAdjust: set factor to 0.329
ElecMinimize: Iter: 161  F: -2150.274495452692008  |grad|_K:  1.804e-06  alpha:  2.877e-01  linmin: -7.474e-04  t[s]:  13284.68
	FillingsUpdate:  mu: +0.100536213  nElectrons: 356.000000  magneticMoment: [ Abs: 32.19854  Tot: -0.00000 ]
	SubspaceRotationAdjust: set factor to 0.276
ElecMinimize: Iter: 162  F: -2150.274579896260548  |grad|_K:  1.675e-06  alpha:  1.303e-01  linmin: -4.054e-04  t[s]:  13361.05
	FillingsUpdate:  mu: +0.100076723  nElectrons: 356.000000  magneticMoment: [ Abs: 32.19593  Tot: +0.00000 ]
	SubspaceRotationAdjust: set factor to 0.354
ElecMinimize: Iter: 163  F: -2150.274700371797280  |grad|_K:  1.579e-06  alpha:  2.364e-01  linmin:  7.034e-05  t[s]:  13441.02
	FillingsUpdate:  mu: +0.100745785  nElectrons: 356.000000  magneticMoment: [ Abs: 32.20822  Tot: -0.00000 ]
	SubspaceRotationAdjust: set factor to 0.331
ElecMinimize: Iter: 164  F: -2150.274778630148830  |grad|_K:  1.617e-06  alpha:  1.849e-01  linmin: -1.377e-04  t[s]:  13517.08
	FillingsUpdate:  mu: +0.101045649  nElectrons: 356.000000  magneticMoment: [ Abs: 32.21101  Tot: -0.00000 ]
	SubspaceRotationAdjust: set factor to 0.284
ElecMinimize: Iter: 165  F: -2150.274852282159372  |grad|_K:  1.353e-06  alpha:  1.574e-01  linmin:  9.243e-05  t[s]:  13595.41
	FillingsUpdate:  mu: +0.100442271  nElectrons: 356.000000  magneticMoment: [ Abs: 32.20554  Tot: -0.00000 ]
	SubspaceRotationAdjust: set factor to 0.326
ElecMinimize: Iter: 166  F: -2150.274933635002981  |grad|_K:  1.225e-06  alpha:  2.586e-01  linmin:  1.101e-04  t[s]:  13670.39
	FillingsUpdate:  mu: +0.100829308  nElectrons: 356.000000  magneticMoment: [ Abs: 32.21305  Tot: +0.00000 ]
	SubspaceRotationAdjust: set factor to 0.326
ElecMinimize: Iter: 167  F: -2150.274996152592848  |grad|_K:  1.252e-06  alpha:  2.424e-01  linmin: -1.450e-04  t[s]:  13745.44
	FillingsUpdate:  mu: +0.101029265  nElectrons: 356.000000  magneticMoment: [ Abs: 32.21492  Tot: +0.00000 ]
	SubspaceRotationAdjust: set factor to 0.27
ElecMinimize: Iter: 168  F: -2150.275041815989880  |grad|_K:  1.120e-06  alpha:  1.619e-01  linmin: -1.887e-06  t[s]:  13822.45
	FillingsUpdate:  mu: +0.100834836  nElectrons: 356.000000  magneticMoment: [ Abs: 32.21585  Tot: -0.00000 ]
	SubspaceRotationAdjust: set factor to 0.325
ElecMinimize: Iter: 169  F: -2150.275092717366988  |grad|_K:  8.924e-07  alpha:  2.319e-01  linmin: -2.905e-05  t[s]:  13900.34
	FillingsUpdate:  mu: +0.100830302  nElectrons: 356.000000  magneticMoment: [ Abs: 32.21834  Tot: +0.00000 ]
	SubspaceRotationAdjust: set factor to 0.376
ElecMinimize: Iter: 170  F: -2150.275132691708222  |grad|_K:  8.844e-07  alpha:  2.859e-01  linmin: -5.436e-05  t[s]:  13974.20
	FillingsUpdate:  mu: +0.100922752  nElectrons: 356.000000  magneticMoment: [ Abs: 32.22053  Tot: +0.00000 ]
	SubspaceRotationAdjust: set factor to 0.335
ElecMinimize: Iter: 171  F: -2150.275156163608244  |grad|_K:  9.191e-07  alpha:  1.692e-01  linmin: -3.280e-05  t[s]:  14049.36
	FillingsUpdate:  mu: +0.100973995  nElectrons: 356.000000  magneticMoment: [ Abs: 32.22767  Tot: +0.00000 ]
	SubspaceRotationAdjust: set factor to 0.385
ElecMinimize: Iter: 172  F: -2150.275185549564412  |grad|_K:  7.190e-07  alpha:  1.981e-01  linmin: -7.009e-05  t[s]:  14126.34
	FillingsUpdate:  mu: +0.100711904  nElectrons: 356.000000  magneticMoment: [ Abs: 32.23108  Tot: -0.00000 ]
	SubspaceRotationAdjust: set factor to 0.45
ElecMinimize: Iter: 173  F: -2150.275213225401785  |grad|_K:  7.456e-07  alpha:  3.048e-01  linmin:  4.368e-05  t[s]:  14201.24
	FillingsUpdate:  mu: +0.101151110  nElectrons: 356.000000  magneticMoment: [ Abs: 32.24290  Tot: +0.00000 ]
	SubspaceRotationAdjust: set factor to 0.451
ElecMinimize: Iter: 174  F: -2150.275235457724648  |grad|_K:  8.083e-07  alpha:  2.294e-01  linmin:  5.570e-06  t[s]:  14275.19
	FillingsUpdate:  mu: +0.100855232  nElectrons: 356.000000  magneticMoment: [ Abs: 32.24836  Tot: -0.00000 ]
	SubspaceRotationAdjust: set factor to 0.415
ElecMinimize: Iter: 175  F: -2150.275256242725391  |grad|_K:  8.693e-07  alpha:  1.821e-01  linmin: -4.235e-06  t[s]:  14357.04
	FillingsUpdate:  mu: +0.100579201  nElectrons: 356.000000  magneticMoment: [ Abs: 32.25237  Tot: +0.00000 ]
	SubspaceRotationAdjust: set factor to 0.352
ElecMinimize: Iter: 176  F: -2150.275274590817844  |grad|_K:  8.436e-07  alpha:  1.381e-01  linmin:  1.778e-05  t[s]:  14434.26
	FillingsUpdate:  mu: +0.100972883  nElectrons: 356.000000  magneticMoment: [ Abs: 32.27077  Tot: +0.00000 ]
	SubspaceRotationAdjust: set factor to 0.363
ElecMinimize: Iter: 177  F: -2150.275299855445610  |grad|_K:  7.323e-07  alpha:  2.031e-01  linmin: -3.868e-05  t[s]:  14512.64
	FillingsUpdate:  mu: +0.100850913  nElectrons: 356.000000  magneticMoment: [ Abs: 32.28375  Tot: -0.00000 ]
	SubspaceRotationAdjust: set factor to 0.406
ElecMinimize: Iter: 178  F: -2150.275328805379104  |grad|_K:  7.869e-07  alpha:  3.067e-01  linmin: -3.947e-06  t[s]:  14590.75
	FillingsUpdate:  mu: +0.100818003  nElectrons: 356.000000  magneticMoment: [ Abs: 32.29150  Tot: +0.00000 ]
	SubspaceRotationAdjust: set factor to 0.344
ElecMinimize: Iter: 179  F: -2150.275347391003379  |grad|_K:  9.431e-07  alpha:  1.688e-01  linmin: -4.707e-05  t[s]:  14667.52
	FillingsUpdate:  mu: +0.101020426  nElectrons: 356.000000  magneticMoment: [ Abs: 32.30977  Tot: +0.00000 ]
	SubspaceRotationAdjust: set factor to 0.35
ElecMinimize: Iter: 180  F: -2150.275375123454523  |grad|_K:  7.533e-07  alpha:  1.771e-01  linmin: -4.457e-05  t[s]:  14746.34
	FillingsUpdate:  mu: +0.100881215  nElectrons: 356.000000  magneticMoment: [ Abs: 32.32609  Tot: +0.00000 ]
	SubspaceRotationAdjust: set factor to 0.42
ElecMinimize: Iter: 181  F: -2150.275407907404315  |grad|_K:  7.943e-07  alpha:  3.296e-01  linmin:  6.225e-05  t[s]:  14822.77
	FillingsUpdate:  mu: +0.101097930  nElectrons: 356.000000  magneticMoment: [ Abs: 32.34203  Tot: -0.00000 ]
	SubspaceRotationAdjust: set factor to 0.342
ElecMinimize: Iter: 182  F: -2150.275438177176966  |grad|_K:  1.080e-06  alpha:  2.762e-01  linmin:  1.689e-05  t[s]:  14899.73
	FillingsUpdate:  mu: +0.101096675  nElectrons: 356.000000  magneticMoment: [ Abs: 32.35487  Tot: -0.00000 ]
	SubspaceRotationAdjust: set factor to 0.282
ElecMinimize: Iter: 183  F: -2150.275462534048529  |grad|_K:  9.506e-07  alpha:  1.194e-01  linmin: -1.841e-05  t[s]:  14977.77
	FillingsUpdate:  mu: +0.100720247  nElectrons: 356.000000  magneticMoment: [ Abs: 32.37082  Tot: +0.00000 ]
	SubspaceRotationAdjust: set factor to 0.34
ElecMinimize: Iter: 184  F: -2150.275506892851809  |grad|_K:  9.718e-07  alpha:  2.855e-01  linmin:  2.296e-04  t[s]:  15052.84
	FillingsUpdate:  mu: +0.101038090  nElectrons: 356.000000  magneticMoment: [ Abs: 32.39195  Tot: +0.00000 ]
	SubspaceRotationAdjust: set factor to 0.352
ElecMinimize: Iter: 185  F: -2150.275545451463131  |grad|_K:  1.121e-06  alpha:  2.435e-01  linmin: -4.656e-05  t[s]:  15129.23
	FillingsUpdate:  mu: +0.101110388  nElectrons: 356.000000  magneticMoment: [ Abs: 32.40935  Tot: +0.00000 ]
	SubspaceRotationAdjust: set factor to 0.306
ElecMinimize: Iter: 186  F: -2150.275579707504221  |grad|_K:  1.123e-06  alpha:  1.536e-01  linmin: -1.199e-05  t[s]:  15206.14
	FillingsUpdate:  mu: +0.100669624  nElectrons: 356.000000  magneticMoment: [ Abs: 32.41943  Tot: -0.00000 ]
	SubspaceRotationAdjust: set factor to 0.331
ElecMinimize: Iter: 187  F: -2150.275626143795762  |grad|_K:  1.064e-06  alpha:  2.127e-01  linmin:  1.810e-04  t[s]:  15281.72
	FillingsUpdate:  mu: +0.100990784  nElectrons: 356.000000  magneticMoment: [ Abs: 32.43467  Tot: -0.00000 ]
	SubspaceRotationAdjust: set factor to 0.397
ElecMinimize: Iter: 188  F: -2150.275678427016828  |grad|_K:  1.138e-06  alpha:  2.729e-01  linmin:  4.359e-06  t[s]:  15360.82
	FillingsUpdate:  mu: +0.101140010  nElectrons: 356.000000  magneticMoment: [ Abs: 32.44692  Tot: -0.00000 ]
	SubspaceRotationAdjust: set factor to 0.331
ElecMinimize: Iter: 189  F: -2150.275719413635670  |grad|_K:  1.378e-06  alpha:  1.776e-01  linmin: -1.539e-05  t[s]:  15439.24
	FillingsUpdate:  mu: +0.100963479  nElectrons: 356.000000  magneticMoment: [ Abs: 32.45169  Tot: +0.00000 ]
	SubspaceRotationAdjust: set factor to 0.403
[...]
	FillingsUpdate:  mu: +0.103355084  nElectrons: 356.000000  magneticMoment: [ Abs: 31.38324  Tot: -0.00000 ]
	SubspaceRotationAdjust: set factor to 0.407
ElecMinimize: Iter:  11  F: -2150.329706346677540  |grad|_K:  1.963e-07  alpha:  2.200e-01  linmin:  4.164e-06  t[s]: 103115.77
	FillingsUpdate:  mu: +0.103284361  nElectrons: 356.000000  magneticMoment: [ Abs: 31.38304  Tot: -0.00000 ]
	SubspaceRotationAdjust: set factor to 0.473
ElecMinimize: Iter:  12  F: -2150.329708726242643  |grad|_K:  1.474e-07  alpha:  3.532e-01  linmin: -1.288e-06  t[s]: 103194.89
	FillingsUpdate:  mu: +0.103385030  nElectrons: 356.000000  magneticMoment: [ Abs: 31.38398  Tot: -0.00000 ]
	SubspaceRotationAdjust: set factor to 0.45
ElecMinimize: Iter:  13  F: -2150.329709807178915  |grad|_K:  1.224e-07  alpha:  2.843e-01  linmin: -1.450e-06  t[s]: 103272.47
	FillingsUpdate:  mu: +0.103320071  nElectrons: 356.000000  magneticMoment: [ Abs: 31.38303  Tot: -0.00000 ]
	SubspaceRotationAdjust: set factor to 0.423
ElecMinimize: Iter:  14  F: -2150.329710522561072  |grad|_K:  9.370e-08  alpha:  2.729e-01  linmin:  1.080e-06  t[s]: 103348.76
	FillingsUpdate:  mu: +0.103348758  nElectrons: 356.000000  magneticMoment: [ Abs: 31.38329  Tot: +0.00000 ]
	SubspaceRotationAdjust: set factor to 0.504
ElecMinimize: Iter:  15  F: -2150.329711025758115  |grad|_K:  7.216e-08  alpha:  3.278e-01  linmin: -3.409e-06  t[s]: 103423.90
	FillingsUpdate:  mu: +0.103374431  nElectrons: 356.000000  magneticMoment: [ Abs: 31.38359  Tot: +0.00000 ]
	SubspaceRotationAdjust: set factor to 0.58
ElecMinimize: Iter:  16  F: -2150.329711358401255  |grad|_K:  6.621e-08  alpha:  3.650e-01  linmin:  2.600e-06  t[s]: 103502.57
	FillingsUpdate:  mu: +0.103318700  nElectrons: 356.000000  magneticMoment: [ Abs: 31.38300  Tot: -0.00000 ]
	SubspaceRotationAdjust: set factor to 0.569
ElecMinimize: Iter:  17  F: -2150.329711593227330  |grad|_K:  6.769e-08  alpha:  3.065e-01  linmin: -4.073e-06  t[s]: 103583.09
	FillingsUpdate:  mu: +0.103360455  nElectrons: 356.000000  magneticMoment: [ Abs: 31.38354  Tot: -0.00000 ]
	SubspaceRotationAdjust: set factor to 0.563
ElecMinimize: Iter:  18  F: -2150.329711824608694  |grad|_K:  6.325e-08  alpha:  2.887e-01  linmin:  4.036e-06  t[s]: 103661.73
ElecMinimize: Converged (|Delta F|<1.000000e-06 for 5 iters).
Setting wave functions to eigenvectors of Hamiltonian

# Ionic positions in lattice coordinates:
ion Ni   0.001034390279510   0.001983357064961   0.154126642634894 1
ion Ni   0.008634926140291   0.510651041854182   0.156042154777249 1
ion Ni   0.250758630255728   0.748406118295227   0.054041391396850 1
ion Ni   0.500000000000000   0.000000000000000  -0.050000000000000 0
ion Ni   0.250000000000000   0.250000000000000  -0.150000000000000 0
ion Ni   0.250000000000000   0.750000000000000  -0.150000000000000 0
ion Ni  -0.250000000000000   0.250000000000000  -0.150000000000000 0
ion Ni  -0.250000000000000   0.750000000000000  -0.150000000000000 0
ion V   0.488399404714304   0.001125986815659   0.154326715548702 1
ion V   0.250350125099469   0.250983926858576   0.054553821623520 1
ion V  -0.244328057436134   0.742688098637938   0.055952997352618 1
ion V   0.000000000000000   0.000000000000000  -0.050000000000000 0
ion V   0.000000000000000   0.500000000000000  -0.050000000000000 0
ion V   0.500000000000000   0.500000000000000  -0.050000000000000 0
ion Co   0.490601712932453   0.503294248084380   0.156538677699916 1
ion Cr  -0.248220320486020   0.245715659011739   0.053921629943115 1
ion O   0.277164414569373   0.254284722822618   0.154874966057373 1
ion O   0.255708830110856   0.765735189876625   0.148908241363711 1
ion O  -0.256434073008770   0.240839181465230   0.147438978600253 1
ion O  -0.287383152997492   0.749056772095764   0.146381485855418 1
ion O  -0.018100617415010   0.006581641948584   0.055264871604219 1
ion O   0.523329680354938   0.005398637603439   0.056148997254642 1
ion O  -0.024311576154864   0.491923775955448   0.048414138432483 1
ion O   0.523847527576791   0.485083764002538   0.048931574737187 1
ion O   0.250000000000000   0.250000000000000  -0.050000000000000 0
ion O   0.250000000000000   0.750000000000000  -0.050000000000000 0
ion O  -0.250000000000000   0.250000000000000  -0.050000000000000 0
ion O  -0.250000000000000   0.750000000000000  -0.050000000000000 0
ion O   0.000000000000000   0.000000000000000  -0.150000000000000 0
ion O   0.500000000000000   0.000000000000000  -0.150000000000000 0
ion O   0.000000000000000   0.500000000000000  -0.150000000000000 0
ion O   0.500000000000000   0.500000000000000  -0.150000000000000 0
ion O  -0.009891918785741  -0.017228662485861   0.239730172121226 1
ion H   0.016395135932256   0.130280069763541   0.255463781831324 1

# Forces in Lattice coordinates:
force Ni   0.002406886418227  -0.000341619140205  -0.043046981819494 1
force Ni  -0.001435330839223   0.003587190169550   0.014205104423862 1
force Ni  -0.000496043116637  -0.005842724111603  -0.051144110445271 1
force Ni  -0.044796291761737  -0.033375359670392  -0.553322401712219 0
force Ni   0.018352822861019  -0.036725683325415   0.052611990251544 0
force Ni   0.019781737303803   0.034656386226414   0.072648220796159 0
force Ni  -0.032852364774316  -0.039630804423218  -0.050273765154449 0
force Ni  -0.038392658033016   0.034318218806325  -0.022792171261264 0
force V  -0.001750314671955   0.001855517825137  -0.025266534555730 1
force V  -0.003585215417158   0.000523748006477  -0.020341206401060 1
force V   0.001675311737521   0.001775798690742  -0.039353145531581 1
force V   0.069632987545613  -0.017529562828339  -0.483266547756568 0
force V   0.043769659278021   0.026471280702428  -0.695872114097187 0
force V  -0.065923553293331   0.029082784927113  -0.833252443374358 0
force Co   0.003378841015694  -0.001064451280579  -0.024691615367140 1
force Cr   0.003174635357863   0.006274300763014  -0.030824822958943 1
force O   0.005047411602250  -0.007885264872879  -0.012517976891381 1
force O   0.005276509115059   0.006007709974205   0.042340203406336 1
force O  -0.006684910762089  -0.007546369908462  -0.003469176750936 1
force O  -0.004854962420933   0.001985565939054  -0.002314432689580 1
force O  -0.000394627159231   0.007901574506563   0.023196539782646 1
force O   0.002066626823017  -0.000539635779028  -0.004634688403510 1
force O  -0.004569137542612  -0.006057575792419   0.005981848311169 1
force O   0.000973668491846  -0.001724619003231  -0.012942041163682 1
force O  -0.002713230523450  -0.042656586580346   0.188379398849739 0
force O  -0.018987780674945   0.062293879948968   0.205423301931456 0
force O  -0.000314667756763  -0.064654685483091   0.567238709272245 0
force O  -0.022193314965468   0.043817730523345   0.694909400374717 0
force O   0.046631571034401   0.010613787211188   0.196004741524860 0
force O  -0.010015036856546   0.010835580877581   0.207902364533298 0
force O   0.032371467410225  -0.008544695751841   0.139160572419883 0
force O   0.020954060661793  -0.001608146751210   0.371282113027107 0
force O   0.011925916441958   0.022898224881438   0.037854941182465 1
force H  -0.010290624427899  -0.015754559539741  -0.027030306519331 1

# Energy components:
   Eewald =     5478.1388557900381784
       EH =     7413.5758553720334021
     Eloc =   -15190.8572175938752480
      Enl =     -578.7574937396141195
   Epulay =       -0.0004913455400888
      Exc =     -256.5040381951775430
       KE =      982.4610977301227877
        U =        1.6145349988179816
-------------------------------------
     Etot =    -2150.3288969831937720
       TS =        0.0008148414151174
-------------------------------------
        F =    -2150.3297118246086939

IonicMinimize: Iter:  22  F: -2150.329711824608694  |grad|_K:  6.109e-04  alpha:  1.000e+00  linmin: -8.179e-03  t[s]: 103672.96

#--- Lowdin population analysis ---
# oxidation-state Ni +3.517 +3.511 +3.199 +3.476 +3.789 +3.788 +3.798 +3.774
# magnetic-moments Ni -0.063 +0.747 +0.659 +0.932 +0.992 +0.992 -1.005 -0.983
# oxidation-state V +1.358 +1.007 +1.244 +1.071 +1.052 +1.073
# magnetic-moments V -2.049 +2.897 -2.076 -2.664 -2.621 +2.629
# oxidation-state Co +1.238
# magnetic-moments Co -2.663
# oxidation-state Cr +2.886
# magnetic-moments Cr +3.119
# oxidation-state O -0.869 -0.769 -0.775 -0.819 -0.797 -0.795 -0.819 -0.854 -0.845 -0.807 -0.830 -0.849 -0.716 -0.659 -0.726 -0.712 -0.686
# magnetic-moments O -0.061 +0.162 +0.007 +0.007 -0.022 +0.032 +0.009 -0.070 +0.144 +0.197 +0.014 +0.032 +0.075 +0.179 +0.059 -0.087 -0.104
# oxidation-state H +0.373
# magnetic-moments H +0.002


-------- Electronic minimization -----------
	FillingsUpdate:  mu: +0.110346110  nElectrons: 356.000000  magneticMoment: [ Abs: 31.37992  Tot: +0.00000 ]
ElecMinimize: Iter:   0  F: -2150.299552213366042  |grad|_K:  2.814e-05  alpha:  1.000e+00
	FillingsUpdate:  mu: +0.102728811  nElectrons: 356.000000  magneticMoment: [ Abs: 31.37069  Tot: -0.00000 ]
	SubspaceRotationAdjust: set factor to 0.614
ElecMinimize: Iter:   1  F: -2150.326505693147737  |grad|_K:  7.206e-06  alpha:  1.950e-01  linmin:  2.560e-04  t[s]: 103776.33
	FillingsUpdate:  mu: +0.103367469  nElectrons: 356.000000  magneticMoment: [ Abs: 31.39794  Tot: +0.00000 ]
	SubspaceRotationAdjust: set factor to 0.679
ElecMinimize: Iter:   2  F: -2150.328794332443977  |grad|_K:  3.243e-06  alpha:  2.524e-01  linmin: -1.019e-04  t[s]: 103856.55
	FillingsUpdate:  mu: +0.100909114  nElectrons: 356.000000  magneticMoment: [ Abs: 31.36188  Tot: -0.00000 ]
	SubspaceRotationAdjust: set factor to 0.474
ElecMinimize: Iter:   3  F: -2150.329237550311063  |grad|_K:  3.129e-06  alpha:  2.403e-01  linmin:  3.543e-04  t[s]: 103933.10
	FillingsUpdate:  mu: +0.103633194  nElectrons: 356.000000  magneticMoment: [ Abs: 31.38698  Tot: +0.00000 ]
	SubspaceRotationAdjust: set factor to 0.383
ElecMinimize: Iter:   4  F: -2150.329526549416642  |grad|_K:  1.565e-06  alpha:  1.726e-01  linmin: -3.343e-05  t[s]: 104009.49
	FillingsUpdate:  mu: +0.103234660  nElectrons: 356.000000  magneticMoment: [ Abs: 31.38822  Tot: -0.00000 ]
	SubspaceRotationAdjust: set factor to 0.489
ElecMinimize: Iter:   5  F: -2150.329675971362121  |grad|_K:  9.778e-07  alpha:  3.483e-01  linmin:  7.129e-07  t[s]: 104087.15
	FillingsUpdate:  mu: +0.102615106  nElectrons: 356.000000  magneticMoment: [ Abs: 31.37923  Tot: +0.00000 ]
	SubspaceRotationAdjust: set factor to 0.434
ElecMinimize: Iter:   6  F: -2150.329733884900179  |grad|_K:  7.096e-07  alpha:  3.464e-01  linmin:  2.802e-05  t[s]: 104160.07
	FillingsUpdate:  mu: +0.103286139  nElectrons: 356.000000  magneticMoment: [ Abs: 31.38609  Tot: +0.00000 ]
	SubspaceRotationAdjust: set factor to 0.29
ElecMinimize: Iter:   7  F: -2150.329750926853649  |grad|_K:  4.474e-07  alpha:  1.948e-01  linmin:  2.760e-05  t[s]: 104238.92
	FillingsUpdate:  mu: +0.103065918  nElectrons: 356.000000  magneticMoment: [ Abs: 31.38431  Tot: +0.00000 ]
	SubspaceRotationAdjust: set factor to 0.339
ElecMinimize: Iter:   8  F: -2150.329762674713038  |grad|_K:  2.592e-07  alpha:  3.363e-01  linmin:  5.400e-06  t[s]: 104312.01
	FillingsUpdate:  mu: +0.103024096  nElectrons: 356.000000  magneticMoment: [ Abs: 31.38270  Tot: -0.00000 ]
	SubspaceRotationAdjust: set factor to 0.354
ElecMinimize: Iter:   9  F: -2150.329766502115035  |grad|_K:  1.837e-07  alpha:  3.260e-01  linmin:  2.004e-06  t[s]: 104392.48
	FillingsUpdate:  mu: +0.103146855  nElectrons: 356.000000  magneticMoment: [ Abs: 31.38365  Tot: -0.00000 ]
	SubspaceRotationAdjust: set factor to 0.338
ElecMinimize: Iter:  10  F: -2150.329768324661472  |grad|_K:  1.286e-07  alpha:  3.089e-01  linmin: -5.104e-07  t[s]: 104470.07
	FillingsUpdate:  mu: +0.103056320  nElectrons: 356.000000  magneticMoment: [ Abs: 31.38301  Tot: -0.00000 ]
	SubspaceRotationAdjust: set factor to 0.353
ElecMinimize: Iter:  11  F: -2150.329769327089707  |grad|_K:  9.457e-08  alpha:  3.464e-01  linmin:  9.815e-07  t[s]: 104549.34
	FillingsUpdate:  mu: +0.103085981  nElectrons: 356.000000  magneticMoment: [ Abs: 31.38287  Tot: +0.00000 ]
	SubspaceRotationAdjust: set factor to 0.406
ElecMinimize: Iter:  12  F: -2150.329769919019327  |grad|_K:  7.423e-08  alpha:  3.785e-01  linmin:  2.221e-06  t[s]: 104629.54
	FillingsUpdate:  mu: +0.103101744  nElectrons: 356.000000  magneticMoment: [ Abs: 31.38288  Tot: +0.00000 ]
	SubspaceRotationAdjust: set factor to 0.476
ElecMinimize: Iter:  13  F: -2150.329770274005568  |grad|_K:  5.981e-08  alpha:  3.685e-01  linmin: -4.457e-06  t[s]: 104709.08
	FillingsUpdate:  mu: +0.103067007  nElectrons: 356.000000  magneticMoment: [ Abs: 31.38251  Tot: +0.00000 ]
	SubspaceRotationAdjust: set factor to 0.521
ElecMinimize: Iter:  14  F: -2150.329770510736125  |grad|_K:  5.411e-08  alpha:  3.779e-01  linmin: -3.246e-06  t[s]: 104788.87
	FillingsUpdate:  mu: +0.103110464  nElectrons: 356.000000  magneticMoment: [ Abs: 31.38276  Tot: -0.00000 ]
	SubspaceRotationAdjust: set factor to 0.515
ElecMinimize: Iter:  15  F: -2150.329770680898037  |grad|_K:  5.040e-08  alpha:  3.324e-01  linmin: -3.200e-06  t[s]: 104865.69
	FillingsUpdate:  mu: +0.103069716  nElectrons: 356.000000  magneticMoment: [ Abs: 31.38220  Tot: +0.00000 ]
	SubspaceRotationAdjust: set factor to 0.491
ElecMinimize: Iter:  16  F: -2150.329770839996399  |grad|_K:  5.161e-08  alpha:  3.581e-01  linmin:  1.197e-05  t[s]: 104942.29
ElecMinimize: Converged (|Delta F|<1.000000e-06 for 5 iters).
Setting wave functions to eigenvectors of Hamiltonian

# Ionic positions in lattice coordinates:
ion Ni   0.000899456568853   0.002140010963981   0.154185315236192 1
ion Ni   0.008418722090214   0.510567495259526   0.156144071526188 1
ion Ni   0.250630671434751   0.748319769000993   0.054036228388522 1
ion Ni   0.500000000000000   0.000000000000000  -0.050000000000000 0
ion Ni   0.250000000000000   0.250000000000000  -0.150000000000000 0
ion Ni   0.250000000000000   0.750000000000000  -0.150000000000000 0
ion Ni  -0.250000000000000   0.250000000000000  -0.150000000000000 0
ion Ni  -0.250000000000000   0.750000000000000  -0.150000000000000 0
ion V   0.488026308858910   0.001398245182692   0.154414799289106 1
ion V   0.250179671353283   0.251185917496275   0.054553956443939 1
ion V  -0.244478594018523   0.743008561665655   0.055921559435456 1
ion V   0.000000000000000   0.000000000000000  -0.050000000000000 0
ion V   0.000000000000000   0.500000000000000  -0.050000000000000 0
ion V   0.500000000000000   0.500000000000000  -0.050000000000000 0
ion Co   0.490590830174463   0.503450080931654   0.156504446042529 1
ion Cr  -0.248346656689308   0.245970335357364   0.053874590536449 1
ion O   0.277376920552054   0.254351778816458   0.154857359239641 1
ion O   0.255545648661820   0.766241550921845   0.149225836731275 1
ion O  -0.256472010380340   0.240479907747936   0.147553880062625 1
ion O  -0.288006359381206   0.748971753530918   0.146394531059249 1
ion O  -0.018200432160717   0.007012643981421   0.055426697067888 1
ion O   0.523424244994036   0.005609909451322   0.056185406164432 1
ion O  -0.024399700746069   0.491796265628941   0.048539064164466 1
ion O   0.523871907797045   0.484941412398559   0.048917616267597 1
ion O   0.250000000000000   0.250000000000000  -0.050000000000000 0
ion O   0.250000000000000   0.750000000000000  -0.050000000000000 0
ion O  -0.250000000000000   0.250000000000000  -0.050000000000000 0
ion O  -0.250000000000000   0.750000000000000  -0.050000000000000 0
ion O   0.000000000000000   0.000000000000000  -0.150000000000000 0
ion O   0.500000000000000   0.000000000000000  -0.150000000000000 0
ion O   0.000000000000000   0.500000000000000  -0.150000000000000 0
ion O   0.500000000000000   0.500000000000000  -0.150000000000000 0
ion O  -0.009703469724840  -0.016555711001561   0.239869210661200 1
ion H   0.010761463455397   0.131969113240329   0.255513253330597 1

# Forces in Lattice coordinates:
force Ni  -0.006839868342809   0.009028232064474  -0.001453626283986 1
force Ni  -0.004587465059332   0.003700921554063   0.018104649912665 1
force Ni  -0.006080042006582  -0.003385929993841   0.014828798258578 1
force Ni  -0.045604692250331  -0.034375529708835  -0.572749338679575 0
force Ni   0.019605816047321  -0.038227290329141   0.052568346553534 0
force Ni   0.021163434460095   0.036154448334358   0.073658367515529 0
force Ni  -0.034198064808702  -0.040870699674852  -0.050763108395387 0
force Ni  -0.039746234519315   0.035681202758781  -0.023492088634671 0
force V   0.002128701347871  -0.002385234312905  -0.019978903838703 1
force V  -0.001658812258503  -0.002139280515667  -0.013535708569382 1
force V   0.002182434212861  -0.000197445313480  -0.004549355541283 1
force V   0.069770615770982  -0.017288119020332  -0.488245419265181 0
force V   0.043345798256542   0.026238688744719  -0.694866869389699 0
force V  -0.066271141309004   0.028984886030163  -0.844240882899010 0
force Co  -0.000309217732192  -0.004049458428543   0.026181643872309 1
force Cr   0.004931239839167  -0.001320047204070   0.016142089403671 1
force O   0.000960814093020  -0.002215244607989  -0.016069296442932 1
force O   0.001821356472564   0.002028639473478  -0.002213189346009 1
force O  -0.004618673594716  -0.003143572913046  -0.023298988561976 1
force O   0.001196166522419   0.003259883618605  -0.011296989696607 1
force O   0.000390298376181   0.002959823802914  -0.003277060743497 1
force O  -0.001777052239823  -0.002574977598790  -0.009462848295855 1
force O  -0.003788940458454  -0.000979248887758  -0.014223296707677 1
force O  -0.000685310802905   0.003539083999204  -0.018983242510342 1
force O  -0.002860376805211  -0.042750247944700   0.186283918558686 0
force O  -0.019024896590178   0.062430870078350   0.205233855686265 0
force O  -0.000222430295355  -0.064427198586528   0.566595704876499 0
force O  -0.022290328211569   0.044337554154728   0.695823302194532 0
force O   0.043906157349779   0.009779670323631   0.196281359551190 0
force O  -0.006878791932724   0.009610308661502   0.202102704454284 0
force O   0.026873720922229  -0.007296843788258   0.139299809141196 0
force O   0.025629625940935  -0.000655372083010   0.370209949341145 0
force O   0.010652044129556   0.023055901879324   0.019475893060424 1
force H  -0.007131438888584  -0.014840280822292  -0.028349506755314 1

# Energy components:
   Eewald =     5476.0859548239914147
       EH =     7411.4729505746390714
     Eloc =   -15186.6992528138416674
      Enl =     -578.7561737134718669
   Epulay =       -0.0004913455400888
      Exc =     -256.5026941810567109
       KE =      982.4562623108489561
        U =        1.6144879460772337
-------------------------------------
     Etot =    -2150.3289563983544213
       TS =        0.0008144416418071
-------------------------------------
        F =    -2150.3297708399963994

IonicMinimize: Iter:  23  F: -2150.329770839996399  |grad|_K:  4.854e-04  alpha:  1.000e+00  linmin: -8.738e-03  t[s]: 104953.80
IonicMinimize: Converged (|Delta F|<1.000000e-04 for 3 iters).

#--- Lowdin population analysis ---
# oxidation-state Ni +3.517 +3.512 +3.200 +3.476 +3.790 +3.789 +3.799 +3.775
# magnetic-moments Ni -0.063 +0.747 +0.660 +0.932 +0.992 +0.992 -1.006 -0.984
# oxidation-state V +1.358 +1.007 +1.245 +1.071 +1.051 +1.070
# magnetic-moments V -2.048 +2.897 -2.076 -2.665 -2.622 +2.632
# oxidation-state Co +1.238
# magnetic-moments Co -2.663
# oxidation-state Cr +2.886
# magnetic-moments Cr +3.118
# oxidation-state O -0.868 -0.769 -0.775 -0.820 -0.797 -0.796 -0.819 -0.854 -0.845 -0.807 -0.830 -0.849 -0.715 -0.658 -0.725 -0.712 -0.685
# magnetic-moments O -0.060 +0.160 +0.006 +0.007 -0.022 +0.032 +0.009 -0.070 +0.144 +0.197 +0.014 +0.032 +0.075 +0.179 +0.059 -0.087 -0.104
# oxidation-state H +0.373
# magnetic-moments H +0.002


Dumping 'run.ionpos' ... done
Dumping 'run.lattice' ... done
Dumping 'run.Ecomponents' ... done
End date and time: Sun May 18 16:46:04 2025  (Duration: 1-5:09:17.02)
Done!
