/var/spool/slurmd/job44143/slurm_script: line 9: module: command not found
/var/spool/slurmd/job44143/slurm_script: line 10: module: command not found

*************** JDFTx 1.7.0  ***************

Start date and time: Thu May  8 19:50:34 2025
Executable /data2/jt577/jdftx_eat_withLibXC/build/jdftx with command-line: -i /data2/jt577/May_2025/Relax_Mag/rel11+1_6/OH/runs/calc_/run.in
Running on hosts (process indices):  node3402 (0-8)
Divided in process groups (process indices):  0 (0)  1 (1)  2 (2)  3 (3)  4 (4)  5 (5)  6 (6)  7 (7)  8 (8)
Resource initialization completed at t[s]:      0.00
Run totals: 9 processes, 90 threads, 0 GPUs


Input parsed successfully to the following command list (including defaults):

add-mix 
add-U 	Ni d 0.22 \
	V d 0.12 \
	Co d 0.2 \
	Cr d 0.16
basis kpoint-dependent
coords-type Lattice
core-overlap-check vector
coulomb-interaction Periodic
davidson-band-ratio 1.1
dump End IonicPositions Lattice Ecomponents
dump-name run.$VAR
elec-cutoff 30
elec-eigen-algo Davidson
elec-ex-corr gga-x-rpbe gga-c-pbe
elec-smearing Fermi 0.001
electronic-minimize  \
	dirUpdateScheme      FletcherReeves \
	linminMethod         DirUpdateRecommended \
	nIterations          1000 \
	history              15 \
	knormThreshold       0 \
	energyDiffThreshold  1e-06 \
	nEnergyDiff          5 \
	alphaTstart          1 \
	alphaTmin            1e-10 \
	updateTestStepSize   yes \
	alphaTreduceFactor   0.1 \
	alphaTincreaseFactor 3 \
	nAlphaAdjustMax      3 \
	wolfeEnergy          0.0001 \
	wolfeGradient        0.9 \
	fdTest               no
exchange-regularization WignerSeitzTruncated
fluid None
fluid-ex-corr (null) lda-PZ
fluid-gummel-loop 10 1.000000e-05
fluid-minimize  \
	dirUpdateScheme      PolakRibiere \
	linminMethod         DirUpdateRecommended \
	nIterations          100 \
	history              15 \
	knormThreshold       0 \
	energyDiffThreshold  0 \
	nEnergyDiff          2 \
	alphaTstart          1 \
	alphaTmin            1e-10 \
	updateTestStepSize   yes \
	alphaTreduceFactor   0.1 \
	alphaTincreaseFactor 3 \
	nAlphaAdjustMax      3 \
	wolfeEnergy          0.0001 \
	wolfeGradient        0.9 \
	fdTest               no
fluid-solvent H2O 55.338 ScalarEOS \
	epsBulk 78.4 \
	pMol 0.92466 \
	epsInf 1.77 \
	Pvap 1.06736e-10 \
	sigmaBulk 4.62e-05 \
	Rvdw 2.61727 \
	Res 1.42 \
	tauNuc 343133 \
	poleEl 15 7 1
forces-output-coords Positions
initial-magnetic-moments  \
	Ni 1 1 1 1 -1 -1 1 1 \
	V -1 1 -1 -1 -1 1 \
	Co -1 \
	Cr -1
initial-state run.$VAR
ion Ni  0.000000000000000   0.000000000000000   0.150000000000000 1
ion Ni  0.000000000000000   0.500000000000000   0.150000000000000 1
ion Ni  0.250000000000000   0.750000000000000   0.050000000000000 1
ion Ni  0.500000000000000   0.000000000000000  -0.050000000000000 0
ion Ni  0.250000000000000   0.250000000000000  -0.150000000000000 0
ion Ni  0.250000000000000   0.750000000000000  -0.150000000000000 0
ion Ni -0.250000000000000   0.250000000000000  -0.150000000000000 0
ion Ni -0.250000000000000   0.750000000000000  -0.150000000000000 0
ion V  0.500000000000000   0.000000000000000   0.150000000000000 1
ion V  0.250000000000000   0.250000000000000   0.050000000000000 1
ion V -0.250000000000000   0.750000000000000   0.050000000000000 1
ion V  0.000000000000000   0.000000000000000  -0.050000000000000 0
ion V  0.000000000000000   0.500000000000000  -0.050000000000000 0
ion V  0.500000000000000   0.500000000000000  -0.050000000000000 0
ion Co  0.500000000000000   0.500000000000000   0.150000000000000 1
ion Cr -0.250000000000000   0.250000000000000   0.050000000000000 1
ion O  0.250000000000000   0.250000000000000   0.150000000000000 1
ion O  0.250000000000000   0.750000000000000   0.150000000000000 1
ion O -0.250000000000000   0.250000000000000   0.150000000000000 1
ion O -0.250000000000000   0.750000000000000   0.150000000000000 1
ion O  0.000000000000000   0.000000000000000   0.050000000000000 1
ion O  0.500000000000000   0.000000000000000   0.050000000000000 1
ion O  0.000000000000000   0.500000000000000   0.050000000000000 1
ion O  0.500000000000000   0.500000000000000   0.050000000000000 1
ion O  0.250000000000000   0.250000000000000  -0.050000000000000 0
ion O  0.250000000000000   0.750000000000000  -0.050000000000000 0
ion O -0.250000000000000   0.250000000000000  -0.050000000000000 0
ion O -0.250000000000000   0.750000000000000  -0.050000000000000 0
ion O  0.000000000000000   0.000000000000000  -0.150000000000000 0
ion O  0.500000000000000   0.000000000000000  -0.150000000000000 0
ion O  0.000000000000000   0.500000000000000  -0.150000000000000 0
ion O  0.500000000000000   0.500000000000000  -0.150000000000000 0
ion O -0.008040138212305  -0.008269777577920   0.235000196603227 1
ion H  0.095742872057713   0.094897636790041   0.252810710255288 1
ion-species SG15/$ID_ONCV_PBE.upf
ion-width 0
ionic-minimize  \
	dirUpdateScheme      L-BFGS \
	linminMethod         DirUpdateRecommended \
	nIterations          1000 \
	history              15 \
	knormThreshold       0.0001 \
	energyDiffThreshold  0.0001 \
	nEnergyDiff          3 \
	alphaTstart          1 \
	alphaTmin            1e-10 \
	updateTestStepSize   yes \
	alphaTreduceFactor   0.1 \
	alphaTincreaseFactor 3 \
	nAlphaAdjustMax      3 \
	wolfeEnergy          0.0001 \
	wolfeGradient        0.9 \
	fdTest               no
kpoint   0.500000000000   0.500000000000   0.500000000000  1.00000000000000
kpoint-folding 3 3 1 
latt-move-scale 1 1 1
latt-scale 1 1 1 
lattice  \
	   8.140000000000001    8.140000000000001    0.000000000000000  \
	   8.140000000000001   -8.140000000000001    0.000000000000000  \
	   0.000000000000000    0.000000000000000   40.700000000000003 
lattice-minimize  \
	dirUpdateScheme      L-BFGS \
	linminMethod         DirUpdateRecommended \
	nIterations          0 \
	history              15 \
	knormThreshold       0 \
	energyDiffThreshold  1e-06 \
	nEnergyDiff          2 \
	alphaTstart          1 \
	alphaTmin            1e-10 \
	updateTestStepSize   yes \
	alphaTreduceFactor   0.1 \
	alphaTincreaseFactor 3 \
	nAlphaAdjustMax      3 \
	wolfeEnergy          0.0001 \
	wolfeGradient        0.9 \
	fdTest               no
lcao-params -1 1e-06 0.001
pcm-variant GLSSA13
spintype z-spin
subspace-rotation-factor 1 yes
symmetries none
symmetry-threshold 0.0001


Applied RMS atom displacement 0 bohrs to make symmetries exact.

---------- Initializing the Grid ----------
R = 
[         8.14         8.14            0  ]
[         8.14        -8.14            0  ]
[            0            0         40.7  ]
unit cell volume = 5393.53
G =
[   0.385945   0.385945         -0  ]
[   0.385945  -0.385945         -0  ]
[         -0         -0   0.154378  ]
Minimum fftbox size, Smin = [  60  60  204  ]
Chosen fftbox size, S = [  60  60  210  ]

---------- Exchange Correlation functional ----------
Initialized LibXC exchange functional 'Hammer, Hansen, and Norskov'
Initialized LibXC correlation functional 'Perdew, Burke & Ernzerhof'

---------- Setting up pseudopotentials ----------
Width of ionic core gaussian charges (only for fluid interactions / plotting) set to 0

Reading pseudopotential file '/data2/jt577/jdftx_eat_withLibXC/build/pseudopotentials/SG15/Ni_ONCV_PBE.upf':
  'Ni' pseudopotential, 'PBE' functional
  Generated using ONCVPSP code by D. R. Hamann
  Author: Martin Schlipf and Francois Gygi  Date: 150915.
  18 valence electrons, 4 orbitals, 6 projectors, 1292 radial grid points, with lMax = 2
  Transforming local potential to a uniform radial grid of dG=0.02 with 1419 points.
  Transforming nonlocal projectors to a uniform radial grid of dG=0.02 with 528 points.
    3S    l: 0   occupation:  2.0   eigenvalue: -4.081355
    3P    l: 1   occupation:  6.0   eigenvalue: -2.623460
    4S    l: 0   occupation:  2.0   eigenvalue: -0.207378
    3D    l: 2   occupation:  8.0   eigenvalue: -0.326118
  Transforming atomic orbitals to a uniform radial grid of dG=0.02 with 528 points.
  WARNING: large normalization error in atomic orbital 1s (integral: 0.000006).
  Core radius for overlap checks: 1.99 bohrs.
  Reading pulay file /data2/jt577/jdftx_eat_withLibXC/build/pseudopotentials/SG15/Ni_ONCV_PBE.pulay ... using dE_dnG = -7.250568e-04 computed for Ecut = 30.

Reading pseudopotential file '/data2/jt577/jdftx_eat_withLibXC/build/pseudopotentials/SG15/V_ONCV_PBE.upf':
  'V' pseudopotential, 'PBE' functional
  Generated using ONCVPSP code by D. R. Hamann
  Author: Martin Schlipf and Francois Gygi  Date: 150915.
  13 valence electrons, 4 orbitals, 6 projectors, 1536 radial grid points, with lMax = 2
  Transforming local potential to a uniform radial grid of dG=0.02 with 1419 points.
  Transforming nonlocal projectors to a uniform radial grid of dG=0.02 with 528 points.
    3S    l: 0   occupation:  2.0   eigenvalue: -2.581105
    3P    l: 1   occupation:  6.0   eigenvalue: -1.618486
    4S    l: 0   occupation:  2.0   eigenvalue: -0.172804
    3D    l: 2   occupation:  3.0   eigenvalue: -0.189795
  Transforming atomic orbitals to a uniform radial grid of dG=0.02 with 528 points.
  Core radius for overlap checks: 1.80 bohrs.
  Reading pulay file /data2/jt577/jdftx_eat_withLibXC/build/pseudopotentials/SG15/V_ONCV_PBE.pulay ... using dE_dnG = -1.698632e-04 computed for Ecut = 30.

Reading pseudopotential file '/data2/jt577/jdftx_eat_withLibXC/build/pseudopotentials/SG15/Co_ONCV_PBE.upf':
  'Co' pseudopotential, 'PBE' functional
  Generated using ONCVPSP code by D. R. Hamann
  Author: Martin Schlipf and Francois Gygi  Date: 150915.
  17 valence electrons, 4 orbitals, 6 projectors, 1388 radial grid points, with lMax = 2
  Transforming local potential to a uniform radial grid of dG=0.02 with 1419 points.
  Transforming nonlocal projectors to a uniform radial grid of dG=0.02 with 528 points.
    3S    l: 0   occupation:  2.0   eigenvalue: -3.763303
    3P    l: 1   occupation:  6.0   eigenvalue: -2.412101
    4S    l: 0   occupation:  2.0   eigenvalue: -0.201022
    3D    l: 2   occupation:  7.0   eigenvalue: -0.301498
  Transforming atomic orbitals to a uniform radial grid of dG=0.02 with 528 points.
  Core radius for overlap checks: 1.94 bohrs.
  Reading pulay file /data2/jt577/jdftx_eat_withLibXC/build/pseudopotentials/SG15/Co_ONCV_PBE.pulay ... using dE_dnG = -9.787391e-05 computed for Ecut = 30.

Reading pseudopotential file '/data2/jt577/jdftx_eat_withLibXC/build/pseudopotentials/SG15/Cr_ONCV_PBE.upf':
  'Cr' pseudopotential, 'PBE' functional
  Generated using ONCVPSP code by D. R. Hamann
  Author: Martin Schlipf and Francois Gygi  Date: 150915.
  14 valence electrons, 4 orbitals, 6 projectors, 1160 radial grid points, with lMax = 2
  Transforming local potential to a uniform radial grid of dG=0.02 with 1419 points.
  Transforming nonlocal projectors to a uniform radial grid of dG=0.02 with 528 points.
    3S    l: 0   occupation:  2.0   eigenvalue: -2.865131
    3P    l: 1   occupation:  6.0   eigenvalue: -1.810600
    4S    l: 0   occupation:  2.0   eigenvalue: -0.180525
    3D    l: 2   occupation:  4.0   eigenvalue: -0.220312
  Transforming atomic orbitals to a uniform radial grid of dG=0.02 with 528 points.
  WARNING: large normalization error in atomic orbital 1s (integral: 0.000001).
  Core radius for overlap checks: 2.10 bohrs.
  Reading pulay file /data2/jt577/jdftx_eat_withLibXC/build/pseudopotentials/SG15/Cr_ONCV_PBE.pulay ... using dE_dnG = -9.817895e-06 computed for Ecut = 30.

Reading pseudopotential file '/data2/jt577/jdftx_eat_withLibXC/build/pseudopotentials/SG15/O_ONCV_PBE.upf':
  'O' pseudopotential, 'PBE' functional
  Generated using ONCVPSP code by D. R. Hamann
  Author: Martin Schlipf and Francois Gygi  Date: 150915.
  6 valence electrons, 2 orbitals, 4 projectors, 936 radial grid points, with lMax = 1
  Transforming local potential to a uniform radial grid of dG=0.02 with 1419 points.
  Transforming nonlocal projectors to a uniform radial grid of dG=0.02 with 528 points.
    2S    l: 0   occupation:  2.0   eigenvalue: -0.880572
    2P    l: 1   occupation:  4.0   eigenvalue: -0.331869
  Transforming atomic orbitals to a uniform radial grid of dG=0.02 with 528 points.
  Core radius for overlap checks: 1.29 bohrs.
  Reading pulay file /data2/jt577/jdftx_eat_withLibXC/build/pseudopotentials/SG15/O_ONCV_PBE.pulay ... using dE_dnG = -8.209514e-03 computed for Ecut = 30.

Reading pseudopotential file '/data2/jt577/jdftx_eat_withLibXC/build/pseudopotentials/SG15/H_ONCV_PBE.upf':
  'H' pseudopotential, 'PBE' functional
  Generated using ONCVPSP code by D. R. Hamann
  Author: Martin Schlipf and Francois Gygi  Date: 150915.
  1 valence electrons, 1 orbitals, 2 projectors, 1166 radial grid points, with lMax = 0
  Transforming local potential to a uniform radial grid of dG=0.02 with 1419 points.
  Transforming nonlocal projectors to a uniform radial grid of dG=0.02 with 528 points.
    1S    l: 0   occupation:  1.0   eigenvalue: -0.238602
  Transforming atomic orbitals to a uniform radial grid of dG=0.02 with 528 points.
  Core radius for overlap checks: 1.01 bohrs.
  Reading pulay file /data2/jt577/jdftx_eat_withLibXC/build/pseudopotentials/SG15/H_ONCV_PBE.pulay ... using dE_dnG = -8.245991e-05 computed for Ecut = 30.

Initialized 6 species with 34 total atoms.

Folded 1 k-points by 3x3x1 to 9 k-points.

---------- Setting up k-points, bands, fillings ----------
No reducable k-points. 
Computing the number of bands and number of electrons
Calculating initial fillings.
nElectrons: 356.000000   nBands: 229   nStates: 18

----- Setting up reduced wavefunction bases (one per k-point) -----
average nbasis = 42312.000 , ideal nbasis = 42330.081

---------- Setting up ewald sum ----------
Optimum gaussian width for ewald sums = 3.887061 bohr.
Real space sum over 605 unit cells with max indices [  5  5  2  ]
Reciprocal space sum over 5915 terms with max indices [  6  6  17  ]

---------- Allocating electronic variables ----------
Initializing wave functions:  linear combination of atomic orbitals
Ni (M=1) pseudo-atom majority spin occupations:   s ( 1 0.5 )  p ( 3 )  d ( 5 )
Ni (M=1) pseudo-atom minority spin occupations:   s ( 1 0 )  p ( 3 )  d ( 4.5 )
V (M=1) pseudo-atom majority spin occupations:   s ( 1 0 )  p ( 3 )  d ( 3 )
V (M=1) pseudo-atom minority spin occupations:   s ( 1 0 )  p ( 3 )  d ( 2 )
Co (M=1) pseudo-atom majority spin occupations:   s ( 1 0 )  p ( 3 )  d ( 5 )
Co (M=1) pseudo-atom minority spin occupations:   s ( 1 0 )  p ( 3 )  d ( 4 )
Cr (M=1) pseudo-atom majority spin occupations:   s ( 1 0 )  p ( 3 )  d ( 3.5 )
Cr (M=1) pseudo-atom minority spin occupations:   s ( 1 0 )  p ( 3 )  d ( 2.5 )
O pseudo-atom occupations:   s ( 2 )  p ( 4 )
H pseudo-atom occupations:   s ( 1 )
	FillingsUpdate:  mu: +0.229243224  nElectrons: 356.000000  magneticMoment: [ Abs: 0.28393  Tot: -0.00000 ]
LCAOMinimize: Iter:   0  F: -1987.8413292438772260  |grad|_K:  7.239e-03  alpha:  1.000e+00
	FillingsUpdate:  mu: +0.166465254  nElectrons: 356.000000  magneticMoment: [ Abs: 0.22696  Tot: -0.00000 ]
LCAOMinimize: Iter:   1  F: -1989.3375043273179017  |grad|_K:  6.745e-03  alpha:  3.292e-02  linmin: -6.029e-02  cgtest:  9.927e-01  t[s]:     43.19
LCAOMinimize: Encountered beta<0, resetting CG.
LCAOMinimize: 	Wrong curvature in test step, increasing alphaT to 9.876531e-02.
	FillingsUpdate:  mu: +0.109585519  nElectrons: 356.000000  magneticMoment: [ Abs: 0.23616  Tot: -0.00000 ]
LCAOMinimize: Iter:   2  F: -1990.9309966038711082  |grad|_K:  7.612e-03  alpha: -1.403e-01  linmin: -7.416e-02  cgtest:  8.341e-01  t[s]:     56.81
	FillingsUpdate:  mu: -0.131576175  nElectrons: 356.000000  magneticMoment: [ Abs: 4.65423  Tot: +0.00000 ]
LCAOMinimize: Iter:   3  F: -2007.8871215264202874  |grad|_K:  2.594e-02  alpha:  3.909e-02  linmin: -1.156e-01  cgtest:  1.586e-01  t[s]:     70.99
LCAOMinimize: 	Step increased F by 2.292377e+02, reducing alpha to 1.351099e-03.
LCAOMinimize: 	Step increased F by 1.149613e+01, reducing alpha to 1.351099e-04.
	FillingsUpdate:  mu: -0.097565524  nElectrons: 356.000000  magneticMoment: [ Abs: 4.19940  Tot: +0.00000 ]
LCAOMinimize: Iter:   4  F: -2009.9806680062631585  |grad|_K:  2.168e-02  alpha:  1.351e-04  linmin: -1.995e-01  cgtest:  7.537e-01  t[s]:    105.75
LCAOMinimize: 	Predicted alpha/alphaT>3.000000, increasing alphaT to 4.053296e-04.
	FillingsUpdate:  mu: -0.021208709  nElectrons: 356.000000  magneticMoment: [ Abs: 3.22945  Tot: -0.00000 ]
LCAOMinimize: Iter:   5  F: -2010.7359303160733361  |grad|_K:  1.115e-02  alpha:  8.373e-04  linmin:  1.083e-01  cgtest: -5.380e-01  t[s]:    124.83
LCAOMinimize: 	Bad step direction: g.d > 0.
LCAOMinimize: 	Undoing step.
LCAOMinimize: 	Step failed: resetting search direction.
	FillingsUpdate:  mu: -0.021208709  nElectrons: 356.000000  magneticMoment: [ Abs: 3.22945  Tot: -0.00000 ]
LCAOMinimize: Iter:   6  F: -2010.7359303160733361  |grad|_K:  1.115e-02  alpha:  0.000e+00
LCAOMinimize: 	Predicted alpha/alphaT>3.000000, increasing alphaT to 2.511941e-03.
LCAOMinimize: 	Predicted alpha/alphaT>3.000000, increasing alphaT to 7.535823e-03.
	FillingsUpdate:  mu: -0.107140523  nElectrons: 356.000000  magneticMoment: [ Abs: 4.36409  Tot: +0.00000 ]
LCAOMinimize: Iter:   7  F: -2011.1860943141971347  |grad|_K:  1.273e-02  alpha:  7.652e-03  linmin:  6.705e-03  cgtest: -1.010e-01  t[s]:    158.40
LCAOMinimize: 	Wrong curvature in test step, increasing alphaT to 2.295572e-02.
	FillingsUpdate:  mu: -0.103202183  nElectrons: 356.000000  magneticMoment: [ Abs: 4.76871  Tot: +0.00000 ]
LCAOMinimize: Iter:   8  F: -2012.2148954177960150  |grad|_K:  1.073e-02  alpha: -3.208e-02  linmin: -2.349e-02  cgtest:  1.081e+00  t[s]:    171.97
LCAOMinimize: Encountered beta<0, resetting CG.
	FillingsUpdate:  mu: -0.029245153  nElectrons: 356.000000  magneticMoment: [ Abs: 1.67938  Tot: -0.00000 ]
LCAOMinimize: Iter:   9  F: -2020.0248307853441929  |grad|_K:  1.347e-02  alpha:  1.653e-01  linmin: -5.311e-02  cgtest: -1.410e+00  t[s]:    186.53
LCAOMinimize: 	Step increased F by 6.553683e+01, reducing alpha to 2.781397e-03.
	FillingsUpdate:  mu: +0.116199731  nElectrons: 356.000000  magneticMoment: [ Abs: 2.48566  Tot: +0.00000 ]
LCAOMinimize: Iter:  10  F: -2021.5756957396138205  |grad|_K:  1.158e-02  alpha:  2.781e-03  linmin: -4.728e-02  cgtest:  5.969e-01  t[s]:    211.77
LCAOMinimize: 	Predicted alpha/alphaT>3.000000, increasing alphaT to 8.344192e-03.
LCAOMinimize: 	Predicted alpha/alphaT>3.000000, increasing alphaT to 2.503258e-02.
	FillingsUpdate:  mu: +0.374984598  nElectrons: 356.000000  magneticMoment: [ Abs: 5.23546  Tot: -0.00000 ]
LCAOMinimize: Iter:  11  F: -2023.7918961918796867  |grad|_K:  1.850e-02  alpha:  3.047e-02  linmin:  5.251e-02  cgtest:  3.439e-01  t[s]:    234.68
LCAOMinimize: 	Bad step direction: g.d > 0.
LCAOMinimize: 	Undoing step.
LCAOMinimize: 	Step failed: resetting search direction.
	FillingsUpdate:  mu: +0.374984598  nElectrons: 356.000000  magneticMoment: [ Abs: 5.23546  Tot: -0.00000 ]
LCAOMinimize: Iter:  12  F: -2023.7918961918796867  |grad|_K:  1.850e-02  alpha:  0.000e+00
	FillingsUpdate:  mu: +0.050828266  nElectrons: 356.000000  magneticMoment: [ Abs: 5.51431  Tot: +0.00000 ]
LCAOMinimize: Iter:  13  F: -2027.9381660074800493  |grad|_K:  1.004e-02  alpha:  2.475e-02  linmin:  2.815e-02  cgtest:  5.795e-03  t[s]:    259.24
	FillingsUpdate:  mu: -0.129187446  nElectrons: 356.000000  magneticMoment: [ Abs: 6.38079  Tot: +0.00000 ]
LCAOMinimize: Iter:  14  F: -2028.6878619695862653  |grad|_K:  4.873e-03  alpha:  1.779e-02  linmin:  6.282e-03  cgtest:  9.525e-02  t[s]:    273.74
	FillingsUpdate:  mu: +0.012605326  nElectrons: 356.000000  magneticMoment: [ Abs: 7.37175  Tot: -0.00000 ]
LCAOMinimize: Iter:  15  F: -2029.0544193173705025  |grad|_K:  4.536e-03  alpha:  4.077e-02  linmin:  1.489e-02  cgtest: -2.323e-01  t[s]:    288.06
	FillingsUpdate:  mu: -0.006825044  nElectrons: 356.000000  magneticMoment: [ Abs: 7.59651  Tot: -0.00000 ]
LCAOMinimize: Iter:  16  F: -2029.1372541608836855  |grad|_K:  3.453e-03  alpha:  1.059e-02  linmin: -3.926e-03  cgtest:  6.991e-01  t[s]:    302.39
	FillingsUpdate:  mu: -0.079572267  nElectrons: 356.000000  magneticMoment: [ Abs: 7.59008  Tot: +0.00000 ]
LCAOMinimize: Iter:  17  F: -2029.2819896824016723  |grad|_K:  1.869e-03  alpha:  2.504e-02  linmin: -6.936e-03  cgtest:  4.637e-02  t[s]:    317.05
	FillingsUpdate:  mu: -0.050000119  nElectrons: 356.000000  magneticMoment: [ Abs: 7.85999  Tot: +0.00000 ]
LCAOMinimize: Iter:  18  F: -2029.3949083476341002  |grad|_K:  2.148e-03  alpha:  6.053e-02  linmin: -3.808e-03  cgtest:  9.762e-03  t[s]:    331.52
	FillingsUpdate:  mu: -0.042213305  nElectrons: 356.000000  magneticMoment: [ Abs: 8.11481  Tot: +0.00000 ]
LCAOMinimize: Iter:  19  F: -2029.4572443089425633  |grad|_K:  1.372e-03  alpha:  2.340e-02  linmin: -2.712e-03  cgtest:  2.096e-02  t[s]:    345.95
	FillingsUpdate:  mu: -0.057713910  nElectrons: 356.000000  magneticMoment: [ Abs: 8.77291  Tot: -0.00000 ]
LCAOMinimize: Iter:  20  F: -2029.5162100565762557  |grad|_K:  6.407e-04  alpha:  6.037e-02  linmin: -7.036e-04  cgtest:  3.351e-01  t[s]:    360.46
	FillingsUpdate:  mu: -0.033835725  nElectrons: 356.000000  magneticMoment: [ Abs: 9.46089  Tot: -0.00000 ]
LCAOMinimize: Iter:  21  F: -2029.5378597155126954  |grad|_K:  7.212e-04  alpha:  1.014e-01  linmin: -3.910e-03  cgtest:  1.734e-01  t[s]:    374.83
	FillingsUpdate:  mu: -0.045234780  nElectrons: 356.000000  magneticMoment: [ Abs: 10.30637  Tot: +0.00000 ]
LCAOMinimize: Iter:  22  F: -2029.5675961798501703  |grad|_K:  9.338e-04  alpha:  1.039e-01  linmin: -1.516e-03  cgtest: -2.741e-01  t[s]:    389.57
	FillingsUpdate:  mu: -0.047804279  nElectrons: 356.000000  magneticMoment: [ Abs: 11.14032  Tot: -0.00000 ]
LCAOMinimize: Iter:  23  F: -2029.5876591980115791  |grad|_K:  7.673e-04  alpha:  3.975e-02  linmin: -3.884e-04  cgtest: -1.746e-01  t[s]:    404.10
	FillingsUpdate:  mu: -0.023385768  nElectrons: 356.000000  magneticMoment: [ Abs: 12.51632  Tot: +0.00000 ]
LCAOMinimize: Iter:  24  F: -2029.6126427828241958  |grad|_K:  8.756e-04  alpha:  8.339e-02  linmin:  7.173e-05  cgtest:  6.549e-01  t[s]:    418.64
	FillingsUpdate:  mu: -0.028932570  nElectrons: 356.000000  magneticMoment: [ Abs: 12.80120  Tot: -0.00000 ]
LCAOMinimize: Iter:  25  F: -2029.6244932853612681  |grad|_K:  5.691e-04  alpha:  3.782e-02  linmin:  1.495e-03  cgtest: -2.945e-01  t[s]:    433.19
	FillingsUpdate:  mu: -0.034886531  nElectrons: 356.000000  magneticMoment: [ Abs: 13.81724  Tot: -0.00000 ]
LCAOMinimize: Iter:  26  F: -2029.6395698683456885  |grad|_K:  3.405e-04  alpha:  1.112e-01  linmin:  1.434e-03  cgtest:  2.118e-02  t[s]:    447.94
	FillingsUpdate:  mu: -0.030482750  nElectrons: 356.000000  magneticMoment: [ Abs: 14.32191  Tot: -0.00000 ]
LCAOMinimize: Iter:  27  F: -2029.6443410590866279  |grad|_K:  3.793e-04  alpha:  8.857e-02  linmin:  5.531e-04  cgtest:  9.868e-02  t[s]:    462.59
	FillingsUpdate:  mu: -0.026105073  nElectrons: 356.000000  magneticMoment: [ Abs: 14.81438  Tot: -0.00000 ]
LCAOMinimize: Iter:  28  F: -2029.6491846728094970  |grad|_K:  4.940e-04  alpha:  7.266e-02  linmin: -9.300e-04  cgtest:  1.692e-02  t[s]:    477.25
	FillingsUpdate:  mu: -0.040232854  nElectrons: 356.000000  magneticMoment: [ Abs: 16.66233  Tot: -0.00000 ]
LCAOMinimize: Iter:  29  F: -2029.6672221599774275  |grad|_K:  4.324e-04  alpha:  1.391e-01  linmin: -1.175e-02  cgtest: -1.535e-01  t[s]:    491.64
	FillingsUpdate:  mu: -0.037617660  nElectrons: 356.000000  magneticMoment: [ Abs: 17.67250  Tot: +0.00000 ]
LCAOMinimize: Iter:  30  F: -2029.6762942840746291  |grad|_K:  3.140e-04  alpha:  7.678e-02  linmin: -7.170e-04  cgtest: -2.760e-01  t[s]:    506.31
LCAOMinimize: None of the convergence criteria satisfied after 30 iterations.


---- Citations for features of the code used in this run ----

   Software package:
      R. Sundararaman, K. Letchworth-Weaver, K.A. Schwarz, D. Gunceler, Y. Ozhabes and T.A. Arias, 'JDFTx: software for joint density-functional theory', SoftwareX 6, 278 (2017)

   Simplified rotationally-invariant DFT+U:
      S. L. Dudarev et al., Phys. Rev. B 57, 1505 (1998)

   LibXC library of exchange-correlation functions:
      M. A. L. Marques, M. J. T. Oliveira and T. Burnus, Comput. Phys. Commun. 183, 2272 (2012)

   Hammer, Hansen, and Norskov exchange functional:
      B. Hammer, L. B. Hansen, and J. K. Nørskov, Phys. Rev. B 59, 7413 (1999)

   Perdew, Burke & Ernzerhof correlation functional:
      J. P. Perdew, K. Burke, and M. Ernzerhof, Phys. Rev. Lett. 77, 3865 (1996)

   Pseudopotentials:
      M Schlipf and F Gygi, Comput. Phys. Commun. 196, 36 (2015)

   Total energy minimization with Auxiliary Hamiltonian:
      C. Freysoldt, S. Boeck, and J. Neugebauer, Phys. Rev. B 79, 241103(R) (2009)

This list may not be complete. Please suggest additional citations or
report any other bugs at https://github.com/shankar1729/jdftx/issues

Initialization completed successfully at t[s]:    512.83


-------- Electronic minimization -----------
	FillingsUpdate:  mu: -0.037617632  nElectrons: 356.000000  magneticMoment: [ Abs: 17.67250  Tot: +0.00000 ]
ElecMinimize: Iter:   0  F: -2029.676294284080996  |grad|_K:  1.191e-03  alpha:  1.000e+00
	FillingsUpdate:  mu: +0.562453122  nElectrons: 356.000000  magneticMoment: [ Abs: 18.43598  Tot: +0.00000 ]
	SubspaceRotationAdjust: set factor to 0.999
ElecMinimize: Iter:   1  F: -2097.954864325221024  |grad|_K:  1.389e-03  alpha:  4.860e-01  linmin:  1.437e-02  t[s]:    604.95
	FillingsUpdate:  mu: +0.811105463  nElectrons: 356.000000  magneticMoment: [ Abs: 18.57480  Tot: -0.00000 ]
	SubspaceRotationAdjust: set factor to 0.915
ElecMinimize: Iter:   2  F: -2101.662517530048717  |grad|_K:  1.316e-03  alpha:  2.025e-01  linmin:  3.076e-03  t[s]:    679.82
	FillingsUpdate:  mu: +0.617192493  nElectrons: 356.000000  magneticMoment: [ Abs: 18.78812  Tot: +0.00000 ]
	SubspaceRotationAdjust: set factor to 1.41
ElecMinimize: Iter:   3  F: -2107.693397533597818  |grad|_K:  9.326e-04  alpha:  1.557e-02  linmin: -2.930e-03  t[s]:    752.75
ElecMinimize: 	Step increased F by 1.824051e+00, reducing alpha to 4.518497e-03.
	FillingsUpdate:  mu: +0.462201826  nElectrons: 356.000000  magneticMoment: [ Abs: 18.99065  Tot: -0.00000 ]
	SubspaceRotationAdjust: set factor to 1.84
ElecMinimize: Iter:   4  F: -2109.612966175136080  |grad|_K:  9.258e-04  alpha:  4.518e-03  linmin: -4.404e-03  t[s]:    872.13
ElecMinimize: 	Predicted alpha/alphaT>3.000000, increasing alphaT to 1.355549e-02.
	FillingsUpdate:  mu: +0.814395215  nElectrons: 356.000000  magneticMoment: [ Abs: 20.33670  Tot: +0.00000 ]
	SubspaceRotationAdjust: set factor to 1.1
ElecMinimize: Iter:   5  F: -2114.602780800878463  |grad|_K:  1.671e-03  alpha:  1.542e-02  linmin:  1.651e-03  t[s]:    979.41
	FillingsUpdate:  mu: +0.880605642  nElectrons: 356.000000  magneticMoment: [ Abs: 20.43317  Tot: +0.00000 ]
	SubspaceRotationAdjust: set factor to 0.695
ElecMinimize: Iter:   6  F: -2114.670413990272209  |grad|_K:  1.432e-03  alpha:  3.766e-04  linmin: -2.299e-04  t[s]:   1055.87
ElecMinimize: 	Predicted alpha/alphaT>3.000000, increasing alphaT to 1.129660e-03.
ElecMinimize: 	Predicted alpha/alphaT>3.000000, increasing alphaT to 3.388980e-03.
	FillingsUpdate:  mu: +1.713572711  nElectrons: 356.000000  magneticMoment: [ Abs: 24.17350  Tot: +0.00000 ]
	SubspaceRotationAdjust: set factor to 0.393
ElecMinimize: Iter:   7  F: -2116.932057665737375  |grad|_K:  1.630e-03  alpha:  9.516e-03  linmin:  5.673e-04  t[s]:   1194.23
	FillingsUpdate:  mu: +1.760596166  nElectrons: 356.000000  magneticMoment: [ Abs: 24.69192  Tot: -0.00000 ]
	SubspaceRotationAdjust: set factor to 0.242
ElecMinimize: Iter:   8  F: -2117.433672105347796  |grad|_K:  1.263e-03  alpha:  8.804e-04  linmin: -9.694e-04  t[s]:   1270.31
ElecMinimize: 	Predicted alpha/alphaT>3.000000, increasing alphaT to 2.641154e-03.
	FillingsUpdate:  mu: +1.972091206  nElectrons: 356.000000  magneticMoment: [ Abs: 25.91423  Tot: +0.00000 ]
	SubspaceRotationAdjust: set factor to 0.145
ElecMinimize: Iter:   9  F: -2119.288016821605197  |grad|_K:  1.261e-03  alpha:  6.733e-03  linmin:  2.395e-03  t[s]:   1379.56
ElecMinimize: 	Bad step direction: g.d > 0.
ElecMinimize: 	Undoing step.
ElecMinimize: 	Step failed: resetting search direction.
	FillingsUpdate:  mu: +1.972091206  nElectrons: 356.000000  magneticMoment: [ Abs: 25.91423  Tot: +0.00000 ]
	SubspaceRotationAdjust: set factor to 0.0962
	SubspaceRotationAdjust: resetting CG because factor has changed by 0.0962391
ElecMinimize: 	State modified externally: resetting search direction.
ElecMinimize: Iter:  10  F: -2119.288016821605652  |grad|_K:  8.892e-04  alpha:  0.000e+00
ElecMinimize: 	Predicted alpha/alphaT>3.000000, increasing alphaT to 2.019791e-02.
ElecMinimize: 	Predicted alpha/alphaT>3.000000, increasing alphaT to 6.059372e-02.
	FillingsUpdate:  mu: +0.633796991  nElectrons: 356.000000  magneticMoment: [ Abs: 24.10497  Tot: +0.00000 ]
	SubspaceRotationAdjust: set factor to 0.205
ElecMinimize: Iter:  11  F: -2141.161590166433143  |grad|_K:  2.932e-04  alpha:  1.356e-01  linmin: -3.164e-02  t[s]:   1578.81
	FillingsUpdate:  mu: +0.374692532  nElectrons: 356.000000  magneticMoment: [ Abs: 22.89866  Tot: -0.00000 ]
	SubspaceRotationAdjust: set factor to 0.176
ElecMinimize: Iter:  12  F: -2146.160594010093064  |grad|_K:  2.096e-04  alpha:  2.709e-01  linmin: -9.001e-04  t[s]:   1653.64
	FillingsUpdate:  mu: +0.146542630  nElectrons: 356.000000  magneticMoment: [ Abs: 22.84808  Tot: +0.00000 ]
	SubspaceRotationAdjust: set factor to 0.157
ElecMinimize: Iter:  13  F: -2147.218325455814920  |grad|_K:  1.227e-04  alpha:  1.230e-01  linmin: -1.140e-03  t[s]:   1730.82
	FillingsUpdate:  mu: +0.186013331  nElectrons: 356.000000  magneticMoment: [ Abs: 23.13024  Tot: -0.00000 ]
	SubspaceRotationAdjust: set factor to 0.121
ElecMinimize: Iter:  14  F: -2147.939645232907878  |grad|_K:  1.329e-04  alpha:  2.555e-01  linmin:  6.834e-06  t[s]:   1806.06
	FillingsUpdate:  mu: +0.102172093  nElectrons: 356.000000  magneticMoment: [ Abs: 23.33805  Tot: -0.00000 ]
	SubspaceRotationAdjust: set factor to 0.145
ElecMinimize: Iter:  15  F: -2148.331865161370843  |grad|_K:  8.595e-05  alpha:  1.314e-01  linmin: -6.969e-05  t[s]:   1881.64
	FillingsUpdate:  mu: +0.169660817  nElectrons: 356.000000  magneticMoment: [ Abs: 23.41715  Tot: +0.00000 ]
	SubspaceRotationAdjust: set factor to 0.14
ElecMinimize: Iter:  16  F: -2148.631402639676253  |grad|_K:  8.041e-05  alpha:  2.267e-01  linmin: -3.613e-05  t[s]:   1959.46
	FillingsUpdate:  mu: +0.094416817  nElectrons: 356.000000  magneticMoment: [ Abs: 23.39976  Tot: +0.00000 ]
	SubspaceRotationAdjust: set factor to 0.172
ElecMinimize: Iter:  17  F: -2148.843850664925412  |grad|_K:  5.893e-05  alpha:  1.861e-01  linmin: -1.270e-05  t[s]:   2035.31
	FillingsUpdate:  mu: +0.121458548  nElectrons: 356.000000  magneticMoment: [ Abs: 23.48254  Tot: +0.00000 ]
	SubspaceRotationAdjust: set factor to 0.151
ElecMinimize: Iter:  18  F: -2148.996714775591045  |grad|_K:  6.801e-05  alpha:  2.515e-01  linmin:  2.177e-05  t[s]:   2115.27
	FillingsUpdate:  mu: +0.081934091  nElectrons: 356.000000  magneticMoment: [ Abs: 23.69132  Tot: +0.00000 ]
	SubspaceRotationAdjust: set factor to 0.177
ElecMinimize: Iter:  19  F: -2149.142375250961322  |grad|_K:  5.466e-05  alpha:  1.823e-01  linmin: -7.891e-06  t[s]:   2195.22
	FillingsUpdate:  mu: +0.160521421  nElectrons: 356.000000  magneticMoment: [ Abs: 23.89146  Tot: +0.00000 ]
	SubspaceRotationAdjust: set factor to 0.122
ElecMinimize: Iter:  20  F: -2149.276595708470722  |grad|_K:  8.580e-05  alpha:  2.761e-01  linmin:  2.244e-04  t[s]:   2272.49
	FillingsUpdate:  mu: +0.152930972  nElectrons: 356.000000  magneticMoment: [ Abs: 24.08496  Tot: -0.00000 ]
	SubspaceRotationAdjust: set factor to 0.14
ElecMinimize: Iter:  21  F: -2149.374724821034761  |grad|_K:  7.447e-05  alpha:  1.023e-01  linmin: -5.732e-05  t[s]:   2351.42
	FillingsUpdate:  mu: +0.106422150  nElectrons: 356.000000  magneticMoment: [ Abs: 24.36116  Tot: +0.00000 ]
	SubspaceRotationAdjust: set factor to 0.113
ElecMinimize: Iter:  22  F: -2149.479113596310981  |grad|_K:  6.598e-05  alpha:  1.010e-01  linmin: -5.329e-05  t[s]:   2428.05
	FillingsUpdate:  mu: +0.087979854  nElectrons: 356.000000  magneticMoment: [ Abs: 25.03407  Tot: +0.00000 ]
	SubspaceRotationAdjust: set factor to 0.0983
ElecMinimize: Iter:  23  F: -2149.591078209932220  |grad|_K:  8.727e-05  alpha:  1.939e-01  linmin:  4.404e-04  t[s]:   2508.19
ElecMinimize: 	Step increased F by 8.144611e-03, reducing alpha to 1.580398e-04.
ElecMinimize: 	Step increased F by 9.741078e-03, reducing alpha to 1.580398e-05.
ElecMinimize: 	Step increased F by 9.904343e-03, reducing alpha to 1.580398e-06.
ElecMinimize: 	Step failed to reduce F after 3 attempts. Quitting step.
ElecMinimize: 	Undoing step.
ElecMinimize: 	Step failed: resetting search direction.
	FillingsUpdate:  mu: +0.087246045  nElectrons: 356.000000  magneticMoment: [ Abs: 25.03271  Tot: -0.00000 ]
	SubspaceRotationAdjust: set factor to 0.091
ElecMinimize: Iter:  24  F: -2149.581172049402539  |grad|_K:  8.414e-05  alpha:  1.580e-06
	FillingsUpdate:  mu: +0.146844344  nElectrons: 356.000000  magneticMoment: [ Abs: 24.95253  Tot: +0.00000 ]
	SubspaceRotationAdjust: set factor to 0.0596
ElecMinimize: Iter:  25  F: -2149.763103868601320  |grad|_K:  5.300e-05  alpha:  1.445e-01  linmin:  1.309e-03  t[s]:   2793.60
	FillingsUpdate:  mu: +0.119505958  nElectrons: 356.000000  magneticMoment: [ Abs: 24.91596  Tot: -0.00000 ]
	SubspaceRotationAdjust: set factor to 0.0368
ElecMinimize: Iter:  26  F: -2149.862367517171151  |grad|_K:  3.361e-05  alpha:  2.097e-01  linmin:  2.749e-03  t[s]:   2872.33
	FillingsUpdate:  mu: +0.085658991  nElectrons: 356.000000  magneticMoment: [ Abs: 24.88055  Tot: +0.00000 ]
	SubspaceRotationAdjust: set factor to 0.0477
ElecMinimize: Iter:  27  F: -2149.932474101005482  |grad|_K:  2.362e-05  alpha:  3.758e-01  linmin: -6.341e-05  t[s]:   2949.17
	FillingsUpdate:  mu: +0.090044961  nElectrons: 356.000000  magneticMoment: [ Abs: 24.89009  Tot: -0.00000 ]
	SubspaceRotationAdjust: set factor to 0.0476
ElecMinimize: Iter:  28  F: -2149.967407191007624  |grad|_K:  1.880e-05  alpha:  3.572e-01  linmin: -7.954e-05  t[s]:   3024.43
	FillingsUpdate:  mu: +0.078510796  nElectrons: 356.000000  magneticMoment: [ Abs: 24.95918  Tot: +0.00000 ]
	SubspaceRotationAdjust: set factor to 0.0528
ElecMinimize: Iter:  29  F: -2149.988224554351746  |grad|_K:  1.438e-05  alpha:  3.360e-01  linmin: -1.636e-04  t[s]:   3101.77
	FillingsUpdate:  mu: +0.082576470  nElectrons: 356.000000  magneticMoment: [ Abs: 25.07986  Tot: -0.00000 ]
	SubspaceRotationAdjust: set factor to 0.0638
ElecMinimize: Iter:  30  F: -2150.006596899603664  |grad|_K:  1.492e-05  alpha:  5.036e-01  linmin: -1.315e-04  t[s]:   3179.78
	FillingsUpdate:  mu: +0.092950483  nElectrons: 356.000000  magneticMoment: [ Abs: 25.24128  Tot: +0.00000 ]
	SubspaceRotationAdjust: set factor to 0.0746
ElecMinimize: Iter:  31  F: -2150.023053327559410  |grad|_K:  1.397e-05  alpha:  4.180e-01  linmin: -1.748e-04  t[s]:   3257.50
	FillingsUpdate:  mu: +0.096584849  nElectrons: 356.000000  magneticMoment: [ Abs: 25.44675  Tot: -0.00000 ]
	SubspaceRotationAdjust: set factor to 0.083
ElecMinimize: Iter:  32  F: -2150.037945451457290  |grad|_K:  1.540e-05  alpha:  4.271e-01  linmin: -1.052e-04  t[s]:   3335.03
	FillingsUpdate:  mu: +0.097997305  nElectrons: 356.000000  magneticMoment: [ Abs: 25.76930  Tot: -0.00000 ]
	SubspaceRotationAdjust: set factor to 0.0861
ElecMinimize: Iter:  33  F: -2150.057678602308442  |grad|_K:  1.865e-05  alpha:  4.682e-01  linmin:  1.461e-06  t[s]:   3414.26
	FillingsUpdate:  mu: +0.089057289  nElectrons: 356.000000  magneticMoment: [ Abs: 26.34597  Tot: -0.00000 ]
	SubspaceRotationAdjust: set factor to 0.103
ElecMinimize: Iter:  34  F: -2150.084836013025779  |grad|_K:  2.083e-05  alpha:  4.458e-01  linmin: -1.288e-05  t[s]:   3492.71
	FillingsUpdate:  mu: +0.087242486  nElectrons: 356.000000  magneticMoment: [ Abs: 26.80801  Tot: -0.00000 ]
	SubspaceRotationAdjust: set factor to 0.122
ElecMinimize: Iter:  35  F: -2150.109283809014414  |grad|_K:  2.178e-05  alpha:  3.204e-01  linmin: -4.266e-05  t[s]:   3569.45
	FillingsUpdate:  mu: +0.081107105  nElectrons: 356.000000  magneticMoment: [ Abs: 27.08101  Tot: -0.00000 ]
	SubspaceRotationAdjust: set factor to 0.146
ElecMinimize: Iter:  36  F: -2150.131118734099346  |grad|_K:  1.884e-05  alpha:  2.535e-01  linmin:  8.861e-06  t[s]:   3646.32
	FillingsUpdate:  mu: +0.081471779  nElectrons: 356.000000  magneticMoment: [ Abs: 27.17376  Tot: -0.00000 ]
	SubspaceRotationAdjust: set factor to 0.178
ElecMinimize: Iter:  37  F: -2150.142197714847953  |grad|_K:  1.569e-05  alpha:  1.635e-01  linmin: -9.854e-05  t[s]:   3721.73
	FillingsUpdate:  mu: +0.080460707  nElectrons: 356.000000  magneticMoment: [ Abs: 27.20843  Tot: +0.00000 ]
	SubspaceRotationAdjust: set factor to 0.229
ElecMinimize: Iter:  38  F: -2150.147547377964656  |grad|_K:  1.311e-05  alpha:  1.165e-01  linmin:  1.959e-05  t[s]:   3799.96
	FillingsUpdate:  mu: +0.081155168  nElectrons: 356.000000  magneticMoment: [ Abs: 27.23075  Tot: -0.00000 ]
	SubspaceRotationAdjust: set factor to 0.231
ElecMinimize: Iter:  39  F: -2150.150625210404087  |grad|_K:  1.243e-05  alpha:  1.023e-01  linmin:  7.784e-05  t[s]:   3879.34
	FillingsUpdate:  mu: +0.081114071  nElectrons: 356.000000  magneticMoment: [ Abs: 27.25508  Tot: -0.00000 ]
	SubspaceRotationAdjust: set factor to 0.218
ElecMinimize: Iter:  40  F: -2150.152967054204964  |grad|_K:  1.156e-05  alpha:  8.764e-02  linmin:  2.061e-05  t[s]:   3957.41
	FillingsUpdate:  mu: +0.082261892  nElectrons: 356.000000  magneticMoment: [ Abs: 27.28681  Tot: -0.00000 ]
	SubspaceRotationAdjust: set factor to 0.197
ElecMinimize: Iter:  41  F: -2150.155209245287097  |grad|_K:  1.148e-05  alpha:  9.620e-02  linmin: -1.845e-05  t[s]:   4032.25
	FillingsUpdate:  mu: +0.082513243  nElectrons: 356.000000  magneticMoment: [ Abs: 27.32660  Tot: +0.00000 ]
	SubspaceRotationAdjust: set factor to 0.192
ElecMinimize: Iter:  42  F: -2150.157585764315627  |grad|_K:  1.112e-05  alpha:  1.029e-01  linmin: -4.936e-05  t[s]:   4108.43
	FillingsUpdate:  mu: +0.083457536  nElectrons: 356.000000  magneticMoment: [ Abs: 27.37607  Tot: -0.00000 ]
	SubspaceRotationAdjust: set factor to 0.193
ElecMinimize: Iter:  43  F: -2150.160113795667712  |grad|_K:  1.150e-05  alpha:  1.160e-01  linmin: -6.237e-05  t[s]:   4186.50
	FillingsUpdate:  mu: +0.084544024  nElectrons: 356.000000  magneticMoment: [ Abs: 27.43931  Tot: -0.00000 ]
	SubspaceRotationAdjust: set factor to 0.216
ElecMinimize: Iter:  44  F: -2150.162925083881873  |grad|_K:  1.169e-05  alpha:  1.207e-01  linmin: -3.915e-05  t[s]:   4264.37
	FillingsUpdate:  mu: +0.085157474  nElectrons: 356.000000  magneticMoment: [ Abs: 27.50786  Tot: +0.00000 ]
	SubspaceRotationAdjust: set factor to 0.239
ElecMinimize: Iter:  45  F: -2150.165673625324416  |grad|_K:  1.205e-05  alpha:  1.145e-01  linmin: -3.181e-05  t[s]:   4341.89
	FillingsUpdate:  mu: +0.085374030  nElectrons: 356.000000  magneticMoment: [ Abs: 27.58667  Tot: -0.00000 ]
	SubspaceRotationAdjust: set factor to 0.273
ElecMinimize: Iter:  46  F: -2150.168405624039224  |grad|_K:  1.234e-05  alpha:  1.071e-01  linmin: -3.186e-05  t[s]:   4421.02
	FillingsUpdate:  mu: +0.085564996  nElectrons: 356.000000  magneticMoment: [ Abs: 27.68120  Tot: -0.00000 ]
	SubspaceRotationAdjust: set factor to 0.32
ElecMinimize: Iter:  47  F: -2150.171001451118173  |grad|_K:  1.292e-05  alpha:  9.699e-02  linmin: -2.958e-05  t[s]:   4495.90
	FillingsUpdate:  mu: +0.085406780  nElectrons: 356.000000  magneticMoment: [ Abs: 27.79908  Tot: -0.00000 ]
	SubspaceRotationAdjust: set factor to 0.369
ElecMinimize: Iter:  48  F: -2150.173661478874237  |grad|_K:  1.364e-05  alpha:  9.069e-02  linmin: -2.651e-05  t[s]:   4575.54
	FillingsUpdate:  mu: +0.085091086  nElectrons: 356.000000  magneticMoment: [ Abs: 27.93311  Tot: -0.00000 ]
	SubspaceRotationAdjust: set factor to 0.424
ElecMinimize: Iter:  49  F: -2150.176218584419075  |grad|_K:  1.399e-05  alpha:  7.835e-02  linmin: -5.028e-05  t[s]:   4654.49
	FillingsUpdate:  mu: +0.084784468  nElectrons: 356.000000  magneticMoment: [ Abs: 28.10603  Tot: +0.00000 ]
	SubspaceRotationAdjust: set factor to 0.483
ElecMinimize: Iter:  50  F: -2150.178945199263580  |grad|_K:  1.432e-05  alpha:  7.884e-02  linmin: -6.259e-05  t[s]:   4732.21
	FillingsUpdate:  mu: +0.084367010  nElectrons: 356.000000  magneticMoment: [ Abs: 28.30913  Tot: +0.00000 ]
	SubspaceRotationAdjust: set factor to 0.572
ElecMinimize: Iter:  51  F: -2150.181540616818893  |grad|_K:  1.465e-05  alpha:  7.132e-02  linmin: -4.705e-06  t[s]:   4810.44
	FillingsUpdate:  mu: +0.084575020  nElectrons: 356.000000  magneticMoment: [ Abs: 28.53635  Tot: +0.00000 ]
	SubspaceRotationAdjust: set factor to 0.78
	SubspaceRotationAdjust: resetting CG because factor has changed by 8.10715
ElecMinimize: 	State modified externally: resetting search direction.
ElecMinimize: Iter:  52  F: -2150.184058954785542  |grad|_K:  1.525e-05  alpha:  6.720e-02
	FillingsUpdate:  mu: +0.093847841  nElectrons: 356.000000  magneticMoment: [ Abs: 28.71158  Tot: +0.00000 ]
	SubspaceRotationAdjust: set factor to 0.451
ElecMinimize: Iter:  53  F: -2150.191493076199549  |grad|_K:  2.670e-05  alpha:  1.705e-01  linmin: -2.653e-03  t[s]:   4979.65
	FillingsUpdate:  mu: +0.087065823  nElectrons: 356.000000  magneticMoment: [ Abs: 28.84476  Tot: +0.00000 ]
	SubspaceRotationAdjust: set factor to 0.237
ElecMinimize: Iter:  54  F: -2150.197486300984110  |grad|_K:  1.822e-05  alpha:  4.293e-02  linmin:  3.940e-04  t[s]:   5059.04
ElecMinimize: 	Predicted alpha/alphaT>3.000000, increasing alphaT to 1.288039e-01.
	FillingsUpdate:  mu: +0.089721489  nElectrons: 356.000000  magneticMoment: [ Abs: 28.95873  Tot: -0.00000 ]
	SubspaceRotationAdjust: set factor to 0.151
ElecMinimize: Iter:  55  F: -2150.208957992279466  |grad|_K:  1.348e-05  alpha:  2.029e-01  linmin:  1.334e-04  t[s]:   5169.42
	FillingsUpdate:  mu: +0.088879232  nElectrons: 356.000000  magneticMoment: [ Abs: 29.17706  Tot: -0.00000 ]
	SubspaceRotationAdjust: set factor to 0.114
ElecMinimize: Iter:  56  F: -2150.215809013610397  |grad|_K:  1.216e-05  alpha:  2.174e-01  linmin: -7.832e-05  t[s]:   5244.79
	FillingsUpdate:  mu: +0.091675717  nElectrons: 356.000000  magneticMoment: [ Abs: 29.35336  Tot: -0.00000 ]
	SubspaceRotationAdjust: set factor to 0.0853
	SubspaceRotationAdjust: resetting CG because factor has changed by 0.109279
ElecMinimize: 	State modified externally: resetting search direction.
ElecMinimize: Iter:  57  F: -2150.221206837344198  |grad|_K:  8.233e-06  alpha:  2.076e-01
	FillingsUpdate:  mu: +0.088532370  nElectrons: 356.000000  magneticMoment: [ Abs: 29.38504  Tot: +0.00000 ]
	SubspaceRotationAdjust: set factor to 0.104
ElecMinimize: Iter:  58  F: -2150.223787062571773  |grad|_K:  4.943e-06  alpha:  2.177e-01  linmin: -2.825e-04  t[s]:   5420.28
	FillingsUpdate:  mu: +0.088472705  nElectrons: 356.000000  magneticMoment: [ Abs: 29.44237  Tot: -0.00000 ]
	SubspaceRotationAdjust: set factor to 0.108
ElecMinimize: Iter:  59  F: -2150.225561883625232  |grad|_K:  4.506e-06  alpha:  4.145e-01  linmin: -1.122e-04  t[s]:   5494.60
	FillingsUpdate:  mu: +0.088322238  nElectrons: 356.000000  magneticMoment: [ Abs: 29.56932  Tot: +0.00000 ]
	SubspaceRotationAdjust: set factor to 0.118
ElecMinimize: Iter:  60  F: -2150.227015310040315  |grad|_K:  4.694e-06  alpha:  4.087e-01  linmin:  1.853e-04  t[s]:   5575.16
	FillingsUpdate:  mu: +0.090334495  nElectrons: 356.000000  magneticMoment: [ Abs: 29.84267  Tot: +0.00000 ]
	SubspaceRotationAdjust: set factor to 0.117
ElecMinimize: Iter:  61  F: -2150.229714102168145  |grad|_K:  7.404e-06  alpha:  7.002e-01  linmin: -1.786e-04  t[s]:   5653.58
	FillingsUpdate:  mu: +0.089989808  nElectrons: 356.000000  magneticMoment: [ Abs: 30.24665  Tot: -0.00000 ]
	SubspaceRotationAdjust: set factor to 0.105
ElecMinimize: Iter:  62  F: -2150.233496604922493  |grad|_K:  8.055e-06  alpha:  3.495e-01  linmin: -1.257e-03  t[s]:   5733.97
	FillingsUpdate:  mu: +0.091507992  nElectrons: 356.000000  magneticMoment: [ Abs: 30.68570  Tot: -0.00000 ]
	SubspaceRotationAdjust: set factor to 0.139
ElecMinimize: Iter:  63  F: -2150.237753008183518  |grad|_K:  7.941e-06  alpha:  3.550e-01  linmin:  2.712e-05  t[s]:   5811.58
	FillingsUpdate:  mu: +0.094337163  nElectrons: 356.000000  magneticMoment: [ Abs: 31.00469  Tot: +0.00000 ]
	SubspaceRotationAdjust: set factor to 0.162
ElecMinimize: Iter:  64  F: -2150.241104737306159  |grad|_K:  7.558e-06  alpha:  3.072e-01  linmin: -3.589e-04  t[s]:   5890.06
	FillingsUpdate:  mu: +0.094603638  nElectrons: 356.000000  magneticMoment: [ Abs: 31.27528  Tot: -0.00000 ]
	SubspaceRotationAdjust: set factor to 0.173
ElecMinimize: Iter:  65  F: -2150.244253289687549  |grad|_K:  7.679e-06  alpha:  3.086e-01  linmin: -2.231e-04  t[s]:   5966.25
	FillingsUpdate:  mu: +0.095253448  nElectrons: 356.000000  magneticMoment: [ Abs: 31.50748  Tot: +0.00000 ]
	SubspaceRotationAdjust: set factor to 0.176
ElecMinimize: Iter:  66  F: -2150.247588849527801  |grad|_K:  7.416e-06  alpha:  3.176e-01  linmin: -3.299e-04  t[s]:   6040.83
	FillingsUpdate:  mu: +0.095847344  nElectrons: 356.000000  magneticMoment: [ Abs: 31.76081  Tot: +0.00000 ]
	SubspaceRotationAdjust: set factor to 0.183
ElecMinimize: Iter:  67  F: -2150.251320774965279  |grad|_K:  7.071e-06  alpha:  3.736e-01  linmin: -2.175e-04  t[s]:   6116.38
	FillingsUpdate:  mu: +0.093996026  nElectrons: 356.000000  magneticMoment: [ Abs: 31.92521  Tot: +0.00000 ]
	SubspaceRotationAdjust: set factor to 0.19
ElecMinimize: Iter:  68  F: -2150.254641959387300  |grad|_K:  6.430e-06  alpha:  3.707e-01  linmin:  2.232e-05  t[s]:   6192.84
	FillingsUpdate:  mu: +0.094085017  nElectrons: 356.000000  magneticMoment: [ Abs: 32.02131  Tot: +0.00000 ]
	SubspaceRotationAdjust: set factor to 0.198
ElecMinimize: Iter:  69  F: -2150.257059584072067  |grad|_K:  5.729e-06  alpha:  3.364e-01  linmin: -1.211e-04  t[s]:   6270.27
	FillingsUpdate:  mu: +0.094467779  nElectrons: 356.000000  magneticMoment: [ Abs: 32.06705  Tot: +0.00000 ]
	SubspaceRotationAdjust: set factor to 0.197
ElecMinimize: Iter:  70  F: -2150.258792806384918  |grad|_K:  5.055e-06  alpha:  2.981e-01  linmin:  3.291e-06  t[s]:   6349.22
	FillingsUpdate:  mu: +0.095594747  nElectrons: 356.000000  magneticMoment: [ Abs: 32.05762  Tot: +0.00000 ]
	SubspaceRotationAdjust: set factor to 0.21
ElecMinimize: Iter:  71  F: -2150.260200265638105  |grad|_K:  4.122e-06  alpha:  3.145e-01  linmin: -2.125e-04  t[s]:   6426.31
	FillingsUpdate:  mu: +0.095007118  nElectrons: 356.000000  magneticMoment: [ Abs: 32.02665  Tot: +0.00000 ]
	SubspaceRotationAdjust: set factor to 0.236
ElecMinimize: Iter:  72  F: -2150.261207487662432  |grad|_K:  3.650e-06  alpha:  3.330e-01  linmin:  2.296e-04  t[s]:   6508.16
	FillingsUpdate:  mu: +0.095022485  nElectrons: 356.000000  magneticMoment: [ Abs: 31.99106  Tot: +0.00000 ]
	SubspaceRotationAdjust: set factor to 0.291
ElecMinimize: Iter:  73  F: -2150.262049877634126  |grad|_K:  3.533e-06  alpha:  3.692e-01  linmin:  6.492e-05  t[s]:   6583.97
	FillingsUpdate:  mu: +0.095378114  nElectrons: 356.000000  magneticMoment: [ Abs: 31.94554  Tot: +0.00000 ]
	SubspaceRotationAdjust: set factor to 0.342
ElecMinimize: Iter:  74  F: -2150.262904600086586  |grad|_K:  3.632e-06  alpha:  3.929e-01  linmin: -2.594e-04  t[s]:   6661.21
	FillingsUpdate:  mu: +0.095158294  nElectrons: 356.000000  magneticMoment: [ Abs: 31.89215  Tot: +0.00000 ]
	SubspaceRotationAdjust: set factor to 0.39
ElecMinimize: Iter:  75  F: -2150.263713608205762  |grad|_K:  3.842e-06  alpha:  3.434e-01  linmin:  1.426e-05  t[s]:   6742.22
	FillingsUpdate:  mu: +0.095614134  nElectrons: 356.000000  magneticMoment: [ Abs: 31.84654  Tot: +0.00000 ]
	SubspaceRotationAdjust: set factor to 0.387
ElecMinimize: Iter:  76  F: -2150.264384774079645  |grad|_K:  4.347e-06  alpha:  2.612e-01  linmin: -4.892e-05  t[s]:   6816.15
	FillingsUpdate:  mu: +0.095110111  nElectrons: 356.000000  magneticMoment: [ Abs: 31.83167  Tot: +0.00000 ]
	SubspaceRotationAdjust: set factor to 0.359
ElecMinimize: Iter:  77  F: -2150.265058556388794  |grad|_K:  3.850e-06  alpha:  2.032e-01  linmin: -1.463e-05  t[s]:   6891.19
	FillingsUpdate:  mu: +0.094526894  nElectrons: 356.000000  magneticMoment: [ Abs: 31.78914  Tot: -0.00000 ]
	SubspaceRotationAdjust: set factor to 0.374
ElecMinimize: Iter:  78  F: -2150.265837661988371  |grad|_K:  3.627e-06  alpha:  2.996e-01  linmin: -2.164e-05  t[s]:   6966.54
	FillingsUpdate:  mu: +0.093324438  nElectrons: 356.000000  magneticMoment: [ Abs: 31.75072  Tot: +0.00000 ]
	SubspaceRotationAdjust: set factor to 0.397
ElecMinimize: Iter:  79  F: -2150.266541757540381  |grad|_K:  3.439e-06  alpha:  3.052e-01  linmin:  6.760e-05  t[s]:   7041.79
	FillingsUpdate:  mu: +0.094455125  nElectrons: 356.000000  magneticMoment: [ Abs: 31.71488  Tot: +0.00000 ]
	SubspaceRotationAdjust: set factor to 0.39
ElecMinimize: Iter:  80  F: -2150.267094330276905  |grad|_K:  3.509e-06  alpha:  2.699e-01  linmin:  7.187e-06  t[s]:   7119.17
	FillingsUpdate:  mu: +0.093992740  nElectrons: 356.000000  magneticMoment: [ Abs: 31.70357  Tot: +0.00000 ]
	SubspaceRotationAdjust: set factor to 0.351
ElecMinimize: Iter:  81  F: -2150.267490583271865  |grad|_K:  3.286e-06  alpha:  1.824e-01  linmin:  5.716e-06  t[s]:   7197.32
	FillingsUpdate:  mu: +0.094156015  nElectrons: 356.000000  magneticMoment: [ Abs: 31.67763  Tot: -0.00000 ]
	SubspaceRotationAdjust: set factor to 0.381
ElecMinimize: Iter:  82  F: -2150.267908495924985  |grad|_K:  2.887e-06  alpha:  2.219e-01  linmin:  3.989e-05  t[s]:   7273.67
	FillingsUpdate:  mu: +0.093918851  nElectrons: 356.000000  magneticMoment: [ Abs: 31.66283  Tot: -0.00000 ]
	SubspaceRotationAdjust: set factor to 0.493
ElecMinimize: Iter:  83  F: -2150.268324227350604  |grad|_K:  2.659e-06  alpha:  2.874e-01  linmin:  3.216e-05  t[s]:   7352.47
	FillingsUpdate:  mu: +0.093967830  nElectrons: 356.000000  magneticMoment: [ Abs: 31.65067  Tot: -0.00000 ]
	SubspaceRotationAdjust: set factor to 0.614
ElecMinimize: Iter:  84  F: -2150.268731394971837  |grad|_K:  2.854e-06  alpha:  3.310e-01  linmin:  3.059e-05  t[s]:   7427.56
	FillingsUpdate:  mu: +0.093252824  nElectrons: 356.000000  magneticMoment: [ Abs: 31.64944  Tot: +0.00000 ]
	SubspaceRotationAdjust: set factor to 0.612
ElecMinimize: Iter:  85  F: -2150.269144803200561  |grad|_K:  3.321e-06  alpha:  2.904e-01  linmin:  6.292e-05  t[s]:   7504.49
	FillingsUpdate:  mu: +0.092827774  nElectrons: 356.000000  magneticMoment: [ Abs: 31.68412  Tot: -0.00000 ]
	SubspaceRotationAdjust: set factor to 0.481
ElecMinimize: Iter:  86  F: -2150.269444754285814  |grad|_K:  3.984e-06  alpha:  1.595e-01  linmin:  4.665e-05  t[s]:   7580.65
	FillingsUpdate:  mu: +0.093110076  nElectrons: 356.000000  magneticMoment: [ Abs: 31.70352  Tot: +0.00000 ]
	SubspaceRotationAdjust: set factor to 0.461
ElecMinimize: Iter:  87  F: -2150.269748135055124  |grad|_K:  3.153e-06  alpha:  1.075e-01  linmin: -1.296e-05  t[s]:   7657.22
	FillingsUpdate:  mu: +0.092641393  nElectrons: 356.000000  magneticMoment: [ Abs: 31.73922  Tot: +0.00000 ]
	SubspaceRotationAdjust: set factor to 0.626
ElecMinimize: Iter:  88  F: -2150.270140000419815  |grad|_K:  2.889e-06  alpha:  2.229e-01  linmin: -1.112e-04  t[s]:   7734.28
	FillingsUpdate:  mu: +0.093020088  nElectrons: 356.000000  magneticMoment: [ Abs: 31.78520  Tot: -0.00000 ]
	SubspaceRotationAdjust: set factor to 0.497
ElecMinimize: Iter:  89  F: -2150.270404986944868  |grad|_K:  3.688e-06  alpha:  1.797e-01  linmin: -5.047e-05  t[s]:   7810.62
	FillingsUpdate:  mu: +0.093435971  nElectrons: 356.000000  magneticMoment: [ Abs: 31.81318  Tot: +0.00000 ]
	SubspaceRotationAdjust: set factor to 0.421
ElecMinimize: Iter:  90  F: -2150.270620161368697  |grad|_K:  2.644e-06  alpha:  8.618e-02  linmin: -1.288e-04  t[s]:   7887.23
	FillingsUpdate:  mu: +0.093648298  nElectrons: 356.000000  magneticMoment: [ Abs: 31.86850  Tot: -0.00000 ]
	SubspaceRotationAdjust: set factor to 0.565
ElecMinimize: Iter:  91  F: -2150.270922583898937  |grad|_K:  2.456e-06  alpha:  2.399e-01  linmin: -6.134e-05  t[s]:   7964.01
	FillingsUpdate:  mu: +0.093735579  nElectrons: 356.000000  magneticMoment: [ Abs: 31.90200  Tot: +0.00000 ]
	SubspaceRotationAdjust: set factor to 0.492
ElecMinimize: Iter:  92  F: -2150.271090917947276  |grad|_K:  2.907e-06  alpha:  1.586e-01  linmin:  1.347e-06  t[s]:   8040.63
	FillingsUpdate:  mu: +0.093524981  nElectrons: 356.000000  magneticMoment: [ Abs: 31.91951  Tot: -0.00000 ]
	SubspaceRotationAdjust: set factor to 0.436
ElecMinimize: Iter:  93  F: -2150.271253832978346  |grad|_K:  2.120e-06  alpha:  1.098e-01  linmin:  1.752e-06  t[s]:   8119.24
	FillingsUpdate:  mu: +0.094139540  nElectrons: 356.000000  magneticMoment: [ Abs: 31.95834  Tot: +0.00000 ]
	SubspaceRotationAdjust: set factor to 0.538
ElecMinimize: Iter:  94  F: -2150.271443464701861  |grad|_K:  1.847e-06  alpha:  2.412e-01  linmin: -4.810e-06  t[s]:   8195.71
	FillingsUpdate:  mu: +0.093975204  nElectrons: 356.000000  magneticMoment: [ Abs: 31.98212  Tot: -0.00000 ]
	SubspaceRotationAdjust: set factor to 0.625
ElecMinimize: Iter:  95  F: -2150.271602203984003  |grad|_K:  1.864e-06  alpha:  2.657e-01  linmin: -1.049e-05  t[s]:   8275.69
	FillingsUpdate:  mu: +0.093588263  nElectrons: 356.000000  magneticMoment: [ Abs: 31.98832  Tot: +0.00000 ]
	SubspaceRotationAdjust: set factor to 0.437
ElecMinimize: Iter:  96  F: -2150.271704097806833  |grad|_K:  2.436e-06  alpha:  1.674e-01  linmin: -2.891e-06  t[s]:   8349.01
	FillingsUpdate:  mu: +0.094033494  nElectrons: 356.000000  magneticMoment: [ Abs: 32.00458  Tot: -0.00000 ]
	SubspaceRotationAdjust: set factor to 0.439
ElecMinimize: Iter:  97  F: -2150.271805967530327  |grad|_K:  1.738e-06  alpha:  9.820e-02  linmin:  2.574e-06  t[s]:   8424.71
	FillingsUpdate:  mu: +0.093871603  nElectrons: 356.000000  magneticMoment: [ Abs: 32.01122  Tot: +0.00000 ]
	SubspaceRotationAdjust: set factor to 0.596
ElecMinimize: Iter:  98  F: -2150.271952700170459  |grad|_K:  1.745e-06  alpha:  2.800e-01  linmin:  1.111e-04  t[s]:   8501.91
	FillingsUpdate:  mu: +0.093344714  nElectrons: 356.000000  magneticMoment: [ Abs: 32.01105  Tot: +0.00000 ]
	SubspaceRotationAdjust: set factor to 0.46
ElecMinimize: Iter:  99  F: -2150.272070733953569  |grad|_K:  2.448e-06  alpha:  2.239e-01  linmin:  2.103e-05  t[s]:   8579.62
	FillingsUpdate:  mu: +0.093722944  nElectrons: 356.000000  magneticMoment: [ Abs: 32.02229  Tot: -0.00000 ]
	SubspaceRotationAdjust: set factor to 0.413
ElecMinimize: Iter: 100  F: -2150.272170497921707  |grad|_K:  1.968e-06  alpha:  9.957e-02  linmin:  1.488e-04  t[s]:   8659.50
	FillingsUpdate:  mu: +0.093636973  nElectrons: 356.000000  magneticMoment: [ Abs: 32.02384  Tot: -0.00000 ]
	SubspaceRotationAdjust: set factor to 0.49
ElecMinimize: Iter: 101  F: -2150.272334047323511  |grad|_K:  1.907e-06  alpha:  2.538e-01  linmin:  2.875e-04  t[s]:   8734.61
	FillingsUpdate:  mu: +0.093011010  nElectrons: 356.000000  magneticMoment: [ Abs: 32.01324  Tot: +0.00000 ]
	SubspaceRotationAdjust: set factor to 0.495
ElecMinimize: Iter: 102  F: -2150.272467698920991  |grad|_K:  2.339e-06  alpha:  2.183e-01  linmin:  1.772e-04  t[s]:   8810.27
	FillingsUpdate:  mu: +0.093029682  nElectrons: 356.000000  magneticMoment: [ Abs: 32.01049  Tot: -0.00000 ]
	SubspaceRotationAdjust: set factor to 0.583
ElecMinimize: Iter: 103  F: -2150.272581892854760  |grad|_K:  2.152e-06  alpha:  1.302e-01  linmin:  1.392e-05  t[s]:   8882.88
	FillingsUpdate:  mu: +0.093006275  nElectrons: 356.000000  magneticMoment: [ Abs: 32.00539  Tot: -0.00000 ]
	SubspaceRotationAdjust: set factor to 0.697
	SubspaceRotationAdjust: resetting CG because factor has changed by 8.1702
ElecMinimize: 	State modified externally: resetting search direction.
ElecMinimize: Iter: 104  F: -2150.272737099592632  |grad|_K:  2.295e-06  alpha:  1.956e-01
	FillingsUpdate:  mu: +0.094163900  nElectrons: 356.000000  magneticMoment: [ Abs: 32.02831  Tot: +0.00000 ]
	SubspaceRotationAdjust: set factor to 0.411
ElecMinimize: Iter: 105  F: -2150.272879188766183  |grad|_K:  3.400e-06  alpha:  1.553e-01  linmin: -2.195e-04  t[s]:   9046.70
	FillingsUpdate:  mu: +0.093876137  nElectrons: 356.000000  magneticMoment: [ Abs: 32.03778  Tot: -0.00000 ]
	SubspaceRotationAdjust: set factor to 0.314
ElecMinimize: Iter: 106  F: -2150.273092163538422  |grad|_K:  2.077e-06  alpha:  1.044e-01  linmin: -1.751e-06  t[s]:   9122.11
ElecMinimize: 	Predicted alpha/alphaT>3.000000, increasing alphaT to 3.132243e-01.
	FillingsUpdate:  mu: +0.092473664  nElectrons: 356.000000  magneticMoment: [ Abs: 32.05178  Tot: +0.00000 ]
	SubspaceRotationAdjust: set factor to 0.356
ElecMinimize: Iter: 107  F: -2150.273421826676895  |grad|_K:  2.036e-06  alpha:  4.428e-01  linmin:  6.171e-04  t[s]:   9230.87
	FillingsUpdate:  mu: +0.093817184  nElectrons: 356.000000  magneticMoment: [ Abs: 32.07084  Tot: -0.00000 ]
	SubspaceRotationAdjust: set factor to 0.266
ElecMinimize: Iter: 108  F: -2150.273573054860663  |grad|_K:  2.059e-06  alpha:  2.242e-01  linmin:  2.996e-04  t[s]:   9307.77
	FillingsUpdate:  mu: +0.093687039  nElectrons: 356.000000  magneticMoment: [ Abs: 32.06814  Tot: +0.00000 ]
	SubspaceRotationAdjust: set factor to 0.187
ElecMinimize: Iter: 109  F: -2150.273683152073318  |grad|_K:  1.245e-06  alpha:  1.496e-01  linmin: -9.787e-07  t[s]:   9386.11
	FillingsUpdate:  mu: +0.093638777  nElectrons: 356.000000  magneticMoment: [ Abs: 32.07419  Tot: +0.00000 ]
	SubspaceRotationAdjust: set factor to 0.229
ElecMinimize: Iter: 110  F: -2150.273780903263741  |grad|_K:  1.064e-06  alpha:  3.597e-01  linmin: -8.884e-05  t[s]:   9465.75
	FillingsUpdate:  mu: +0.093890972  nElectrons: 356.000000  magneticMoment: [ Abs: 32.08436  Tot: -0.00000 ]
	SubspaceRotationAdjust: set factor to 0.238
ElecMinimize: Iter: 111  F: -2150.273850206218412  |grad|_K:  1.021e-06  alpha:  3.488e-01  linmin: -1.414e-04  t[s]:   9543.38
	FillingsUpdate:  mu: +0.093503405  nElectrons: 356.000000  magneticMoment: [ Abs: 32.08354  Tot: +0.00000 ]
	SubspaceRotationAdjust: set factor to 0.203
ElecMinimize: Iter: 112  F: -2150.273906560815249  |grad|_K:  1.044e-06  alpha:  3.058e-01  linmin:  3.355e-04  t[s]:   9622.03
	FillingsUpdate:  mu: +0.093984040  nElectrons: 356.000000  magneticMoment: [ Abs: 32.09020  Tot: -0.00000 ]
	SubspaceRotationAdjust: set factor to 0.196
ElecMinimize: Iter: 113  F: -2150.273971018001703  |grad|_K:  1.074e-06  alpha:  3.411e-01  linmin: -3.393e-04  t[s]:   9700.73
	FillingsUpdate:  mu: +0.093798585  nElectrons: 356.000000  magneticMoment: [ Abs: 32.09264  Tot: -0.00000 ]
	SubspaceRotationAdjust: set factor to 0.214
ElecMinimize: Iter: 114  F: -2150.274065043329301  |grad|_K:  1.224e-06  alpha:  4.600e-01  linmin:  2.496e-04  t[s]:   9778.22
	FillingsUpdate:  mu: +0.093545329  nElectrons: 356.000000  magneticMoment: [ Abs: 32.09700  Tot: -0.00000 ]
	SubspaceRotationAdjust: set factor to 0.224
ElecMinimize: Iter: 115  F: -2150.274167817784473  |grad|_K:  1.381e-06  alpha:  3.952e-01  linmin:  3.024e-04  t[s]:   9858.17
	FillingsUpdate:  mu: +0.094344784  nElectrons: 356.000000  magneticMoment: [ Abs: 32.11074  Tot: -0.00000 ]
	SubspaceRotationAdjust: set factor to 0.204
ElecMinimize: Iter: 116  F: -2150.274276643679514  |grad|_K:  1.365e-06  alpha:  3.403e-01  linmin: -3.773e-04  t[s]:   9935.56
	FillingsUpdate:  mu: +0.093808175  nElectrons: 356.000000  magneticMoment: [ Abs: 32.10881  Tot: +0.00000 ]
	SubspaceRotationAdjust: set factor to 0.201
ElecMinimize: Iter: 117  F: -2150.274386356820742  |grad|_K:  1.366e-06  alpha:  3.229e-01  linmin:  3.802e-04  t[s]:  10014.00
	FillingsUpdate:  mu: +0.093942448  nElectrons: 356.000000  magneticMoment: [ Abs: 32.11330  Tot: -0.00000 ]
	SubspaceRotationAdjust: set factor to 0.252
ElecMinimize: Iter: 118  F: -2150.274501649491867  |grad|_K:  1.282e-06  alpha:  3.684e-01  linmin:  5.270e-05  t[s]:  10092.18
	FillingsUpdate:  mu: +0.094792503  nElectrons: 356.000000  magneticMoment: [ Abs: 32.12541  Tot: +0.00000 ]
	SubspaceRotationAdjust: set factor to 0.246
ElecMinimize: Iter: 119  F: -2150.274584455478816  |grad|_K:  1.123e-06  alpha:  2.949e-01  linmin: -2.196e-04  t[s]:  10171.39
	FillingsUpdate:  mu: +0.094705680  nElectrons: 356.000000  magneticMoment: [ Abs: 32.12492  Tot: -0.00000 ]
	SubspaceRotationAdjust: set factor to 0.238
ElecMinimize: Iter: 120  F: -2150.274641941438404  |grad|_K:  9.496e-07  alpha:  2.549e-01  linmin:  1.273e-04  t[s]:  10249.66
	FillingsUpdate:  mu: +0.094585623  nElectrons: 356.000000  magneticMoment: [ Abs: 32.12623  Tot: -0.00000 ]
	SubspaceRotationAdjust: set factor to 0.262
ElecMinimize: Iter: 121  F: -2150.274692764921838  |grad|_K:  8.154e-07  alpha:  3.237e-01  linmin: -2.207e-04  t[s]:  10327.24
	FillingsUpdate:  mu: +0.094641606  nElectrons: 356.000000  magneticMoment: [ Abs: 32.12599  Tot: +0.00000 ]
	SubspaceRotationAdjust: set factor to 0.302
ElecMinimize: Iter: 122  F: -2150.274741504662870  |grad|_K:  8.324e-07  alpha:  4.123e-01  linmin: -1.575e-05  t[s]:  10404.84
	FillingsUpdate:  mu: +0.094687130  nElectrons: 356.000000  magneticMoment: [ Abs: 32.12488  Tot: -0.00000 ]
	SubspaceRotationAdjust: set factor to 0.344
ElecMinimize: Iter: 123  F: -2150.274781198696019  |grad|_K:  7.884e-07  alpha:  3.266e-01  linmin:  1.759e-05  t[s]:  10484.40
	FillingsUpdate:  mu: +0.094703960  nElectrons: 356.000000  magneticMoment: [ Abs: 32.12592  Tot: -0.00000 ]
	SubspaceRotationAdjust: set factor to 0.331
ElecMinimize: Iter: 124  F: -2150.274814203725782  |grad|_K:  8.069e-07  alpha:  3.045e-01  linmin: -1.024e-04  t[s]:  10561.57
	FillingsUpdate:  mu: +0.094541546  nElectrons: 356.000000  magneticMoment: [ Abs: 32.12260  Tot: -0.00000 ]
	SubspaceRotationAdjust: set factor to 0.283
ElecMinimize: Iter: 125  F: -2150.274838897072186  |grad|_K:  7.982e-07  alpha:  2.128e-01  linmin:  1.565e-05  t[s]:  10636.10
	FillingsUpdate:  mu: +0.094818889  nElectrons: 356.000000  magneticMoment: [ Abs: 32.12704  Tot: +0.00000 ]
	SubspaceRotationAdjust: set factor to 0.309
ElecMinimize: Iter: 126  F: -2150.274870374425973  |grad|_K:  6.645e-07  alpha:  2.812e-01  linmin: -1.808e-04  t[s]:  10716.56
	FillingsUpdate:  mu: +0.094779338  nElectrons: 356.000000  magneticMoment: [ Abs: 32.12861  Tot: -0.00000 ]
	SubspaceRotationAdjust: set factor to 0.352
ElecMinimize: Iter: 127  F: -2150.274898697275603  |grad|_K:  6.793e-07  alpha:  3.604e-01  linmin:  1.926e-05  t[s]:  10797.11
	FillingsUpdate:  mu: +0.094595208  nElectrons: 356.000000  magneticMoment: [ Abs: 32.13040  Tot: +0.00000 ]
	SubspaceRotationAdjust: set factor to 0.36
ElecMinimize: Iter: 128  F: -2150.274922826289639  |grad|_K:  7.421e-07  alpha:  2.981e-01  linmin:  6.523e-05  t[s]:  10872.89
	FillingsUpdate:  mu: +0.094812138  nElectrons: 356.000000  magneticMoment: [ Abs: 32.14013  Tot: +0.00000 ]
	SubspaceRotationAdjust: set factor to 0.308
ElecMinimize: Iter: 129  F: -2150.274943122798504  |grad|_K:  7.233e-07  alpha:  2.152e-01  linmin: -3.604e-05  t[s]:  10948.95
	FillingsUpdate:  mu: +0.094771424  nElectrons: 356.000000  magneticMoment: [ Abs: 32.14690  Tot: -0.00000 ]
	SubspaceRotationAdjust: set factor to 0.296
ElecMinimize: Iter: 130  F: -2150.274965818327928  |grad|_K:  6.065e-07  alpha:  2.478e-01  linmin:  1.347e-04  t[s]:  11028.35
	FillingsUpdate:  mu: +0.094710552  nElectrons: 356.000000  magneticMoment: [ Abs: 32.15465  Tot: -0.00000 ]
	SubspaceRotationAdjust: set factor to 0.34
ElecMinimize: Iter: 131  F: -2150.274986866535528  |grad|_K:  5.427e-07  alpha:  3.321e-01  linmin: -2.796e-05  t[s]:  11106.54
	FillingsUpdate:  mu: +0.094800519  nElectrons: 356.000000  magneticMoment: [ Abs: 32.16280  Tot: -0.00000 ]
	SubspaceRotationAdjust: set factor to 0.402
ElecMinimize: Iter: 132  F: -2150.275004310643453  |grad|_K:  5.330e-07  alpha:  3.376e-01  linmin: -1.260e-05  t[s]:  11186.88
	FillingsUpdate:  mu: +0.094853662  nElectrons: 356.000000  magneticMoment: [ Abs: 32.17036  Tot: +0.00000 ]
	SubspaceRotationAdjust: set factor to 0.462
ElecMinimize: Iter: 133  F: -2150.275021458024185  |grad|_K:  5.674e-07  alpha:  3.447e-01  linmin:  3.471e-05  t[s]:  11264.78
	FillingsUpdate:  mu: +0.094923677  nElectrons: 356.000000  magneticMoment: [ Abs: 32.17822  Tot: +0.00000 ]
	SubspaceRotationAdjust: set factor to 0.399
ElecMinimize: Iter: 134  F: -2150.275036743074452  |grad|_K:  6.978e-07  alpha:  2.742e-01  linmin: -4.769e-05  t[s]:  11342.81
	FillingsUpdate:  mu: +0.094819404  nElectrons: 356.000000  magneticMoment: [ Abs: 32.18175  Tot: -0.00000 ]
	SubspaceRotationAdjust: set factor to 0.326
ElecMinimize: Iter: 135  F: -2150.275049224690520  |grad|_K:  5.942e-07  alpha:  1.412e-01  linmin: -1.168e-04  t[s]:  11415.40
	FillingsUpdate:  mu: +0.095053161  nElectrons: 356.000000  magneticMoment: [ Abs: 32.19305  Tot: +0.00000 ]
	SubspaceRotationAdjust: set factor to 0.383
ElecMinimize: Iter: 136  F: -2150.275067629833757  |grad|_K:  5.747e-07  alpha:  2.890e-01  linmin: -2.000e-04  t[s]:  11490.79
	FillingsUpdate:  mu: +0.095096999  nElectrons: 356.000000  magneticMoment: [ Abs: 32.20064  Tot: -0.00000 ]
	SubspaceRotationAdjust: set factor to 0.407
ElecMinimize: Iter: 137  F: -2150.275085356859108  |grad|_K:  5.776e-07  alpha:  2.977e-01  linmin: -6.442e-05  t[s]:  11569.03
	FillingsUpdate:  mu: +0.094915010  nElectrons: 356.000000  magneticMoment: [ Abs: 32.20233  Tot: +0.00000 ]
	SubspaceRotationAdjust: set factor to 0.343
ElecMinimize: Iter: 138  F: -2150.275096645075337  |grad|_K:  6.485e-07  alpha:  1.867e-01  linmin: -3.558e-05  t[s]:  11646.55
	FillingsUpdate:  mu: +0.095018533  nElectrons: 356.000000  magneticMoment: [ Abs: 32.20994  Tot: +0.00000 ]
	SubspaceRotationAdjust: set factor to 0.426
ElecMinimize: Iter: 139  F: -2150.275111814894444  |grad|_K:  5.106e-07  alpha:  2.047e-01  linmin: -1.381e-04  t[s]:  11724.73
	FillingsUpdate:  mu: +0.095147856  nElectrons: 356.000000  magneticMoment: [ Abs: 32.21771  Tot: -0.00000 ]
	SubspaceRotationAdjust: set factor to 0.443
ElecMinimize: Iter: 140  F: -2150.275126375509444  |grad|_K:  5.758e-07  alpha:  3.088e-01  linmin: -3.157e-04  t[s]:  11799.67
	FillingsUpdate:  mu: +0.094953243  nElectrons: 356.000000  magneticMoment: [ Abs: 32.21751  Tot: +0.00000 ]
	SubspaceRotationAdjust: set factor to 0.363
ElecMinimize: Iter: 141  F: -2150.275134919271750  |grad|_K:  5.636e-07  alpha:  1.354e-01  linmin: -2.725e-04  t[s]:  11877.75
	FillingsUpdate:  mu: +0.094855474  nElectrons: 356.000000  magneticMoment: [ Abs: 32.21807  Tot: -0.00000 ]
	SubspaceRotationAdjust: set factor to 0.456
ElecMinimize: Iter: 142  F: -2150.275148009632630  |grad|_K:  4.971e-07  alpha:  2.272e-01  linmin: -8.227e-05  t[s]:  11953.23
	FillingsUpdate:  mu: +0.095066907  nElectrons: 356.000000  magneticMoment: [ Abs: 32.22069  Tot: +0.00000 ]
	SubspaceRotationAdjust: set factor to 0.378
ElecMinimize: Iter: 143  F: -2150.275159257944324  |grad|_K:  5.833e-07  alpha:  2.562e-01  linmin: -2.670e-04  t[s]:  12030.24
	FillingsUpdate:  mu: +0.094973120  nElectrons: 356.000000  magneticMoment: [ Abs: 32.21965  Tot: -0.00000 ]
	SubspaceRotationAdjust: set factor to 0.302
ElecMinimize: Iter: 144  F: -2150.275166730478304  |grad|_K:  4.806e-07  alpha:  1.169e-01  linmin: -2.226e-04  t[s]:  12110.29
	FillingsUpdate:  mu: +0.094881912  nElectrons: 356.000000  magneticMoment: [ Abs: 32.21862  Tot: -0.00000 ]
	SubspaceRotationAdjust: set factor to 0.404
ElecMinimize: Iter: 145  F: -2150.275177752052059  |grad|_K:  4.664e-07  alpha:  2.672e-01  linmin:  9.155e-05  t[s]:  12188.79
	FillingsUpdate:  mu: +0.094944553  nElectrons: 356.000000  magneticMoment: [ Abs: 32.21887  Tot: +0.00000 ]
	SubspaceRotationAdjust: set factor to 0.36
ElecMinimize: Iter: 146  F: -2150.275184781725784  |grad|_K:  5.061e-07  alpha:  1.899e-01  linmin: -3.380e-05  t[s]:  12264.32
	FillingsUpdate:  mu: +0.094860232  nElectrons: 356.000000  magneticMoment: [ Abs: 32.21636  Tot: +0.00000 ]
	SubspaceRotationAdjust: set factor to 0.355
ElecMinimize: Iter: 147  F: -2150.275194018698585  |grad|_K:  4.214e-07  alpha:  2.061e-01  linmin:  1.833e-04  t[s]:  12339.67
	FillingsUpdate:  mu: +0.094914588  nElectrons: 356.000000  magneticMoment: [ Abs: 32.21478  Tot: -0.00000 ]
	SubspaceRotationAdjust: set factor to 0.426
ElecMinimize: Iter: 148  F: -2150.275203426468124  |grad|_K:  3.931e-07  alpha:  3.082e-01  linmin: -1.068e-04  t[s]:  12417.56
	FillingsUpdate:  mu: +0.094865255  nElectrons: 356.000000  magneticMoment: [ Abs: 32.21234  Tot: -0.00000 ]
	SubspaceRotationAdjust: set factor to 0.43
ElecMinimize: Iter: 149  F: -2150.275211232171841  |grad|_K:  4.183e-07  alpha:  2.857e-01  linmin: -8.233e-05  t[s]:  12493.72
	FillingsUpdate:  mu: +0.094708033  nElectrons: 356.000000  magneticMoment: [ Abs: 32.20962  Tot: +0.00000 ]
	SubspaceRotationAdjust: set factor to 0.362
ElecMinimize: Iter: 150  F: -2150.275216197356258  |grad|_K:  4.298e-07  alpha:  1.566e-01  linmin: -9.917e-05  t[s]:  12569.30
	FillingsUpdate:  mu: +0.094790855  nElectrons: 356.000000  magneticMoment: [ Abs: 32.20910  Tot: -0.00000 ]
	SubspaceRotationAdjust: set factor to 0.435
ElecMinimize: Iter: 151  F: -2150.275223194340924  |grad|_K:  3.459e-07  alpha:  2.126e-01  linmin: -1.846e-04  t[s]:  12644.86
	FillingsUpdate:  mu: +0.094825369  nElectrons: 356.000000  magneticMoment: [ Abs: 32.20829  Tot: +0.00000 ]
	SubspaceRotationAdjust: set factor to 0.49
ElecMinimize: Iter: 152  F: -2150.275229918995137  |grad|_K:  3.838e-07  alpha:  3.125e-01  linmin: -1.401e-04  t[s]:  12719.29
	FillingsUpdate:  mu: +0.094675661  nElectrons: 356.000000  magneticMoment: [ Abs: 32.20613  Tot: -0.00000 ]
	SubspaceRotationAdjust: set factor to 0.411
ElecMinimize: Iter: 153  F: -2150.275233953607767  |grad|_K:  4.210e-07  alpha:  1.495e-01  linmin: -1.407e-04  t[s]:  12797.13
	FillingsUpdate:  mu: +0.094686622  nElectrons: 356.000000  magneticMoment: [ Abs: 32.20522  Tot: -0.00000 ]
	SubspaceRotationAdjust: set factor to 0.476
ElecMinimize: Iter: 154  F: -2150.275239985771805  |grad|_K:  3.397e-07  alpha:  1.904e-01  linmin: -1.138e-04  t[s]:  12874.12
	FillingsUpdate:  mu: +0.094796818  nElectrons: 356.000000  magneticMoment: [ Abs: 32.20555  Tot: +0.00000 ]
	SubspaceRotationAdjust: set factor to 0.533
ElecMinimize: Iter: 155  F: -2150.275246281968975  |grad|_K:  3.538e-07  alpha:  3.050e-01  linmin: -1.464e-04  t[s]:  12950.83
	FillingsUpdate:  mu: +0.094678465  nElectrons: 356.000000  magneticMoment: [ Abs: 32.20450  Tot: -0.00000 ]
	SubspaceRotationAdjust: set factor to 0.432
ElecMinimize: Iter: 156  F: -2150.275249489121506  |grad|_K:  3.965e-07  alpha:  1.408e-01  linmin: -1.078e-04  t[s]:  13026.73
	FillingsUpdate:  mu: +0.094657503  nElectrons: 356.000000  magneticMoment: [ Abs: 32.20510  Tot: +0.00000 ]
	SubspaceRotationAdjust: set factor to 0.456
ElecMinimize: Iter: 157  F: -2150.275254083512209  |grad|_K:  3.095e-07  alpha:  1.647e-01  linmin: -6.133e-05  t[s]:  13106.37
	FillingsUpdate:  mu: +0.094710140  nElectrons: 356.000000  magneticMoment: [ Abs: 32.20737  Tot: +0.00000 ]
	SubspaceRotationAdjust: set factor to 0.534
ElecMinimize: Iter: 158  F: -2150.275259260663006  |grad|_K:  3.214e-07  alpha:  3.050e-01  linmin: -7.457e-05  t[s]:  13183.91
	FillingsUpdate:  mu: +0.094615579  nElectrons: 356.000000  magneticMoment: [ Abs: 32.20758  Tot: -0.00000 ]
	SubspaceRotationAdjust: set factor to 0.413
ElecMinimize: Iter: 159  F: -2150.275262427794587  |grad|_K:  3.998e-07  alpha:  1.717e-01  linmin: -3.213e-05  t[s]:  13262.05
	FillingsUpdate:  mu: +0.094637171  nElectrons: 356.000000  magneticMoment: [ Abs: 32.20917  Tot: +0.00000 ]
	SubspaceRotationAdjust: set factor to 0.407
ElecMinimize: Iter: 160  F: -2150.275266392037793  |grad|_K:  2.798e-07  alpha:  1.416e-01  linmin: -2.451e-05  t[s]:  13339.57
	FillingsUpdate:  mu: +0.094582646  nElectrons: 356.000000  magneticMoment: [ Abs: 32.21091  Tot: +0.00000 ]
	SubspaceRotationAdjust: set factor to 0.498
ElecMinimize: Iter: 161  F: -2150.275270807709603  |grad|_K:  2.829e-07  alpha:  3.212e-01  linmin: -6.014e-06  t[s]:  13417.11
	FillingsUpdate:  mu: +0.094531894  nElectrons: 356.000000  magneticMoment: [ Abs: 32.21236  Tot: +0.00000 ]
	SubspaceRotationAdjust: set factor to 0.399
ElecMinimize: Iter: 162  F: -2150.275273812745581  |grad|_K:  3.492e-07  alpha:  2.136e-01  linmin: -5.831e-07  t[s]:  13494.78
	FillingsUpdate:  mu: +0.094630669  nElectrons: 356.000000  magneticMoment: [ Abs: 32.21490  Tot: +0.00000 ]
	SubspaceRotationAdjust: set factor to 0.336
ElecMinimize: Iter: 163  F: -2150.275276581305206  |grad|_K:  2.710e-07  alpha:  1.304e-01  linmin:  6.800e-06  t[s]:  13571.97
	FillingsUpdate:  mu: +0.094576734  nElectrons: 356.000000  magneticMoment: [ Abs: 32.21641  Tot: -0.00000 ]
	SubspaceRotationAdjust: set factor to 0.417
ElecMinimize: Iter: 164  F: -2150.275280348944307  |grad|_K:  2.490e-07  alpha:  2.940e-01  linmin:  2.026e-05  t[s]:  13648.76
	FillingsUpdate:  mu: +0.094519057  nElectrons: 356.000000  magneticMoment: [ Abs: 32.21762  Tot: +0.00000 ]
	SubspaceRotationAdjust: set factor to 0.387
ElecMinimize: Iter: 165  F: -2150.275283369778208  |grad|_K:  3.001e-07  alpha:  2.794e-01  linmin:  1.705e-05  t[s]:  13725.85
	FillingsUpdate:  mu: +0.094622049  nElectrons: 356.000000  magneticMoment: [ Abs: 32.21973  Tot: +0.00000 ]
	SubspaceRotationAdjust: set factor to 0.313
ElecMinimize: Iter: 166  F: -2150.275285652220191  |grad|_K:  2.615e-07  alpha:  1.458e-01  linmin:  1.351e-05  t[s]:  13802.49
	FillingsUpdate:  mu: +0.094619285  nElectrons: 356.000000  magneticMoment: [ Abs: 32.22131  Tot: +0.00000 ]
	SubspaceRotationAdjust: set factor to 0.376
ElecMinimize: Iter: 167  F: -2150.275288883636222  |grad|_K:  2.299e-07  alpha:  2.709e-01  linmin:  1.428e-05  t[s]:  13882.01
	FillingsUpdate:  mu: +0.094545774  nElectrons: 356.000000  magneticMoment: [ Abs: 32.22164  Tot: -0.00000 ]
	SubspaceRotationAdjust: set factor to 0.406
ElecMinimize: Iter: 168  F: -2150.275291580242992  |grad|_K:  2.443e-07  alpha:  2.925e-01  linmin:  1.987e-05  t[s]:  13959.22
	FillingsUpdate:  mu: +0.094602392  nElectrons: 356.000000  magneticMoment: [ Abs: 32.22258  Tot: +0.00000 ]
	SubspaceRotationAdjust: set factor to 0.345
ElecMinimize: Iter: 169  F: -2150.275293383160715  |grad|_K:  2.514e-07  alpha:  1.735e-01  linmin:  4.269e-06  t[s]:  14037.72
	FillingsUpdate:  mu: +0.094560402  nElectrons: 356.000000  magneticMoment: [ Abs: 32.22298  Tot: -0.00000 ]
	SubspaceRotationAdjust: set factor to 0.351
ElecMinimize: Iter: 170  F: -2150.275295837081103  |grad|_K:  2.149e-07  alpha:  2.222e-01  linmin:  2.002e-05  t[s]:  14107.17
	FillingsUpdate:  mu: +0.094533463  nElectrons: 356.000000  magneticMoment: [ Abs: 32.22315  Tot: -0.00000 ]
	SubspaceRotationAdjust: set factor to 0.423
ElecMinimize: Iter: 171  F: -2150.275298522882622  |grad|_K:  2.101e-07  alpha:  3.336e-01  linmin:  4.385e-06  t[s]:  14184.97
	FillingsUpdate:  mu: +0.094550667  nElectrons: 356.000000  magneticMoment: [ Abs: 32.22308  Tot: +0.00000 ]
	SubspaceRotationAdjust: set factor to 0.424
ElecMinimize: Iter: 172  F: -2150.275300690070253  |grad|_K:  2.424e-07  alpha:  2.812e-01  linmin: -9.924e-06  t[s]:  14262.54
	FillingsUpdate:  mu: +0.094486607  nElectrons: 356.000000  magneticMoment: [ Abs: 32.22242  Tot: -0.00000 ]
	SubspaceRotationAdjust: set factor to 0.351
ElecMinimize: Iter: 173  F: -2150.275302301828106  |grad|_K:  2.368e-07  alpha:  1.556e-01  linmin: -1.947e-05  t[s]:  14340.25
	FillingsUpdate:  mu: +0.094554366  nElectrons: 356.000000  magneticMoment: [ Abs: 32.22250  Tot: -0.00000 ]
	SubspaceRotationAdjust: set factor to 0.384
ElecMinimize: Iter: 174  F: -2150.275304640782906  |grad|_K:  2.059e-07  alpha:  2.372e-01  linmin: -4.603e-05  t[s]:  14418.09
	FillingsUpdate:  mu: +0.094534686  nElectrons: 356.000000  magneticMoment: [ Abs: 32.22144  Tot: +0.00000 ]
	SubspaceRotationAdjust: set factor to 0.452
ElecMinimize: Iter: 175  F: -2150.275307188724582  |grad|_K:  2.116e-07  alpha:  3.414e-01  linmin: -4.809e-06  t[s]:  14494.33
	FillingsUpdate:  mu: +0.094471526  nElectrons: 356.000000  magneticMoment: [ Abs: 32.21983  Tot: +0.00000 ]
	SubspaceRotationAdjust: set factor to 0.402
ElecMinimize: Iter: 176  F: -2150.275309389898666  |grad|_K:  2.724e-07  alpha:  2.799e-01  linmin:  3.192e-05  t[s]:  14574.62
	FillingsUpdate:  mu: +0.094558735  nElectrons: 356.000000  magneticMoment: [ Abs: 32.21933  Tot: -0.00000 ]
	SubspaceRotationAdjust: set factor to 0.326
ElecMinimize: Iter: 177  F: -2150.275311247467471  |grad|_K:  2.489e-07  alpha:  1.462e-01  linmin:  4.726e-05  t[s]:  14652.87
	FillingsUpdate:  mu: +0.094554420  nElectrons: 356.000000  magneticMoment: [ Abs: 32.21746  Tot: -0.00000 ]
	SubspaceRotationAdjust: set factor to 0.366
ElecMinimize: Iter: 178  F: -2150.275314274759694  |grad|_K:  2.340e-07  alpha:  2.833e-01  linmin:  8.035e-05  t[s]:  14730.28
	FillingsUpdate:  mu: +0.094487672  nElectrons: 356.000000  magneticMoment: [ Abs: 32.21462  Tot: +0.00000 ]
	SubspaceRotationAdjust: set factor to 0.412
ElecMinimize: Iter: 179  F: -2150.275317438814000  |grad|_K:  2.584e-07  alpha:  3.354e-01  linmin:  5.990e-05  t[s]:  14806.69
	FillingsUpdate:  mu: +0.094556912  nElectrons: 356.000000  magneticMoment: [ Abs: 32.21290  Tot: +0.00000 ]
	SubspaceRotationAdjust: set factor to 0.371
ElecMinimize: Iter: 180  F: -2150.275319987573766  |grad|_K:  3.003e-07  alpha:  2.237e-01  linmin: -1.733e-06  t[s]:  14884.51
	FillingsUpdate:  mu: +0.094518763  nElectrons: 356.000000  magneticMoment: [ Abs: 32.21043  Tot: -0.00000 ]
	SubspaceRotationAdjust: set factor to 0.32
ElecMinimize: Iter: 181  F: -2150.275322789104393  |grad|_K:  2.629e-07  alpha:  1.760e-01  linmin:  4.503e-05  t[s]:  14960.20
	FillingsUpdate:  mu: +0.094583389  nElectrons: 356.000000  magneticMoment: [ Abs: 32.20836  Tot: +0.00000 ]
	SubspaceRotationAdjust: set factor to 0.381
ElecMinimize: Iter: 182  F: -2150.275326508439321  |grad|_K:  2.574e-07  alpha:  3.078e-01  linmin: -8.166e-05  t[s]:  15034.53
	FillingsUpdate:  mu: +0.094565092  nElectrons: 356.000000  magneticMoment: [ Abs: 32.20605  Tot: -0.00000 ]
	SubspaceRotationAdjust: set factor to 0.424
ElecMinimize: Iter: 183  F: -2150.275330395693800  |grad|_K:  2.685e-07  alpha:  3.305e-01  linmin: -3.802e-05  t[s]:  15111.08
	FillingsUpdate:  mu: +0.094508866  nElectrons: 356.000000  magneticMoment: [ Abs: 32.20387  Tot: -0.00000 ]
	SubspaceRotationAdjust: set factor to 0.36
ElecMinimize: Iter: 184  F: -2150.275333702713851  |grad|_K:  3.426e-07  alpha:  2.577e-01  linmin:  4.954e-05  t[s]:  15187.38
	FillingsUpdate:  mu: +0.094638825  nElectrons: 356.000000  magneticMoment: [ Abs: 32.20289  Tot: -0.00000 ]
	SubspaceRotationAdjust: set factor to 0.325
ElecMinimize: Iter: 185  F: -2150.275336880494251  |grad|_K:  2.850e-07  alpha:  1.597e-01  linmin:  1.895e-05  t[s]:  15265.35
	FillingsUpdate:  mu: +0.094686472  nElectrons: 356.000000  magneticMoment: [ Abs: 32.20074  Tot: +0.00000 ]
	SubspaceRotationAdjust: set factor to 0.385
ElecMinimize: Iter: 186  F: -2150.275341176650727  |grad|_K:  2.711e-07  alpha:  3.057e-01  linmin:  7.624e-05  t[s]:  15343.02
	FillingsUpdate:  mu: +0.094641257  nElectrons: 356.000000  magneticMoment: [ Abs: 32.19857  Tot: +0.00000 ]
	SubspaceRotationAdjust: set factor to 0.418
ElecMinimize: Iter: 187  F: -2150.275344863057853  |grad|_K:  3.048e-07  alpha:  2.906e-01  linmin:  6.050e-05  t[s]:  15420.86
	FillingsUpdate:  mu: +0.094735303  nElectrons: 356.000000  magneticMoment: [ Abs: 32.19806  Tot: +0.00000 ]
	SubspaceRotationAdjust: set factor to 0.363
ElecMinimize: Iter: 188  F: -2150.275347701213832  |grad|_K:  3.127e-07  alpha:  1.804e-01  linmin:  1.735e-05  t[s]:  15497.62
	FillingsUpdate:  mu: +0.094752419  nElectrons: 356.000000  magneticMoment: [ Abs: 32.19699  Tot: -0.00000 ]
[...]
	FillingsUpdate:  mu: +0.097281041  nElectrons: 356.000000  magneticMoment: [ Abs: 31.79754  Tot: +0.00000 ]
	SubspaceRotationAdjust: set factor to 0.329
ElecMinimize: Iter:  10  F: -2150.314370740328741  |grad|_K:  2.183e-07  alpha:  3.013e-01  linmin:  3.114e-06  t[s]:  77161.78
	FillingsUpdate:  mu: +0.097177083  nElectrons: 356.000000  magneticMoment: [ Abs: 31.79727  Tot: +0.00000 ]
	SubspaceRotationAdjust: set factor to 0.341
ElecMinimize: Iter:  11  F: -2150.314373585809790  |grad|_K:  1.541e-07  alpha:  3.416e-01  linmin: -2.561e-06  t[s]:  77238.16
	FillingsUpdate:  mu: +0.097194191  nElectrons: 356.000000  magneticMoment: [ Abs: 31.79781  Tot: -0.00000 ]
	SubspaceRotationAdjust: set factor to 0.387
ElecMinimize: Iter:  12  F: -2150.314375174739325  |grad|_K:  1.251e-07  alpha:  3.823e-01  linmin: -5.778e-07  t[s]:  77315.39
	FillingsUpdate:  mu: +0.097215881  nElectrons: 356.000000  magneticMoment: [ Abs: 31.79840  Tot: +0.00000 ]
	SubspaceRotationAdjust: set factor to 0.451
ElecMinimize: Iter:  13  F: -2150.314376121396435  |grad|_K:  9.688e-08  alpha:  3.459e-01  linmin: -1.210e-06  t[s]:  77394.01
	FillingsUpdate:  mu: +0.097176902  nElectrons: 356.000000  magneticMoment: [ Abs: 31.79857  Tot: -0.00000 ]
	SubspaceRotationAdjust: set factor to 0.482
ElecMinimize: Iter:  14  F: -2150.314376710181023  |grad|_K:  8.267e-08  alpha:  3.587e-01  linmin: -1.418e-06  t[s]:  77469.07
	FillingsUpdate:  mu: +0.097226483  nElectrons: 356.000000  magneticMoment: [ Abs: 31.79948  Tot: -0.00000 ]
	SubspaceRotationAdjust: set factor to 0.477
ElecMinimize: Iter:  15  F: -2150.314377094271094  |grad|_K:  7.118e-08  alpha:  3.214e-01  linmin:  1.456e-06  t[s]:  77548.31
	FillingsUpdate:  mu: +0.097174455  nElectrons: 356.000000  magneticMoment: [ Abs: 31.79946  Tot: +0.00000 ]
	SubspaceRotationAdjust: set factor to 0.48
ElecMinimize: Iter:  16  F: -2150.314377405810774  |grad|_K:  6.989e-08  alpha:  3.519e-01  linmin:  7.444e-06  t[s]:  77626.48
	FillingsUpdate:  mu: +0.097220205  nElectrons: 356.000000  magneticMoment: [ Abs: 31.80062  Tot: +0.00000 ]
	SubspaceRotationAdjust: set factor to 0.504
ElecMinimize: Iter:  17  F: -2150.314377748063180  |grad|_K:  7.139e-08  alpha:  4.009e-01  linmin:  9.766e-06  t[s]:  77702.39
ElecMinimize: Converged (|Delta F|<1.000000e-06 for 5 iters).
Setting wave functions to eigenvectors of Hamiltonian

# Ionic positions in lattice coordinates:
ion Ni   0.000539329296228  -0.005805027040135   0.153855792321004 1
ion Ni   0.001973634146945   0.503486772728299   0.150328312697735 1
ion Ni   0.252360553437616   0.747701112615237   0.051333787310865 1
ion Ni   0.500000000000000   0.000000000000000  -0.050000000000000 0
ion Ni   0.250000000000000   0.250000000000000  -0.150000000000000 0
ion Ni   0.250000000000000   0.750000000000000  -0.150000000000000 0
ion Ni  -0.250000000000000   0.250000000000000  -0.150000000000000 0
ion Ni  -0.250000000000000   0.750000000000000  -0.150000000000000 0
ion V   0.491946002283590  -0.001456724500190   0.160363913152172 1
ion V   0.247998557720070   0.243819418570716   0.055542092203480 1
ion V  -0.254621600376225   0.745039664535562   0.054731118553456 1
ion V   0.000000000000000   0.000000000000000  -0.050000000000000 0
ion V   0.000000000000000   0.500000000000000  -0.050000000000000 0
ion V   0.500000000000000   0.500000000000000  -0.050000000000000 0
ion Co   0.489428225262483   0.501258440298042   0.161460579589657 1
ion Cr  -0.251600929438179   0.244098211681582   0.053812541330092 1
ion O   0.256339181275938   0.275731696046323   0.155416490465640 1
ion O   0.235226696236278   0.747333923605114   0.145336789607656 1
ion O  -0.244644829850144   0.255648619163058   0.149135675558026 1
ion O  -0.272528185973843   0.725818063210538   0.145426824022720 1
ion O  -0.023860864504572   0.005568729405924   0.057345686943702 1
ion O   0.520986070795802  -0.000138757651585   0.054510478583904 1
ion O  -0.027035183296812   0.493051350466312   0.051666881826893 1
ion O   0.514350352825738   0.482986302329444   0.042691233594781 1
ion O   0.250000000000000   0.250000000000000  -0.050000000000000 0
ion O   0.250000000000000   0.750000000000000  -0.050000000000000 0
ion O  -0.250000000000000   0.250000000000000  -0.050000000000000 0
ion O  -0.250000000000000   0.750000000000000  -0.050000000000000 0
ion O   0.000000000000000   0.000000000000000  -0.150000000000000 0
ion O   0.500000000000000   0.000000000000000  -0.150000000000000 0
ion O   0.000000000000000   0.500000000000000  -0.150000000000000 0
ion O   0.500000000000000   0.500000000000000  -0.150000000000000 0
ion O  -0.008171129187395  -0.032720499777133   0.239742869682424 1
ion H   0.028096895738671   0.109690112614273   0.256846808972269 1

# Forces in Lattice coordinates:
force Ni   0.001266353369982  -0.004484309304893  -0.011898999150844 1
force Ni   0.004899200969326   0.000011593521607   0.008415273760642 1
force Ni   0.001322699681746   0.001880310200088  -0.064791727526252 1
force Ni  -0.050117598708942  -0.022488277416403  -0.728288429952633 0
force Ni  -0.007851435416454  -0.042894211828105  -0.003957799205931 0
force Ni   0.008246643703779   0.041174311405139  -0.310453478517257 0
force Ni  -0.013734586921620  -0.042493264222154  -0.441242596323255 0
force Ni   0.000866251617884   0.039024534990919  -0.060406015920293 0
force V  -0.008678842694923   0.001346229794464   0.018486556027460 1
force V  -0.002775580244997   0.000248893072753   0.014274119503473 1
force V  -0.004238841554194  -0.001159521758841   0.018507069791473 1
force V   0.066661691857377  -0.001432319396872  -0.523141241937958 0
force V   0.065785721516739   0.019734688256482  -0.633109185981550 0
force V  -0.081251470026162   0.050143134061288  -1.388458183018506 0
force Co  -0.000049694390909   0.003019806730229  -0.072411464910124 1
force Cr  -0.005752450503751  -0.007897612543512  -0.005485062049056 1
force O  -0.003626211970368  -0.004415593361096  -0.000327185552181 1
force O   0.003594516527342  -0.005817206972440   0.001272001483056 1
force O  -0.000713415709221   0.006067125867574  -0.038770659704483 1
force O   0.000389485123735  -0.000610578008295   0.036453533401108 1
force O   0.005828204568418  -0.001317707472140  -0.018252004709230 1
force O   0.001095359381952   0.004512281609119   0.043900485281434 1
force O  -0.000992682541506  -0.001459652106978  -0.003778691747391 1
force O  -0.003079318794655   0.000938246486088  -0.036335645066641 1
force O   0.087482483808495  -0.018771276118984   0.087423496387097 0
force O   0.185903832476938  -0.069267204029686   0.814116207525101 0
force O  -0.167144691192530   0.036063830832676   1.016377677998738 0
force O  -0.099206261182187   0.017109628511025   0.511111781981542 0
force O   0.015121892653733  -0.032185713931997   0.252091299074291 0
force O   0.023605836301167  -0.008313918901815   0.424005882477886 0
force O  -0.015759035592337   0.002250585957775   0.251923013512251 0
force O   0.013913597705530   0.040523630978897   0.762334004198859 0
force O  -0.002179821266807  -0.017592453139915  -0.022736182067211 1
force H  -0.004799551929794   0.022417409058866   0.026094004451397 1

# Energy components:
   Eewald =     5472.0319662283063735
       EH =     7407.3967388594373915
     Eloc =   -15178.6085836071633821
      Enl =     -578.9640783757149620
   Epulay =       -0.0004913455400888
      Exc =     -256.5367366202484050
       KE =      982.7722911442604072
        U =        1.5948825376464499
-------------------------------------
     Etot =    -2150.3140111790171431
       TS =        0.0003665690460385
-------------------------------------
        F =    -2150.3143777480631798

IonicMinimize: Iter:  19  F: -2150.314377748063180  |grad|_K:  6.192e-04  alpha:  1.000e+00  linmin:  3.094e-03  t[s]:  77713.89

#--- Lowdin population analysis ---
# oxidation-state Ni +3.534 +3.866 +3.182 +3.504 +3.845 +3.548 +3.556 +3.903
# magnetic-moments Ni -0.078 +1.086 +0.594 +0.951 +0.999 +0.397 +0.490 -1.065
# oxidation-state V +1.153 +0.992 +1.238 +1.042 +1.029 +1.246
# magnetic-moments V -2.914 +2.935 -2.080 -2.764 -2.726 +2.102
# oxidation-state Co +1.248
# magnetic-moments Co -2.742
# oxidation-state Cr +2.885
# magnetic-moments Cr +3.261
# oxidation-state O -0.903 -0.767 -0.800 -0.839 -0.786 -0.811 -0.815 -0.836 -0.840 -0.788 -0.820 -0.845 -0.682 -0.637 -0.712 -0.690 -0.711
# magnetic-moments O +0.018 +0.267 +0.045 +0.059 -0.052 +0.035 +0.072 -0.060 +0.165 +0.058 +0.025 +0.031 -0.063 +0.261 +0.083 -0.152 -0.082
# oxidation-state H +0.371
# magnetic-moments H +0.002


-------- Electronic minimization -----------
	FillingsUpdate:  mu: +0.103932610  nElectrons: 356.000000  magneticMoment: [ Abs: 31.79627  Tot: -0.00000 ]
ElecMinimize: Iter:   0  F: -2150.272053711901663  |grad|_K:  3.336e-05  alpha:  1.000e+00
	FillingsUpdate:  mu: +0.095020039  nElectrons: 356.000000  magneticMoment: [ Abs: 31.77324  Tot: -0.00000 ]
	SubspaceRotationAdjust: set factor to 0.555
ElecMinimize: Iter:   1  F: -2150.309956340779991  |grad|_K:  8.061e-06  alpha:  1.953e-01  linmin:  3.985e-04  t[s]:  77816.61
	FillingsUpdate:  mu: +0.098967944  nElectrons: 356.000000  magneticMoment: [ Abs: 31.81578  Tot: -0.00000 ]
	SubspaceRotationAdjust: set factor to 0.495
ElecMinimize: Iter:   2  F: -2150.312745813357196  |grad|_K:  4.523e-06  alpha:  2.470e-01  linmin:  6.398e-04  t[s]:  77892.12
	FillingsUpdate:  mu: +0.095463660  nElectrons: 356.000000  magneticMoment: [ Abs: 31.77837  Tot: +0.00000 ]
	SubspaceRotationAdjust: set factor to 0.389
ElecMinimize: Iter:   3  F: -2150.313425367717628  |grad|_K:  3.234e-06  alpha:  1.944e-01  linmin: -1.750e-04  t[s]:  77970.76
	FillingsUpdate:  mu: +0.097615104  nElectrons: 356.000000  magneticMoment: [ Abs: 31.79805  Tot: +0.00000 ]
	SubspaceRotationAdjust: set factor to 0.441
ElecMinimize: Iter:   4  F: -2150.313987846613145  |grad|_K:  2.051e-06  alpha:  3.066e-01  linmin:  1.661e-04  t[s]:  78046.02
	FillingsUpdate:  mu: +0.097667639  nElectrons: 356.000000  magneticMoment: [ Abs: 31.79802  Tot: +0.00000 ]
	SubspaceRotationAdjust: set factor to 0.554
ElecMinimize: Iter:   5  F: -2150.314253639776780  |grad|_K:  1.393e-06  alpha:  3.658e-01  linmin:  1.394e-06  t[s]:  78122.55
	FillingsUpdate:  mu: +0.096583579  nElectrons: 356.000000  magneticMoment: [ Abs: 31.78927  Tot: +0.00000 ]
	SubspaceRotationAdjust: set factor to 0.431
ElecMinimize: Iter:   6  F: -2150.314363421545750  |grad|_K:  1.140e-06  alpha:  3.239e-01  linmin: -2.652e-05  t[s]:  78200.16
	FillingsUpdate:  mu: +0.097515612  nElectrons: 356.000000  magneticMoment: [ Abs: 31.79770  Tot: +0.00000 ]
	SubspaceRotationAdjust: set factor to 0.276
ElecMinimize: Iter:   7  F: -2150.314400365321490  |grad|_K:  6.017e-07  alpha:  1.602e-01  linmin: -8.104e-05  t[s]:  78279.61
	FillingsUpdate:  mu: +0.097353171  nElectrons: 356.000000  magneticMoment: [ Abs: 31.79553  Tot: -0.00000 ]
	SubspaceRotationAdjust: set factor to 0.379
ElecMinimize: Iter:   8  F: -2150.314422582791849  |grad|_K:  3.503e-07  alpha:  3.489e-01  linmin: -7.676e-07  t[s]:  78354.93
	FillingsUpdate:  mu: +0.097176251  nElectrons: 356.000000  magneticMoment: [ Abs: 31.79426  Tot: +0.00000 ]
	SubspaceRotationAdjust: set factor to 0.364
ElecMinimize: Iter:   9  F: -2150.314428905893237  |grad|_K:  2.333e-07  alpha:  2.946e-01  linmin: -2.403e-06  t[s]:  78429.44
	FillingsUpdate:  mu: +0.097337185  nElectrons: 356.000000  magneticMoment: [ Abs: 31.79583  Tot: +0.00000 ]
	SubspaceRotationAdjust: set factor to 0.336
ElecMinimize: Iter:  10  F: -2150.314431745547608  |grad|_K:  1.618e-07  alpha:  2.984e-01  linmin:  6.176e-06  t[s]:  78506.82
	FillingsUpdate:  mu: +0.097245078  nElectrons: 356.000000  magneticMoment: [ Abs: 31.79465  Tot: -0.00000 ]
	SubspaceRotationAdjust: set factor to 0.361
ElecMinimize: Iter:  11  F: -2150.314433328207087  |grad|_K:  1.161e-07  alpha:  3.459e-01  linmin: -1.313e-07  t[s]:  78585.38
	FillingsUpdate:  mu: +0.097268144  nElectrons: 356.000000  magneticMoment: [ Abs: 31.79494  Tot: +0.00000 ]
	SubspaceRotationAdjust: set factor to 0.424
ElecMinimize: Iter:  12  F: -2150.314434237415753  |grad|_K:  9.418e-08  alpha:  3.856e-01  linmin:  1.026e-06  t[s]:  78663.43
	FillingsUpdate:  mu: +0.097286279  nElectrons: 356.000000  magneticMoment: [ Abs: 31.79509  Tot: +0.00000 ]
	SubspaceRotationAdjust: set factor to 0.496
ElecMinimize: Iter:  13  F: -2150.314434796149726  |grad|_K:  7.623e-08  alpha:  3.602e-01  linmin: -3.450e-06  t[s]:  78741.82
	FillingsUpdate:  mu: +0.097244061  nElectrons: 356.000000  magneticMoment: [ Abs: 31.79465  Tot: -0.00000 ]
	SubspaceRotationAdjust: set factor to 0.529
ElecMinimize: Iter:  14  F: -2150.314435178199346  |grad|_K:  6.912e-08  alpha:  3.759e-01  linmin:  2.894e-08  t[s]:  78812.13
	FillingsUpdate:  mu: +0.097298418  nElectrons: 356.000000  magneticMoment: [ Abs: 31.79531  Tot: -0.00000 ]
	SubspaceRotationAdjust: set factor to 0.491
ElecMinimize: Iter:  15  F: -2150.314435434290772  |grad|_K:  6.533e-08  alpha:  3.065e-01  linmin:  8.166e-06  t[s]:  78888.48
	FillingsUpdate:  mu: +0.097246743  nElectrons: 356.000000  magneticMoment: [ Abs: 31.79482  Tot: +0.00000 ]
	SubspaceRotationAdjust: set factor to 0.471
ElecMinimize: Iter:  16  F: -2150.314435676635185  |grad|_K:  6.427e-08  alpha:  3.250e-01  linmin: -7.999e-07  t[s]:  78967.88
ElecMinimize: Converged (|Delta F|<1.000000e-06 for 5 iters).
Setting wave functions to eigenvectors of Hamiltonian

# Ionic positions in lattice coordinates:
ion Ni   0.000083448061184  -0.005818027624432   0.153943781793377 1
ion Ni   0.001826448733456   0.503407933615908   0.150385635955624 1
ion Ni   0.252280769270492   0.747813107462898   0.051222646223452 1
ion Ni   0.500000000000000   0.000000000000000  -0.050000000000000 0
ion Ni   0.250000000000000   0.250000000000000  -0.150000000000000 0
ion Ni   0.250000000000000   0.750000000000000  -0.150000000000000 0
ion Ni  -0.250000000000000   0.250000000000000  -0.150000000000000 0
ion Ni  -0.250000000000000   0.750000000000000  -0.150000000000000 0
ion V   0.491078375130727  -0.001492020507731   0.160421794190677 1
ion V   0.247728190057898   0.243855346283708   0.055564302883203 1
ion V  -0.254962573294843   0.744935409134900   0.054864551054843 1
ion V   0.000000000000000   0.000000000000000  -0.050000000000000 0
ion V   0.000000000000000   0.500000000000000  -0.050000000000000 0
ion V   0.500000000000000   0.500000000000000  -0.050000000000000 0
ion Co   0.489101207575386   0.501412592515841   0.161551637658269 1
ion Cr  -0.251831895325011   0.243974057685368   0.053896426198971 1
ion O   0.256179166674798   0.275625034708050   0.155430903989698 1
ion O   0.234841563091603   0.747607343640520   0.145341533109480 1
ion O  -0.243872496358473   0.255260646886299   0.149187071420198 1
ion O  -0.273042167052070   0.725493791929503   0.145626237446970 1
ion O  -0.023600139880230   0.005486092144735   0.057348046314434 1
ion O   0.520831146040685   0.000047240235741   0.054680083857362 1
ion O  -0.027314675324711   0.492782969262510   0.051708435063384 1
ion O   0.513895671998689   0.482788662725626   0.042633941120139 1
ion O   0.250000000000000   0.250000000000000  -0.050000000000000 0
ion O   0.250000000000000   0.750000000000000  -0.050000000000000 0
ion O  -0.250000000000000   0.250000000000000  -0.050000000000000 0
ion O  -0.250000000000000   0.750000000000000  -0.050000000000000 0
ion O   0.000000000000000   0.000000000000000  -0.150000000000000 0
ion O   0.500000000000000   0.000000000000000  -0.150000000000000 0
ion O   0.000000000000000   0.500000000000000  -0.150000000000000 0
ion O   0.500000000000000   0.500000000000000  -0.150000000000000 0
ion O  -0.008337850253952  -0.033497680467144   0.239813834690349 1
ion H   0.023871062102384   0.110140824356024   0.257018458830616 1

# Forces in Lattice coordinates:
force Ni  -0.006071971349656  -0.003555195243547   0.013507906813173 1
force Ni   0.000424785628236  -0.001696966246747   0.028418260954048 1
force Ni  -0.003300876522056  -0.000950531683585   0.000375224551668 1
force Ni  -0.049668544157729  -0.021644690056213  -0.701183826500856 0
force Ni  -0.007088321659952  -0.042822220759544  -0.004902115765950 0
force Ni   0.008930789220780   0.041122578883941  -0.312456755017994 0
force Ni  -0.014443559861995  -0.042520302221914  -0.440704144906057 0
force Ni   0.000137299736622   0.038925845315422  -0.062211973724160 0
force V  -0.000599681394365   0.000077104456171  -0.000843972547080 1
force V  -0.000281630338048   0.000505014849712   0.009672415313303 1
force V   0.000735119907513  -0.000981282425277   0.000954346955974 1
force V   0.065464053164169  -0.001044810579243  -0.515443334390533 0
force V   0.064731783336541   0.019332519372280  -0.620669019129991 0
force V  -0.080778210158892   0.048670945199019  -1.386002182558221 0
force Co   0.002920693609058  -0.003441687733126  -0.071772440892952 1
force Cr   0.000387716515103  -0.005048559723406  -0.008684000077004 1
force O  -0.000903828255240   0.000899985604247   0.002582634775169 1
force O   0.001467461541416  -0.006778516263888  -0.008912725476101 1
force O  -0.003805725857750   0.005061632987245  -0.029296597208317 1
force O   0.002328356982844   0.000102858946208   0.012668153413383 1
force O  -0.001619736267071  -0.002299093574977  -0.014700729826272 1
force O   0.001467844953334   0.001480000996491   0.033282136186780 1
force O  -0.003650023840244   0.002116460832049  -0.004324879769196 1
force O  -0.004293272969471   0.001813330864309  -0.022192748824182 1
force O   0.087268303264069  -0.019210552839477   0.083902261494864 0
force O   0.185218470238919  -0.069137264723232   0.818267596344405 0
force O  -0.167671485357120   0.035924111410885   1.011692109231250 0
force O  -0.099913256342324   0.017320346113724   0.511570419665778 0
force O   0.013046223442826  -0.029989073816211   0.250070934297083 0
force O   0.024105330897874  -0.007594907527337   0.428592117224834 0
force O  -0.016231907360269   0.001653374943101   0.250797063125521 0
force O   0.015939739516524   0.038532145843202   0.758040817725927 0
force O   0.005522427356396   0.000404918769526   0.006476800255367 1
force H  -0.008716404024244   0.000717400561683  -0.005294455552671 1

# Energy components:
   Eewald =     5469.7980996899659658
       EH =     7405.1748875777757348
     Eloc =   -15174.1469138130760257
      Enl =     -578.9608994676880229
   Epulay =       -0.0004913455400888
      Exc =     -256.5336828262754807
       KE =      982.7600224651118879
        U =        1.5949086753706725
-------------------------------------
     Etot =    -2150.3140690443556196
       TS =        0.0003666322794177
-------------------------------------
        F =    -2150.3144356766351848

IonicMinimize: Iter:  20  F: -2150.314435676635185  |grad|_K:  3.943e-04  alpha:  1.000e+00  linmin: -9.053e-03  t[s]:  78979.24
IonicMinimize: Converged (|Delta F|<1.000000e-04 for 3 iters).

#--- Lowdin population analysis ---
# oxidation-state Ni +3.534 +3.866 +3.182 +3.504 +3.845 +3.548 +3.556 +3.902
# magnetic-moments Ni -0.078 +1.087 +0.594 +0.951 +0.999 +0.398 +0.489 -1.065
# oxidation-state V +1.153 +0.992 +1.239 +1.041 +1.028 +1.246
# magnetic-moments V -2.914 +2.934 -2.081 -2.765 -2.726 +2.102
# oxidation-state Co +1.247
# magnetic-moments Co -2.742
# oxidation-state Cr +2.885
# magnetic-moments Cr +3.262
# oxidation-state O -0.902 -0.767 -0.798 -0.840 -0.786 -0.811 -0.816 -0.835 -0.840 -0.788 -0.820 -0.845 -0.682 -0.636 -0.712 -0.690 -0.710
# magnetic-moments O +0.018 +0.264 +0.045 +0.059 -0.053 +0.035 +0.072 -0.060 +0.165 +0.058 +0.025 +0.031 -0.063 +0.261 +0.083 -0.152 -0.083
# oxidation-state H +0.371
# magnetic-moments H +0.002


Dumping 'run.ionpos' ... done
Dumping 'run.lattice' ... done
Dumping 'run.Ecomponents' ... done
End date and time: Fri May  9 17:46:57 2025  (Duration: 0-21:56:22.49)
Done!
