
*************** JDFTx 1.7.0  ***************

Start date and time: Mon May 19 23:24:55 2025
Executable /data2/jt577/jdftx_eat_withLibXC/build/jdftx with command-line: -i /data2/jt577/May_2025/Relax_Mag_litU/rel15+1_6/OH/runs/calc_/run.in
Running on hosts (process indices):  node3403 (0-8)
Divided in process groups (process indices):  0 (0)  1 (1)  2 (2)  3 (3)  4 (4)  5 (5)  6 (6)  7 (7)  8 (8)
Resource initialization completed at t[s]:      0.00
Run totals: 9 processes, 90 threads, 0 GPUs


Input parsed successfully to the following command list (including defaults):

add-mix 
add-U 	Ni d 0.235196 \
	Cr d 0.128623 \
	V d 0.113923 \
	Co d 0.121273
basis kpoint-dependent
coords-type Lattice
core-overlap-check vector
coulomb-interaction Periodic
davidson-band-ratio 1.1
dump End IonicPositions Lattice Ecomponents
dump-name run.$VAR
elec-cutoff 30
elec-eigen-algo Davidson
elec-ex-corr gga-x-rpbe gga-c-pbe
elec-smearing Fermi 0.001
electronic-minimize  \
	dirUpdateScheme      FletcherReeves \
	linminMethod         DirUpdateRecommended \
	nIterations          1000 \
	history              15 \
	knormThreshold       0 \
	energyDiffThreshold  1e-06 \
	nEnergyDiff          5 \
	alphaTstart          1 \
	alphaTmin            1e-10 \
	updateTestStepSize   yes \
	alphaTreduceFactor   0.1 \
	alphaTincreaseFactor 3 \
	nAlphaAdjustMax      3 \
	wolfeEnergy          0.0001 \
	wolfeGradient        0.9 \
	fdTest               no
exchange-regularization WignerSeitzTruncated
fluid None
fluid-ex-corr (null) lda-PZ
fluid-gummel-loop 10 1.000000e-05
fluid-minimize  \
	dirUpdateScheme      PolakRibiere \
	linminMethod         DirUpdateRecommended \
	nIterations          100 \
	history              15 \
	knormThreshold       0 \
	energyDiffThreshold  0 \
	nEnergyDiff          2 \
	alphaTstart          1 \
	alphaTmin            1e-10 \
	updateTestStepSize   yes \
	alphaTreduceFactor   0.1 \
	alphaTincreaseFactor 3 \
	nAlphaAdjustMax      3 \
	wolfeEnergy          0.0001 \
	wolfeGradient        0.9 \
	fdTest               no
fluid-solvent H2O 55.338 ScalarEOS \
	epsBulk 78.4 \
	pMol 0.92466 \
	epsInf 1.77 \
	Pvap 1.06736e-10 \
	sigmaBulk 4.62e-05 \
	Rvdw 2.61727 \
	Res 1.42 \
	tauNuc 343133 \
	poleEl 15 7 1
forces-output-coords Positions
initial-magnetic-moments  \
	Ni 1 -1 1 -1 1 1 -1 1 \
	Cr 1 \
	V -1 1 -1 -1 -1 \
	Co -1 1
initial-state run.$VAR
ion Ni  0.000000000000000   0.000000000000000   0.150000000000000 1
ion Ni  0.500000000000000   0.000000000000000   0.150000000000000 1
ion Ni  0.250000000000000   0.750000000000000   0.050000000000000 1
ion Ni -0.250000000000000   0.250000000000000   0.050000000000000 1
ion Ni  0.500000000000000   0.000000000000000  -0.050000000000000 0
ion Ni  0.500000000000000   0.500000000000000  -0.050000000000000 0
ion Ni  0.250000000000000   0.750000000000000  -0.150000000000000 0
ion Ni -0.250000000000000   0.750000000000000  -0.150000000000000 0
ion Cr  0.000000000000000   0.500000000000000   0.150000000000000 1
ion V  0.500000000000000   0.500000000000000   0.150000000000000 1
ion V  0.250000000000000   0.250000000000000   0.050000000000000 1
ion V -0.250000000000000   0.750000000000000   0.050000000000000 1
ion V  0.000000000000000   0.000000000000000  -0.050000000000000 0
ion V  0.000000000000000   0.500000000000000  -0.050000000000000 0
ion Co  0.250000000000000   0.250000000000000  -0.150000000000000 0
ion Co -0.250000000000000   0.250000000000000  -0.150000000000000 0
ion O  0.250000000000000   0.250000000000000   0.150000000000000 1
ion O  0.250000000000000   0.750000000000000   0.150000000000000 1
ion O -0.250000000000000   0.250000000000000   0.150000000000000 1
ion O -0.250000000000000   0.750000000000000   0.150000000000000 1
ion O  0.000000000000000   0.000000000000000   0.050000000000000 1
ion O  0.500000000000000   0.000000000000000   0.050000000000000 1
ion O  0.000000000000000   0.500000000000000   0.050000000000000 1
ion O  0.500000000000000   0.500000000000000   0.050000000000000 1
ion O  0.250000000000000   0.250000000000000  -0.050000000000000 0
ion O  0.250000000000000   0.750000000000000  -0.050000000000000 0
ion O -0.250000000000000   0.250000000000000  -0.050000000000000 0
ion O -0.250000000000000   0.750000000000000  -0.050000000000000 0
ion O  0.000000000000000   0.000000000000000  -0.150000000000000 0
ion O  0.500000000000000   0.000000000000000  -0.150000000000000 0
ion O  0.000000000000000   0.500000000000000  -0.150000000000000 0
ion O  0.500000000000000   0.500000000000000  -0.150000000000000 0
ion O -0.008040138212305  -0.008269777577920   0.235000196603227 1
ion H  0.095742872057713   0.094897636790041   0.252810710255288 1
ion-species SG15/$ID_ONCV_PBE.upf
ion-width 0
ionic-minimize  \
	dirUpdateScheme      L-BFGS \
	linminMethod         DirUpdateRecommended \
	nIterations          1000 \
	history              15 \
	knormThreshold       0.0001 \
	energyDiffThreshold  0.0001 \
	nEnergyDiff          3 \
	alphaTstart          1 \
	alphaTmin            1e-10 \
	updateTestStepSize   yes \
	alphaTreduceFactor   0.1 \
	alphaTincreaseFactor 3 \
	nAlphaAdjustMax      3 \
	wolfeEnergy          0.0001 \
	wolfeGradient        0.9 \
	fdTest               no
kpoint   0.500000000000   0.500000000000   0.500000000000  1.00000000000000
kpoint-folding 3 3 1 
latt-move-scale 1 1 1
latt-scale 1 1 1 
lattice  \
	   8.140000000000001    8.140000000000001    0.000000000000000  \
	   8.140000000000001   -8.140000000000001    0.000000000000000  \
	   0.000000000000000    0.000000000000000   40.700000000000003 
lattice-minimize  \
	dirUpdateScheme      L-BFGS \
	linminMethod         DirUpdateRecommended \
	nIterations          0 \
	history              15 \
	knormThreshold       0 \
	energyDiffThreshold  1e-06 \
	nEnergyDiff          2 \
	alphaTstart          1 \
	alphaTmin            1e-10 \
	updateTestStepSize   yes \
	alphaTreduceFactor   0.1 \
	alphaTincreaseFactor 3 \
	nAlphaAdjustMax      3 \
	wolfeEnergy          0.0001 \
	wolfeGradient        0.9 \
	fdTest               no
lcao-params -1 1e-06 0.001
pcm-variant GLSSA13
spintype z-spin
subspace-rotation-factor 1 yes
symmetries none
symmetry-threshold 0.0001


Applied RMS atom displacement 0 bohrs to make symmetries exact.

---------- Initializing the Grid ----------
R = 
[         8.14         8.14            0  ]
[         8.14        -8.14            0  ]
[            0            0         40.7  ]
unit cell volume = 5393.53
G =
[   0.385945   0.385945         -0  ]
[   0.385945  -0.385945         -0  ]
[         -0         -0   0.154378  ]
Minimum fftbox size, Smin = [  60  60  204  ]
Chosen fftbox size, S = [  60  60  210  ]

---------- Exchange Correlation functional ----------
Initialized LibXC exchange functional 'Hammer, Hansen, and Norskov'
Initialized LibXC correlation functional 'Perdew, Burke & Ernzerhof'

---------- Setting up pseudopotentials ----------
Width of ionic core gaussian charges (only for fluid interactions / plotting) set to 0

Reading pseudopotential file '/data2/jt577/jdftx_eat_withLibXC/build/pseudopotentials/SG15/Ni_ONCV_PBE.upf':
  'Ni' pseudopotential, 'PBE' functional
  Generated using ONCVPSP code by D. R. Hamann
  Author: Martin Schlipf and Francois Gygi  Date: 150915.
  18 valence electrons, 4 orbitals, 6 projectors, 1292 radial grid points, with lMax = 2
  Transforming local potential to a uniform radial grid of dG=0.02 with 1419 points.
  Transforming nonlocal projectors to a uniform radial grid of dG=0.02 with 528 points.
    3S    l: 0   occupation:  2.0   eigenvalue: -4.081355
    3P    l: 1   occupation:  6.0   eigenvalue: -2.623460
    4S    l: 0   occupation:  2.0   eigenvalue: -0.207378
    3D    l: 2   occupation:  8.0   eigenvalue: -0.326118
  Transforming atomic orbitals to a uniform radial grid of dG=0.02 with 528 points.
  WARNING: large normalization error in atomic orbital 1s (integral: 0.000006).
  Core radius for overlap checks: 1.99 bohrs.
  Reading pulay file /data2/jt577/jdftx_eat_withLibXC/build/pseudopotentials/SG15/Ni_ONCV_PBE.pulay ... using dE_dnG = -7.250568e-04 computed for Ecut = 30.

Reading pseudopotential file '/data2/jt577/jdftx_eat_withLibXC/build/pseudopotentials/SG15/Cr_ONCV_PBE.upf':
  'Cr' pseudopotential, 'PBE' functional
  Generated using ONCVPSP code by D. R. Hamann
  Author: Martin Schlipf and Francois Gygi  Date: 150915.
  14 valence electrons, 4 orbitals, 6 projectors, 1160 radial grid points, with lMax = 2
  Transforming local potential to a uniform radial grid of dG=0.02 with 1419 points.
  Transforming nonlocal projectors to a uniform radial grid of dG=0.02 with 528 points.
    3S    l: 0   occupation:  2.0   eigenvalue: -2.865131
    3P    l: 1   occupation:  6.0   eigenvalue: -1.810600
    4S    l: 0   occupation:  2.0   eigenvalue: -0.180525
    3D    l: 2   occupation:  4.0   eigenvalue: -0.220312
  Transforming atomic orbitals to a uniform radial grid of dG=0.02 with 528 points.
  WARNING: large normalization error in atomic orbital 1s (integral: 0.000001).
  Core radius for overlap checks: 2.10 bohrs.
  Reading pulay file /data2/jt577/jdftx_eat_withLibXC/build/pseudopotentials/SG15/Cr_ONCV_PBE.pulay ... using dE_dnG = -9.817895e-06 computed for Ecut = 30.

Reading pseudopotential file '/data2/jt577/jdftx_eat_withLibXC/build/pseudopotentials/SG15/V_ONCV_PBE.upf':
  'V' pseudopotential, 'PBE' functional
  Generated using ONCVPSP code by D. R. Hamann
  Author: Martin Schlipf and Francois Gygi  Date: 150915.
  13 valence electrons, 4 orbitals, 6 projectors, 1536 radial grid points, with lMax = 2
  Transforming local potential to a uniform radial grid of dG=0.02 with 1419 points.
  Transforming nonlocal projectors to a uniform radial grid of dG=0.02 with 528 points.
    3S    l: 0   occupation:  2.0   eigenvalue: -2.581105
    3P    l: 1   occupation:  6.0   eigenvalue: -1.618486
    4S    l: 0   occupation:  2.0   eigenvalue: -0.172804
    3D    l: 2   occupation:  3.0   eigenvalue: -0.189795
  Transforming atomic orbitals to a uniform radial grid of dG=0.02 with 528 points.
  Core radius for overlap checks: 1.80 bohrs.
  Reading pulay file /data2/jt577/jdftx_eat_withLibXC/build/pseudopotentials/SG15/V_ONCV_PBE.pulay ... using dE_dnG = -1.698632e-04 computed for Ecut = 30.

Reading pseudopotential file '/data2/jt577/jdftx_eat_withLibXC/build/pseudopotentials/SG15/Co_ONCV_PBE.upf':
  'Co' pseudopotential, 'PBE' functional
  Generated using ONCVPSP code by D. R. Hamann
  Author: Martin Schlipf and Francois Gygi  Date: 150915.
  17 valence electrons, 4 orbitals, 6 projectors, 1388 radial grid points, with lMax = 2
  Transforming local potential to a uniform radial grid of dG=0.02 with 1419 points.
  Transforming nonlocal projectors to a uniform radial grid of dG=0.02 with 528 points.
    3S    l: 0   occupation:  2.0   eigenvalue: -3.763303
    3P    l: 1   occupation:  6.0   eigenvalue: -2.412101
    4S    l: 0   occupation:  2.0   eigenvalue: -0.201022
    3D    l: 2   occupation:  7.0   eigenvalue: -0.301498
  Transforming atomic orbitals to a uniform radial grid of dG=0.02 with 528 points.
  Core radius for overlap checks: 1.94 bohrs.
  Reading pulay file /data2/jt577/jdftx_eat_withLibXC/build/pseudopotentials/SG15/Co_ONCV_PBE.pulay ... using dE_dnG = -9.787391e-05 computed for Ecut = 30.

Reading pseudopotential file '/data2/jt577/jdftx_eat_withLibXC/build/pseudopotentials/SG15/O_ONCV_PBE.upf':
  'O' pseudopotential, 'PBE' functional
  Generated using ONCVPSP code by D. R. Hamann
  Author: Martin Schlipf and Francois Gygi  Date: 150915.
  6 valence electrons, 2 orbitals, 4 projectors, 936 radial grid points, with lMax = 1
  Transforming local potential to a uniform radial grid of dG=0.02 with 1419 points.
  Transforming nonlocal projectors to a uniform radial grid of dG=0.02 with 528 points.
    2S    l: 0   occupation:  2.0   eigenvalue: -0.880572
    2P    l: 1   occupation:  4.0   eigenvalue: -0.331869
  Transforming atomic orbitals to a uniform radial grid of dG=0.02 with 528 points.
  Core radius for overlap checks: 1.29 bohrs.
  Reading pulay file /data2/jt577/jdftx_eat_withLibXC/build/pseudopotentials/SG15/O_ONCV_PBE.pulay ... using dE_dnG = -8.209514e-03 computed for Ecut = 30.

Reading pseudopotential file '/data2/jt577/jdftx_eat_withLibXC/build/pseudopotentials/SG15/H_ONCV_PBE.upf':
  'H' pseudopotential, 'PBE' functional
  Generated using ONCVPSP code by D. R. Hamann
  Author: Martin Schlipf and Francois Gygi  Date: 150915.
  1 valence electrons, 1 orbitals, 2 projectors, 1166 radial grid points, with lMax = 0
  Transforming local potential to a uniform radial grid of dG=0.02 with 1419 points.
  Transforming nonlocal projectors to a uniform radial grid of dG=0.02 with 528 points.
    1S    l: 0   occupation:  1.0   eigenvalue: -0.238602
  Transforming atomic orbitals to a uniform radial grid of dG=0.02 with 528 points.
  Core radius for overlap checks: 1.01 bohrs.
  Reading pulay file /data2/jt577/jdftx_eat_withLibXC/build/pseudopotentials/SG15/H_ONCV_PBE.pulay ... using dE_dnG = -8.245991e-05 computed for Ecut = 30.

Initialized 6 species with 34 total atoms.

Folded 1 k-points by 3x3x1 to 9 k-points.

---------- Setting up k-points, bands, fillings ----------
No reducable k-points. 
Computing the number of bands and number of electrons
Calculating initial fillings.
nElectrons: 360.000000   nBands: 229   nStates: 18

----- Setting up reduced wavefunction bases (one per k-point) -----
average nbasis = 42312.000 , ideal nbasis = 42330.081

---------- Setting up ewald sum ----------
Optimum gaussian width for ewald sums = 3.887061 bohr.
Real space sum over 605 unit cells with max indices [  5  5  2  ]
Reciprocal space sum over 5915 terms with max indices [  6  6  17  ]

---------- Allocating electronic variables ----------
Initializing wave functions:  linear combination of atomic orbitals
Ni (M=1) pseudo-atom majority spin occupations:   s ( 1 0.5 )  p ( 3 )  d ( 5 )
Ni (M=1) pseudo-atom minority spin occupations:   s ( 1 0 )  p ( 3 )  d ( 4.5 )
Cr (M=1) pseudo-atom majority spin occupations:   s ( 1 0 )  p ( 3 )  d ( 3.5 )
Cr (M=1) pseudo-atom minority spin occupations:   s ( 1 0 )  p ( 3 )  d ( 2.5 )
V (M=1) pseudo-atom majority spin occupations:   s ( 1 0 )  p ( 3 )  d ( 3 )
V (M=1) pseudo-atom minority spin occupations:   s ( 1 0 )  p ( 3 )  d ( 2 )
Co (M=1) pseudo-atom majority spin occupations:   s ( 1 0 )  p ( 3 )  d ( 5 )
Co (M=1) pseudo-atom minority spin occupations:   s ( 1 0 )  p ( 3 )  d ( 4 )
O pseudo-atom occupations:   s ( 2 )  p ( 4 )
H pseudo-atom occupations:   s ( 1 )
	FillingsUpdate:  mu: +1.886303921  nElectrons: 360.000000  magneticMoment: [ Abs: 0.30526  Tot: -0.00000 ]
LCAOMinimize: Iter:   0  F: -2020.2119449602926124  |grad|_K:  2.694e-02  alpha:  1.000e+00
LCAOMinimize: 	Step increased F by 3.068585e+02, reducing alpha to 2.542897e-02.
	FillingsUpdate:  mu: +1.488341066  nElectrons: 360.000000  magneticMoment: [ Abs: 0.26620  Tot: +0.00000 ]
LCAOMinimize: Iter:   1  F: -2031.4331323491587682  |grad|_K:  1.405e-02  alpha:  2.543e-02  linmin: -5.327e-02  cgtest:  1.544e+00  t[s]:     54.65
LCAOMinimize: Encountered beta<0, resetting CG.
LCAOMinimize: 	Wrong curvature in test step, increasing alphaT to 7.628690e-02.
	FillingsUpdate:  mu: +1.200055326  nElectrons: 360.000000  magneticMoment: [ Abs: 0.31760  Tot: +0.00000 ]
LCAOMinimize: Iter:   2  F: -2037.5867572555757761  |grad|_K:  1.756e-02  alpha: -4.415e-02  linmin: -5.777e-02  cgtest:  7.050e-01  t[s]:     68.40
LCAOMinimize: 	Step increased F by 4.153122e+02, reducing alpha to 2.105657e-02.
	FillingsUpdate:  mu: +0.583249543  nElectrons: 360.000000  magneticMoment: [ Abs: 6.48067  Tot: -0.00000 ]
LCAOMinimize: Iter:   3  F: -2073.7961978371222358  |grad|_K:  4.679e-02  alpha:  2.106e-02  linmin:  1.606e-01  cgtest: -1.402e-01  t[s]:     93.45
LCAOMinimize: 	Bad step direction: g.d > 0.
LCAOMinimize: 	Undoing step.
LCAOMinimize: 	Step failed: resetting search direction.
	FillingsUpdate:  mu: +0.583249543  nElectrons: 360.000000  magneticMoment: [ Abs: 6.48067  Tot: -0.00000 ]
LCAOMinimize: Iter:   4  F: -2073.7961978371222358  |grad|_K:  4.679e-02  alpha:  0.000e+00
	FillingsUpdate:  mu: +0.110738765  nElectrons: 360.000000  magneticMoment: [ Abs: 6.81670  Tot: +0.00000 ]
LCAOMinimize: Iter:   5  F: -2074.7941979802485548  |grad|_K:  2.361e-02  alpha:  9.732e-03  linmin:  4.380e-02  cgtest: -1.682e+00  t[s]:    118.58
LCAOMinimize: 	Wrong curvature in test step, increasing alphaT to 2.919511e-02.
	FillingsUpdate:  mu: +0.115510275  nElectrons: 360.000000  magneticMoment: [ Abs: 7.20339  Tot: +0.00000 ]
LCAOMinimize: Iter:   6  F: -2075.6460169203824080  |grad|_K:  2.446e-02  alpha: -8.530e-02  linmin: -6.479e-03  cgtest:  9.695e-01  t[s]:    132.18
LCAOMinimize: 	Step increased F by 2.691017e+02, reducing alpha to 3.664410e-02.
LCAOMinimize: 	Step increased F by 3.828836e+01, reducing alpha to 3.664410e-03.
	FillingsUpdate:  mu: +0.147089676  nElectrons: 360.000000  magneticMoment: [ Abs: 8.07541  Tot: +0.00000 ]
LCAOMinimize: Iter:   7  F: -2078.0322302818508433  |grad|_K:  2.039e-02  alpha:  3.664e-03  linmin: -9.261e-02  cgtest:  7.656e-01  t[s]:    167.49
	FillingsUpdate:  mu: +0.045107420  nElectrons: 360.000000  magneticMoment: [ Abs: 8.78298  Tot: -0.00000 ]
LCAOMinimize: Iter:   8  F: -2079.3512196277547446  |grad|_K:  1.137e-02  alpha:  5.037e-03  linmin: -7.670e-02  cgtest:  9.574e-01  t[s]:    182.13
LCAOMinimize: Encountered beta<0, resetting CG.
	FillingsUpdate:  mu: +0.018819946  nElectrons: 360.000000  magneticMoment: [ Abs: 8.64863  Tot: -0.00000 ]
LCAOMinimize: Iter:   9  F: -2079.8871111927478523  |grad|_K:  9.012e-03  alpha:  9.553e-03  linmin:  1.162e-02  cgtest:  1.831e-02  t[s]:    196.79
LCAOMinimize: 	Wrong curvature in test step, increasing alphaT to 2.865809e-02.
	FillingsUpdate:  mu: +0.007689320  nElectrons: 360.000000  magneticMoment: [ Abs: 8.71285  Tot: -0.00000 ]
LCAOMinimize: Iter:  10  F: -2080.5285337658906428  |grad|_K:  8.397e-03  alpha: -1.006e-01  linmin: -2.769e-02  cgtest:  9.368e-01  t[s]:    210.70
LCAOMinimize: Encountered beta<0, resetting CG.
	FillingsUpdate:  mu: -0.031754489  nElectrons: 360.000000  magneticMoment: [ Abs: 9.11782  Tot: +0.00000 ]
LCAOMinimize: Iter:  11  F: -2081.3216604801345966  |grad|_K:  2.078e-02  alpha:  9.617e-02  linmin: -7.451e-03  cgtest: -9.165e-01  t[s]:    225.37
	FillingsUpdate:  mu: +0.064824356  nElectrons: 360.000000  magneticMoment: [ Abs: 9.57934  Tot: +0.00000 ]
LCAOMinimize: Iter:  12  F: -2090.5893555455049864  |grad|_K:  8.530e-03  alpha:  1.000e-02  linmin: -5.013e-02  cgtest:  8.459e-01  t[s]:    240.03
LCAOMinimize: Encountered beta<0, resetting CG.
LCAOMinimize: 	Predicted alpha/alphaT>3.000000, increasing alphaT to 3.000522e-02.
	FillingsUpdate:  mu: +0.156111285  nElectrons: 360.000000  magneticMoment: [ Abs: 7.58484  Tot: -0.00000 ]
LCAOMinimize: Iter:  13  F: -2091.5766536761457246  |grad|_K:  1.062e-02  alpha:  2.537e-02  linmin:  1.454e-02  cgtest: -3.658e-02  t[s]:    258.95
	FillingsUpdate:  mu: +0.327094483  nElectrons: 360.000000  magneticMoment: [ Abs: 6.62531  Tot: +0.00000 ]
LCAOMinimize: Iter:  14  F: -2091.9956087666068925  |grad|_K:  1.606e-02  alpha:  1.576e-02  linmin: -4.787e-03  cgtest:  9.207e-01  t[s]:    273.68
	FillingsUpdate:  mu: +0.202958092  nElectrons: 360.000000  magneticMoment: [ Abs: 7.70496  Tot: +0.00000 ]
LCAOMinimize: Iter:  15  F: -2094.1120179056324559  |grad|_K:  6.571e-03  alpha:  1.595e-02  linmin:  1.522e-02  cgtest: -2.746e-01  t[s]:    288.24
	FillingsUpdate:  mu: +0.279823210  nElectrons: 360.000000  magneticMoment: [ Abs: 8.32620  Tot: +0.00000 ]
LCAOMinimize: Iter:  16  F: -2094.3647904950253178  |grad|_K:  8.390e-03  alpha:  1.466e-02  linmin:  2.819e-03  cgtest:  8.132e-01  t[s]:    302.89
	FillingsUpdate:  mu: +0.023447738  nElectrons: 360.000000  magneticMoment: [ Abs: 7.96490  Tot: +0.00000 ]
LCAOMinimize: Iter:  17  F: -2095.2575604027506415  |grad|_K:  3.233e-03  alpha:  3.058e-02  linmin:  5.975e-02  cgtest: -1.600e-01  t[s]:    317.68
	FillingsUpdate:  mu: -0.009859256  nElectrons: 360.000000  magneticMoment: [ Abs: 8.35248  Tot: +0.00000 ]
LCAOMinimize: Iter:  18  F: -2095.4153714883491375  |grad|_K:  3.044e-03  alpha:  5.083e-02  linmin:  1.378e-03  cgtest:  6.338e-01  t[s]:    332.31
	FillingsUpdate:  mu: +0.052925929  nElectrons: 360.000000  magneticMoment: [ Abs: 8.65366  Tot: +0.00000 ]
LCAOMinimize: Iter:  19  F: -2095.5218641698143074  |grad|_K:  1.560e-03  alpha:  2.238e-02  linmin:  6.371e-03  cgtest: -3.117e-02  t[s]:    346.95
	FillingsUpdate:  mu: +0.040158764  nElectrons: 360.000000  magneticMoment: [ Abs: 8.76368  Tot: +0.00000 ]
LCAOMinimize: Iter:  20  F: -2095.5430663394217845  |grad|_K:  1.329e-03  alpha:  1.961e-02  linmin: -8.130e-05  cgtest: -6.187e-03  t[s]:    361.64
	FillingsUpdate:  mu: +0.031266696  nElectrons: 360.000000  magneticMoment: [ Abs: 8.67069  Tot: -0.00000 ]
LCAOMinimize: Iter:  21  F: -2095.5622520182428161  |grad|_K:  5.104e-04  alpha:  2.259e-02  linmin: -2.541e-03  cgtest:  4.641e-02  t[s]:    376.40
LCAOMinimize: 	Predicted alpha/alphaT>3.000000, increasing alphaT to 6.778425e-02.
	FillingsUpdate:  mu: +0.033838862  nElectrons: 360.000000  magneticMoment: [ Abs: 9.18066  Tot: -0.00000 ]
LCAOMinimize: Iter:  22  F: -2095.5822041424203235  |grad|_K:  6.492e-04  alpha:  1.488e-01  linmin: -8.700e-04  cgtest: -4.642e-02  t[s]:    395.36
	FillingsUpdate:  mu: +0.039294711  nElectrons: 360.000000  magneticMoment: [ Abs: 9.36874  Tot: +0.00000 ]
LCAOMinimize: Iter:  23  F: -2095.5901310760027627  |grad|_K:  9.713e-04  alpha:  3.697e-02  linmin: -4.798e-05  cgtest: -4.574e-02  t[s]:    410.10
	FillingsUpdate:  mu: +0.042460917  nElectrons: 360.000000  magneticMoment: [ Abs: 10.08597  Tot: -0.00000 ]
LCAOMinimize: Iter:  24  F: -2095.6107753035712449  |grad|_K:  9.657e-04  alpha:  4.501e-02  linmin: -9.730e-05  cgtest:  9.850e-01  t[s]:    424.86
	FillingsUpdate:  mu: +0.034512707  nElectrons: 360.000000  magneticMoment: [ Abs: 10.19978  Tot: +0.00000 ]
LCAOMinimize: Iter:  25  F: -2095.6190651010692818  |grad|_K:  6.379e-04  alpha:  2.006e-02  linmin:  3.372e-03  cgtest: -6.390e-02  t[s]:    439.45
LCAOMinimize: 	Predicted alpha/alphaT>3.000000, increasing alphaT to 6.018686e-02.
	FillingsUpdate:  mu: +0.040349579  nElectrons: 360.000000  magneticMoment: [ Abs: 10.28617  Tot: +0.00000 ]
LCAOMinimize: Iter:  26  F: -2095.6317878727522839  |grad|_K:  3.497e-04  alpha:  6.793e-02  linmin: -1.775e-03  cgtest:  2.335e-01  t[s]:    458.43
	FillingsUpdate:  mu: +0.042521519  nElectrons: 360.000000  magneticMoment: [ Abs: 10.41077  Tot: +0.00000 ]
LCAOMinimize: Iter:  27  F: -2095.6360023998354336  |grad|_K:  4.934e-04  alpha:  7.162e-02  linmin:  1.639e-04  cgtest:  1.288e-02  t[s]:    473.25
	FillingsUpdate:  mu: +0.039681120  nElectrons: 360.000000  magneticMoment: [ Abs: 10.67337  Tot: +0.00000 ]
LCAOMinimize: Iter:  28  F: -2095.6397972977765676  |grad|_K:  3.762e-04  alpha:  3.442e-02  linmin:  4.352e-04  cgtest:  2.082e-02  t[s]:    488.18
LCAOMinimize: 	Predicted alpha/alphaT>3.000000, increasing alphaT to 1.032678e-01.
	FillingsUpdate:  mu: +0.041684987  nElectrons: 360.000000  magneticMoment: [ Abs: 11.61898  Tot: -0.00000 ]
LCAOMinimize: Iter:  29  F: -2095.6528850180043264  |grad|_K:  4.793e-04  alpha:  1.874e-01  linmin: -1.411e-03  cgtest:  1.956e-01  t[s]:    507.35
	FillingsUpdate:  mu: +0.043567286  nElectrons: 360.000000  magneticMoment: [ Abs: 12.17242  Tot: -0.00000 ]
LCAOMinimize: Iter:  30  F: -2095.6615765662768354  |grad|_K:  7.377e-04  alpha:  9.453e-02  linmin:  7.317e-04  cgtest: -3.416e-01  t[s]:    522.39
LCAOMinimize: None of the convergence criteria satisfied after 30 iterations.


---- Citations for features of the code used in this run ----

   Software package:
      R. Sundararaman, K. Letchworth-Weaver, K.A. Schwarz, D. Gunceler, Y. Ozhabes and T.A. Arias, 'JDFTx: software for joint density-functional theory', SoftwareX 6, 278 (2017)

   Simplified rotationally-invariant DFT+U:
      S. L. Dudarev et al., Phys. Rev. B 57, 1505 (1998)

   LibXC library of exchange-correlation functions:
      M. A. L. Marques, M. J. T. Oliveira and T. Burnus, Comput. Phys. Commun. 183, 2272 (2012)

   Hammer, Hansen, and Norskov exchange functional:
      B. Hammer, L. B. Hansen, and J. K. Nørskov, Phys. Rev. B 59, 7413 (1999)

   Perdew, Burke & Ernzerhof correlation functional:
      J. P. Perdew, K. Burke, and M. Ernzerhof, Phys. Rev. Lett. 77, 3865 (1996)

   Pseudopotentials:
      M Schlipf and F Gygi, Comput. Phys. Commun. 196, 36 (2015)

   Total energy minimization with Auxiliary Hamiltonian:
      C. Freysoldt, S. Boeck, and J. Neugebauer, Phys. Rev. B 79, 241103(R) (2009)

This list may not be complete. Please suggest additional citations or
report any other bugs at https://github.com/shankar1729/jdftx/issues

Initialization completed successfully at t[s]:    529.47


-------- Electronic minimization -----------
	FillingsUpdate:  mu: +0.043567286  nElectrons: 360.000000  magneticMoment: [ Abs: 12.17242  Tot: -0.00000 ]
ElecMinimize: Iter:   0  F: -2095.661576566276835  |grad|_K:  1.195e-03  alpha:  1.000e+00
	FillingsUpdate:  mu: +0.859515179  nElectrons: 360.000000  magneticMoment: [ Abs: 13.83809  Tot: +0.00000 ]
	SubspaceRotationAdjust: set factor to 0.985
ElecMinimize: Iter:   1  F: -2161.294498405775357  |grad|_K:  1.816e-03  alpha:  4.641e-01  linmin:  2.046e-02  t[s]:    615.21
ElecMinimize: 	Step increased F by 5.377317e+01, reducing alpha to 1.015742e-02.
	FillingsUpdate:  mu: +0.662421177  nElectrons: 360.000000  magneticMoment: [ Abs: 13.22823  Tot: -0.00000 ]
	SubspaceRotationAdjust: set factor to 1.28
ElecMinimize: Iter:   2  F: -2165.855202363516582  |grad|_K:  9.555e-04  alpha:  1.016e-02  linmin: -1.742e-03  t[s]:    736.46
ElecMinimize: 	Predicted alpha/alphaT>3.000000, increasing alphaT to 3.047225e-02.
	FillingsUpdate:  mu: +0.854954992  nElectrons: 360.000000  magneticMoment: [ Abs: 12.51964  Tot: +0.00000 ]
	SubspaceRotationAdjust: set factor to 1.11
ElecMinimize: Iter:   3  F: -2175.400003937175370  |grad|_K:  1.176e-03  alpha:  4.927e-02  linmin: -1.674e-03  t[s]:    845.20
	FillingsUpdate:  mu: +0.664649117  nElectrons: 360.000000  magneticMoment: [ Abs: 14.25482  Tot: +0.00000 ]
	SubspaceRotationAdjust: set factor to 0.632
ElecMinimize: Iter:   4  F: -2194.559368970131800  |grad|_K:  1.219e-03  alpha:  6.563e-02  linmin:  9.798e-04  t[s]:    923.81
	FillingsUpdate:  mu: +0.314309963  nElectrons: 360.000000  magneticMoment: [ Abs: 14.46560  Tot: -0.00000 ]
	SubspaceRotationAdjust: set factor to 0.55
ElecMinimize: Iter:   5  F: -2198.887536085649117  |grad|_K:  7.466e-04  alpha:  1.291e-02  linmin: -1.520e-03  t[s]:   1005.38
	FillingsUpdate:  mu: +0.178578471  nElectrons: 360.000000  magneticMoment: [ Abs: 14.94353  Tot: +0.00000 ]
	SubspaceRotationAdjust: set factor to 0.536
ElecMinimize: Iter:   6  F: -2202.003717979112935  |grad|_K:  5.363e-04  alpha:  1.971e-02  linmin: -9.533e-04  t[s]:   1082.76
ElecMinimize: 	Predicted alpha/alphaT>3.000000, increasing alphaT to 5.912532e-02.
	FillingsUpdate:  mu: +0.530987779  nElectrons: 360.000000  magneticMoment: [ Abs: 17.94559  Tot: -0.00000 ]
	SubspaceRotationAdjust: set factor to 0.376
ElecMinimize: Iter:   7  F: -2205.793411597994236  |grad|_K:  6.486e-04  alpha:  5.328e-02  linmin:  6.722e-04  t[s]:   1193.33
	FillingsUpdate:  mu: +0.528815208  nElectrons: 360.000000  magneticMoment: [ Abs: 18.57252  Tot: +0.00000 ]
	SubspaceRotationAdjust: set factor to 0.287
ElecMinimize: Iter:   8  F: -2206.461271340240728  |grad|_K:  5.502e-04  alpha:  9.191e-03  linmin: -5.790e-04  t[s]:   1272.29
	FillingsUpdate:  mu: +0.297416887  nElectrons: 360.000000  magneticMoment: [ Abs: 18.93209  Tot: -0.00000 ]
	SubspaceRotationAdjust: set factor to 0.241
ElecMinimize: Iter:   9  F: -2207.572091614235433  |grad|_K:  4.460e-04  alpha:  1.749e-02  linmin:  4.872e-05  t[s]:   1351.30
	FillingsUpdate:  mu: +0.292092492  nElectrons: 360.000000  magneticMoment: [ Abs: 19.00213  Tot: +0.00000 ]
	SubspaceRotationAdjust: set factor to 0.196
ElecMinimize: Iter:  10  F: -2208.239358128697404  |grad|_K:  4.055e-04  alpha:  1.939e-02  linmin: -1.098e-04  t[s]:   1425.25
	FillingsUpdate:  mu: +0.275171016  nElectrons: 360.000000  magneticMoment: [ Abs: 18.81644  Tot: +0.00000 ]
	SubspaceRotationAdjust: set factor to 0.164
ElecMinimize: Iter:  11  F: -2208.915119313126979  |grad|_K:  3.507e-04  alpha:  2.342e-02  linmin:  3.614e-04  t[s]:   1503.41
	FillingsUpdate:  mu: +0.254093161  nElectrons: 360.000000  magneticMoment: [ Abs: 18.68713  Tot: +0.00000 ]
	SubspaceRotationAdjust: set factor to 0.145
ElecMinimize: Iter:  12  F: -2209.236581849918821  |grad|_K:  3.187e-04  alpha:  1.731e-02  linmin: -2.764e-05  t[s]:   1578.90
	FillingsUpdate:  mu: +0.206647594  nElectrons: 360.000000  magneticMoment: [ Abs: 18.59946  Tot: +0.00000 ]
	SubspaceRotationAdjust: set factor to 0.135
ElecMinimize: Iter:  13  F: -2209.717224909320521  |grad|_K:  2.883e-04  alpha:  2.622e-02  linmin: -1.254e-04  t[s]:   1661.33
	FillingsUpdate:  mu: +0.126053839  nElectrons: 360.000000  magneticMoment: [ Abs: 18.65341  Tot: +0.00000 ]
	SubspaceRotationAdjust: set factor to 0.154
ElecMinimize: Iter:  14  F: -2210.208026939153115  |grad|_K:  2.526e-04  alpha:  3.183e-02  linmin: -1.010e-04  t[s]:   1733.54
	FillingsUpdate:  mu: +0.136615936  nElectrons: 360.000000  magneticMoment: [ Abs: 18.82220  Tot: -0.00000 ]
	SubspaceRotationAdjust: set factor to 0.21
ElecMinimize: Iter:  15  F: -2210.615499745016677  |grad|_K:  2.318e-04  alpha:  3.490e-02  linmin: -6.975e-05  t[s]:   1815.23
	FillingsUpdate:  mu: +0.107264460  nElectrons: 360.000000  magneticMoment: [ Abs: 19.19705  Tot: -0.00000 ]
	SubspaceRotationAdjust: set factor to 0.241
ElecMinimize: Iter:  16  F: -2211.032981713924528  |grad|_K:  2.368e-04  alpha:  4.234e-02  linmin: -2.050e-04  t[s]:   1892.61
	FillingsUpdate:  mu: +0.096003428  nElectrons: 360.000000  magneticMoment: [ Abs: 20.69471  Tot: -0.00000 ]
	SubspaceRotationAdjust: set factor to 0.285
ElecMinimize: Iter:  17  F: -2211.496468578151507  |grad|_K:  1.992e-04  alpha:  4.439e-02  linmin:  5.064e-04  t[s]:   1969.18
	FillingsUpdate:  mu: +0.129586263  nElectrons: 360.000000  magneticMoment: [ Abs: 21.36757  Tot: -0.00000 ]
	SubspaceRotationAdjust: set factor to 0.324
ElecMinimize: Iter:  18  F: -2211.677955888802444  |grad|_K:  1.983e-04  alpha:  3.612e-02  linmin: -4.863e-05  t[s]:   2049.69
	FillingsUpdate:  mu: +0.157644300  nElectrons: 360.000000  magneticMoment: [ Abs: 21.75779  Tot: +0.00000 ]
	SubspaceRotationAdjust: set factor to 0.372
ElecMinimize: Iter:  19  F: -2212.021697280027183  |grad|_K:  1.870e-04  alpha:  4.893e-02  linmin:  5.173e-05  t[s]:   2133.41
	FillingsUpdate:  mu: +0.165051390  nElectrons: 360.000000  magneticMoment: [ Abs: 22.19414  Tot: +0.00000 ]
	SubspaceRotationAdjust: set factor to 0.459
ElecMinimize: Iter:  20  F: -2212.283281579672348  |grad|_K:  1.901e-04  alpha:  4.434e-02  linmin:  1.849e-05  t[s]:   2210.01
	FillingsUpdate:  mu: +0.138904536  nElectrons: 360.000000  magneticMoment: [ Abs: 22.51686  Tot: -0.00000 ]
	SubspaceRotationAdjust: set factor to 0.614
ElecMinimize: Iter:  21  F: -2212.527361773936263  |grad|_K:  1.800e-04  alpha:  3.921e-02  linmin: -7.810e-07  t[s]:   2291.00
	FillingsUpdate:  mu: +0.113248356  nElectrons: 360.000000  magneticMoment: [ Abs: 22.55877  Tot: +0.00000 ]
	SubspaceRotationAdjust: set factor to 0.704
ElecMinimize: Iter:  22  F: -2212.703018886321843  |grad|_K:  1.704e-04  alpha:  3.079e-02  linmin:  9.234e-06  t[s]:   2365.69
	FillingsUpdate:  mu: +0.107180772  nElectrons: 360.000000  magneticMoment: [ Abs: 22.54142  Tot: -0.00000 ]
	SubspaceRotationAdjust: set factor to 0.79
ElecMinimize: Iter:  23  F: -2212.873326000960787  |grad|_K:  1.856e-04  alpha:  3.384e-02  linmin:  8.466e-06  t[s]:   2446.35
	FillingsUpdate:  mu: +0.084209724  nElectrons: 360.000000  magneticMoment: [ Abs: 22.42165  Tot: +0.00000 ]
	SubspaceRotationAdjust: set factor to 0.96
ElecMinimize: Iter:  24  F: -2213.002610135558825  |grad|_K:  1.754e-04  alpha:  1.960e-02  linmin: -2.939e-05  t[s]:   2525.03
	FillingsUpdate:  mu: +0.126722771  nElectrons: 360.000000  magneticMoment: [ Abs: 22.66186  Tot: +0.00000 ]
	SubspaceRotationAdjust: set factor to 0.653
ElecMinimize: Iter:  25  F: -2213.127431818078094  |grad|_K:  2.491e-04  alpha:  2.275e-02  linmin:  4.727e-05  t[s]:   2605.28
	FillingsUpdate:  mu: +0.125770710  nElectrons: 360.000000  magneticMoment: [ Abs: 23.33881  Tot: +0.00000 ]
	SubspaceRotationAdjust: set factor to 0.612
ElecMinimize: Iter:  26  F: -2213.246101339103916  |grad|_K:  1.864e-04  alpha:  1.135e-02  linmin: -1.336e-05  t[s]:   2680.66
	FillingsUpdate:  mu: +0.140548531  nElectrons: 360.000000  magneticMoment: [ Abs: 23.94603  Tot: +0.00000 ]
	SubspaceRotationAdjust: set factor to 0.6
ElecMinimize: Iter:  27  F: -2213.348013266821454  |grad|_K:  1.813e-04  alpha:  1.578e-02  linmin: -7.131e-05  t[s]:   2759.67
	FillingsUpdate:  mu: +0.137105404  nElectrons: 360.000000  magneticMoment: [ Abs: 24.71926  Tot: +0.00000 ]
	SubspaceRotationAdjust: set factor to 0.599
ElecMinimize: Iter:  28  F: -2213.491668017132724  |grad|_K:  1.784e-04  alpha:  2.373e-02  linmin:  1.021e-04  t[s]:   2834.45
	FillingsUpdate:  mu: +0.124329955  nElectrons: 360.000000  magneticMoment: [ Abs: 25.11959  Tot: -0.00000 ]
	SubspaceRotationAdjust: set factor to 0.631
ElecMinimize: Iter:  29  F: -2213.561059939905590  |grad|_K:  1.734e-04  alpha:  1.581e-02  linmin: -3.359e-06  t[s]:   2918.73
	FillingsUpdate:  mu: +0.114017108  nElectrons: 360.000000  magneticMoment: [ Abs: 25.42935  Tot: +0.00000 ]
	SubspaceRotationAdjust: set factor to 0.727
ElecMinimize: Iter:  30  F: -2213.656283081098081  |grad|_K:  1.505e-04  alpha:  1.806e-02  linmin:  7.779e-06  t[s]:   2994.32
	FillingsUpdate:  mu: +0.141584440  nElectrons: 360.000000  magneticMoment: [ Abs: 25.71388  Tot: +0.00000 ]
	SubspaceRotationAdjust: set factor to 0.814
ElecMinimize: Iter:  31  F: -2213.731027972330594  |grad|_K:  1.559e-04  alpha:  1.982e-02  linmin:  1.867e-04  t[s]:   3074.46
	FillingsUpdate:  mu: +0.140518576  nElectrons: 360.000000  magneticMoment: [ Abs: 25.72764  Tot: +0.00000 ]
	SubspaceRotationAdjust: set factor to 0.876
ElecMinimize: Iter:  32  F: -2213.735475237470382  |grad|_K:  1.577e-04  alpha:  7.408e-04  linmin: -4.609e-04  t[s]:   3153.45
ElecMinimize: 	Predicted alpha/alphaT>3.000000, increasing alphaT to 2.222489e-03.
ElecMinimize: 	Predicted alpha/alphaT>3.000000, increasing alphaT to 6.667468e-03.
	FillingsUpdate:  mu: +0.118640172  nElectrons: 360.000000  magneticMoment: [ Abs: 25.84689  Tot: -0.00000 ]
	SubspaceRotationAdjust: set factor to 1.22
ElecMinimize: Iter:  33  F: -2213.776916472864286  |grad|_K:  1.265e-04  alpha:  5.366e-03  linmin:  8.329e-05  t[s]:   3299.93
	FillingsUpdate:  mu: +0.110753662  nElectrons: 360.000000  magneticMoment: [ Abs: 25.86433  Tot: +0.00000 ]
	SubspaceRotationAdjust: set factor to 1.5
ElecMinimize: Iter:  34  F: -2213.782038797889527  |grad|_K:  1.271e-04  alpha:  1.682e-03  linmin: -1.278e-04  t[s]:   3378.29
	FillingsUpdate:  mu: +0.107884935  nElectrons: 360.000000  magneticMoment: [ Abs: 25.88074  Tot: -0.00000 ]
	SubspaceRotationAdjust: set factor to 1.91
ElecMinimize: Iter:  35  F: -2213.788408546418850  |grad|_K:  1.339e-04  alpha:  1.979e-03  linmin:  7.752e-05  t[s]:   3458.78
	FillingsUpdate:  mu: +0.112625141  nElectrons: 360.000000  magneticMoment: [ Abs: 25.88674  Tot: +0.00000 ]
	SubspaceRotationAdjust: set factor to 1.78
ElecMinimize: Iter:  36  F: -2213.791736847406355  |grad|_K:  1.499e-04  alpha:  1.121e-03  linmin: -1.209e-05  t[s]:   3538.45
	FillingsUpdate:  mu: +0.113343787  nElectrons: 360.000000  magneticMoment: [ Abs: 25.88651  Tot: -0.00000 ]
	SubspaceRotationAdjust: set factor to 1.51
ElecMinimize: Iter:  37  F: -2213.795880592699177  |grad|_K:  1.547e-04  alpha:  1.036e-03  linmin:  1.992e-05  t[s]:   3616.95
	FillingsUpdate:  mu: +0.110387115  nElectrons: 360.000000  magneticMoment: [ Abs: 25.88059  Tot: -0.00000 ]
	SubspaceRotationAdjust: set factor to 1.31
ElecMinimize: Iter:  38  F: -2213.799516614402819  |grad|_K:  1.475e-04  alpha:  8.818e-04  linmin:  1.154e-05  t[s]:   3691.55
	FillingsUpdate:  mu: +0.106124572  nElectrons: 360.000000  magneticMoment: [ Abs: 25.87132  Tot: +0.00000 ]
	SubspaceRotationAdjust: set factor to 1.22
ElecMinimize: Iter:  39  F: -2213.802804320782343  |grad|_K:  1.366e-04  alpha:  8.737e-04  linmin:  1.307e-05  t[s]:   3770.41
	FillingsUpdate:  mu: +0.100444514  nElectrons: 360.000000  magneticMoment: [ Abs: 25.86098  Tot: -0.00000 ]
	SubspaceRotationAdjust: set factor to 1.21
ElecMinimize: Iter:  40  F: -2213.805656436064965  |grad|_K:  1.271e-04  alpha:  8.857e-04  linmin:  8.039e-06  t[s]:   3848.69
	FillingsUpdate:  mu: +0.099441948  nElectrons: 360.000000  magneticMoment: [ Abs: 25.85095  Tot: +0.00000 ]
	SubspaceRotationAdjust: set factor to 1.24
ElecMinimize: Iter:  41  F: -2213.808214860123826  |grad|_K:  1.209e-04  alpha:  9.120e-04  linmin:  3.626e-06  t[s]:   3931.51
	FillingsUpdate:  mu: +0.097410903  nElectrons: 360.000000  magneticMoment: [ Abs: 25.84257  Tot: +0.00000 ]
	SubspaceRotationAdjust: set factor to 1.24
ElecMinimize: Iter:  42  F: -2213.810612125560056  |grad|_K:  1.178e-04  alpha:  9.411e-04  linmin:  3.619e-07  t[s]:   4006.78
	FillingsUpdate:  mu: +0.094434465  nElectrons: 360.000000  magneticMoment: [ Abs: 25.83735  Tot: -0.00000 ]
	SubspaceRotationAdjust: set factor to 1.16
ElecMinimize: Iter:  43  F: -2213.812988339655021  |grad|_K:  1.168e-04  alpha:  9.796e-04  linmin: -1.315e-06  t[s]:   4076.65
	FillingsUpdate:  mu: +0.092701214  nElectrons: 360.000000  magneticMoment: [ Abs: 25.83767  Tot: -0.00000 ]
	SubspaceRotationAdjust: set factor to 1.01
ElecMinimize: Iter:  44  F: -2213.815461262044664  |grad|_K:  1.160e-04  alpha:  1.035e-03  linmin: -7.256e-07  t[s]:   4154.05
	FillingsUpdate:  mu: +0.091188643  nElectrons: 360.000000  magneticMoment: [ Abs: 25.84631  Tot: -0.00000 ]
	SubspaceRotationAdjust: set factor to 0.845
ElecMinimize: Iter:  45  F: -2213.818069138513692  |grad|_K:  1.132e-04  alpha:  1.108e-03  linmin:  2.979e-06  t[s]:   4230.95
	FillingsUpdate:  mu: +0.090102056  nElectrons: 360.000000  magneticMoment: [ Abs: 25.86377  Tot: -0.00000 ]
	SubspaceRotationAdjust: set factor to 0.692
ElecMinimize: Iter:  46  F: -2213.820734747282586  |grad|_K:  1.075e-04  alpha:  1.193e-03  linmin:  8.782e-06  t[s]:   4312.74
	FillingsUpdate:  mu: +0.088682411  nElectrons: 360.000000  magneticMoment: [ Abs: 25.88845  Tot: +0.00000 ]
	SubspaceRotationAdjust: set factor to 0.569
ElecMinimize: Iter:  47  F: -2213.823325218322680  |grad|_K:  9.980e-05  alpha:  1.290e-03  linmin:  1.350e-05  t[s]:   4390.94
	FillingsUpdate:  mu: +0.084794715  nElectrons: 360.000000  magneticMoment: [ Abs: 25.91845  Tot: +0.00000 ]
	SubspaceRotationAdjust: set factor to 0.475
ElecMinimize: Iter:  48  F: -2213.825751041230887  |grad|_K:  9.177e-05  alpha:  1.404e-03  linmin:  1.519e-05  t[s]:   4471.77
	FillingsUpdate:  mu: +0.081838191  nElectrons: 360.000000  magneticMoment: [ Abs: 25.95221  Tot: -0.00000 ]
	SubspaceRotationAdjust: set factor to 0.401
ElecMinimize: Iter:  49  F: -2213.827992294403884  |grad|_K:  8.446e-05  alpha:  1.535e-03  linmin:  1.435e-05  t[s]:   4550.68
	FillingsUpdate:  mu: +0.081035735  nElectrons: 360.000000  magneticMoment: [ Abs: 25.98866  Tot: +0.00000 ]
	SubspaceRotationAdjust: set factor to 0.342
ElecMinimize: Iter:  50  F: -2213.830070530365447  |grad|_K:  7.827e-05  alpha:  1.678e-03  linmin:  1.227e-05  t[s]:   4626.80
	FillingsUpdate:  mu: +0.080600493  nElectrons: 360.000000  magneticMoment: [ Abs: 26.02720  Tot: +0.00000 ]
	SubspaceRotationAdjust: set factor to 0.292
ElecMinimize: Iter:  51  F: -2213.832022257904100  |grad|_K:  7.313e-05  alpha:  1.832e-03  linmin:  9.782e-06  t[s]:   4706.59
	FillingsUpdate:  mu: +0.080959896  nElectrons: 360.000000  magneticMoment: [ Abs: 26.06741  Tot: +0.00000 ]
	SubspaceRotationAdjust: set factor to 0.248
ElecMinimize: Iter:  52  F: -2213.833885567569723  |grad|_K:  6.882e-05  alpha:  2.001e-03  linmin:  7.062e-06  t[s]:   4786.72
	FillingsUpdate:  mu: +0.079675363  nElectrons: 360.000000  magneticMoment: [ Abs: 26.10933  Tot: +0.00000 ]
	SubspaceRotationAdjust: set factor to 0.209
ElecMinimize: Iter:  53  F: -2213.835694457898171  |grad|_K:  6.513e-05  alpha:  2.190e-03  linmin:  3.940e-06  t[s]:   4859.20
	FillingsUpdate:  mu: +0.080430455  nElectrons: 360.000000  magneticMoment: [ Abs: 26.15287  Tot: +0.00000 ]
	SubspaceRotationAdjust: set factor to 0.177
ElecMinimize: Iter:  54  F: -2213.837476905082895  |grad|_K:  6.194e-05  alpha:  2.407e-03  linmin:  2.125e-07  t[s]:   4936.15
	FillingsUpdate:  mu: +0.081096819  nElectrons: 360.000000  magneticMoment: [ Abs: 26.19803  Tot: -0.00000 ]
	SubspaceRotationAdjust: set factor to 0.151
ElecMinimize: Iter:  55  F: -2213.839255113303352  |grad|_K:  5.921e-05  alpha:  2.652e-03  linmin: -4.144e-06  t[s]:   5015.70
	FillingsUpdate:  mu: +0.082635578  nElectrons: 360.000000  magneticMoment: [ Abs: 26.24483  Tot: +0.00000 ]
	SubspaceRotationAdjust: set factor to 0.132
	SubspaceRotationAdjust: resetting CG because factor has changed by 0.132157
ElecMinimize: 	State modified externally: resetting search direction.
ElecMinimize: Iter:  56  F: -2213.841047029055062  |grad|_K:  5.490e-05  alpha:  2.920e-03
ElecMinimize: 	Predicted alpha/alphaT>3.000000, increasing alphaT to 8.760978e-03.
ElecMinimize: 	Predicted alpha/alphaT>3.000000, increasing alphaT to 2.628293e-02.
ElecMinimize: 	Predicted alpha/alphaT>3.000000, increasing alphaT to 7.884880e-02.
	FillingsUpdate:  mu: +0.137156823  nElectrons: 360.000000  magneticMoment: [ Abs: 26.34660  Tot: -0.00000 ]
	SubspaceRotationAdjust: set factor to 0.0891
ElecMinimize: Iter:  57  F: -2214.030149821147461  |grad|_K:  6.044e-05  alpha:  3.357e-01  linmin: -9.101e-03  t[s]:   5254.51
	FillingsUpdate:  mu: +0.123711710  nElectrons: 360.000000  magneticMoment: [ Abs: 26.78675  Tot: -0.00000 ]
	SubspaceRotationAdjust: set factor to 0.0614
ElecMinimize: Iter:  58  F: -2214.184613190986965  |grad|_K:  4.994e-05  alpha:  2.184e-01  linmin:  5.597e-04  t[s]:   5330.78
	FillingsUpdate:  mu: +0.109695119  nElectrons: 360.000000  magneticMoment: [ Abs: 27.11934  Tot: +0.00000 ]
	SubspaceRotationAdjust: set factor to 0.0911
ElecMinimize: Iter:  59  F: -2214.341270774516033  |grad|_K:  3.688e-05  alpha:  3.541e-01  linmin: -2.536e-03  t[s]:   5410.18
	FillingsUpdate:  mu: +0.107761071  nElectrons: 360.000000  magneticMoment: [ Abs: 27.21577  Tot: -0.00000 ]
	SubspaceRotationAdjust: set factor to 0.0845
ElecMinimize: Iter:  60  F: -2214.426481628980582  |grad|_K:  3.122e-05  alpha:  3.388e-01  linmin: -6.200e-04  t[s]:   5490.50
	FillingsUpdate:  mu: +0.106162878  nElectrons: 360.000000  magneticMoment: [ Abs: 27.43549  Tot: -0.00000 ]
	SubspaceRotationAdjust: set factor to 0.0654
ElecMinimize: Iter:  61  F: -2214.470200989246223  |grad|_K:  2.482e-05  alpha:  2.499e-01  linmin:  1.854e-04  t[s]:   5566.43
	FillingsUpdate:  mu: +0.102207518  nElectrons: 360.000000  magneticMoment: [ Abs: 27.48067  Tot: +0.00000 ]
	SubspaceRotationAdjust: set factor to 0.0776
ElecMinimize: Iter:  62  F: -2214.509452894560127  |grad|_K:  2.019e-05  alpha:  3.637e-01  linmin: -5.665e-04  t[s]:   5642.54
	FillingsUpdate:  mu: +0.101479420  nElectrons: 360.000000  magneticMoment: [ Abs: 27.48499  Tot: +0.00000 ]
	SubspaceRotationAdjust: set factor to 0.0872
ElecMinimize: Iter:  63  F: -2214.537593897800889  |grad|_K:  1.928e-05  alpha:  3.865e-01  linmin: -4.289e-04  t[s]:   5720.85
	FillingsUpdate:  mu: +0.107111641  nElectrons: 360.000000  magneticMoment: [ Abs: 27.62863  Tot: +0.00000 ]
	SubspaceRotationAdjust: set factor to 0.0723
ElecMinimize: Iter:  64  F: -2214.558448335985304  |grad|_K:  1.759e-05  alpha:  3.147e-01  linmin: -6.183e-05  t[s]:   5800.11
	FillingsUpdate:  mu: +0.101720618  nElectrons: 360.000000  magneticMoment: [ Abs: 27.69898  Tot: +0.00000 ]
	SubspaceRotationAdjust: set factor to 0.0627
ElecMinimize: Iter:  65  F: -2214.574487452327048  |grad|_K:  1.419e-05  alpha:  2.963e-01  linmin: -3.556e-04  t[s]:   5881.95
	FillingsUpdate:  mu: +0.102278010  nElectrons: 360.000000  magneticMoment: [ Abs: 27.90810  Tot: -0.00000 ]
	SubspaceRotationAdjust: set factor to 0.0717
ElecMinimize: Iter:  66  F: -2214.587980110391527  |grad|_K:  1.294e-05  alpha:  3.763e-01  linmin: -1.452e-04  t[s]:   5960.29
	FillingsUpdate:  mu: +0.103432821  nElectrons: 360.000000  magneticMoment: [ Abs: 28.11925  Tot: +0.00000 ]
	SubspaceRotationAdjust: set factor to 0.0759
ElecMinimize: Iter:  67  F: -2214.598297776090931  |grad|_K:  1.093e-05  alpha:  3.497e-01  linmin: -1.363e-04  t[s]:   6035.78
	FillingsUpdate:  mu: +0.100219975  nElectrons: 360.000000  magneticMoment: [ Abs: 28.23625  Tot: +0.00000 ]
	SubspaceRotationAdjust: set factor to 0.0694
ElecMinimize: Iter:  68  F: -2214.605671441548566  |grad|_K:  9.684e-06  alpha:  3.502e-01  linmin: -2.951e-04  t[s]:   6117.41
	FillingsUpdate:  mu: +0.102849926  nElectrons: 360.000000  magneticMoment: [ Abs: 28.43417  Tot: +0.00000 ]
	SubspaceRotationAdjust: set factor to 0.0685
ElecMinimize: Iter:  69  F: -2214.611727499779136  |grad|_K:  8.566e-06  alpha:  3.634e-01  linmin: -8.320e-05  t[s]:   6197.22
	FillingsUpdate:  mu: +0.102700503  nElectrons: 360.000000  magneticMoment: [ Abs: 28.57945  Tot: +0.00000 ]
	SubspaceRotationAdjust: set factor to 0.0796
ElecMinimize: Iter:  70  F: -2214.616563883927029  |grad|_K:  7.607e-06  alpha:  3.750e-01  linmin: -8.101e-05  t[s]:   6280.18
	FillingsUpdate:  mu: +0.101256888  nElectrons: 360.000000  magneticMoment: [ Abs: 28.69743  Tot: +0.00000 ]
	SubspaceRotationAdjust: set factor to 0.083
ElecMinimize: Iter:  71  F: -2214.620483350041013  |grad|_K:  7.115e-06  alpha:  3.852e-01  linmin: -1.433e-04  t[s]:   6361.80
	FillingsUpdate:  mu: +0.102484504  nElectrons: 360.000000  magneticMoment: [ Abs: 28.88166  Tot: +0.00000 ]
	SubspaceRotationAdjust: set factor to 0.0796
ElecMinimize: Iter:  72  F: -2214.623951773596673  |grad|_K:  6.870e-06  alpha:  3.881e-01  linmin: -5.918e-05  t[s]:   6441.65
	FillingsUpdate:  mu: +0.102793445  nElectrons: 360.000000  magneticMoment: [ Abs: 29.02618  Tot: -0.00000 ]
	SubspaceRotationAdjust: set factor to 0.0848
ElecMinimize: Iter:  73  F: -2214.627080843493331  |grad|_K:  6.146e-06  alpha:  3.776e-01  linmin: -7.276e-05  t[s]:   6520.46
	FillingsUpdate:  mu: +0.102617190  nElectrons: 360.000000  magneticMoment: [ Abs: 29.17978  Tot: +0.00000 ]
	SubspaceRotationAdjust: set factor to 0.0951
ElecMinimize: Iter:  74  F: -2214.629737784712233  |grad|_K:  5.714e-06  alpha:  3.998e-01  linmin: -3.370e-05  t[s]:   6599.72
	FillingsUpdate:  mu: +0.102110347  nElectrons: 360.000000  magneticMoment: [ Abs: 29.33773  Tot: +0.00000 ]
	SubspaceRotationAdjust: set factor to 0.0962
ElecMinimize: Iter:  75  F: -2214.631939656196209  |grad|_K:  5.399e-06  alpha:  3.847e-01  linmin: -4.001e-05  t[s]:   6681.74
	FillingsUpdate:  mu: +0.101159975  nElectrons: 360.000000  magneticMoment: [ Abs: 29.43498  Tot: +0.00000 ]
	SubspaceRotationAdjust: set factor to 0.0858
ElecMinimize: Iter:  76  F: -2214.633773949298757  |grad|_K:  5.161e-06  alpha:  3.586e-01  linmin:  1.056e-05  t[s]:   6762.64
	FillingsUpdate:  mu: +0.101804657  nElectrons: 360.000000  magneticMoment: [ Abs: 29.59236  Tot: +0.00000 ]
	SubspaceRotationAdjust: set factor to 0.0824
ElecMinimize: Iter:  77  F: -2214.635549409325904  |grad|_K:  4.826e-06  alpha:  3.814e-01  linmin: -4.755e-05  t[s]:   6843.09
	FillingsUpdate:  mu: +0.102501030  nElectrons: 360.000000  magneticMoment: [ Abs: 29.72940  Tot: -0.00000 ]
	SubspaceRotationAdjust: set factor to 0.0923
ElecMinimize: Iter:  78  F: -2214.637178289479834  |grad|_K:  4.567e-06  alpha:  3.981e-01  linmin: -1.482e-05  t[s]:   6918.19
	FillingsUpdate:  mu: +0.102393389  nElectrons: 360.000000  magneticMoment: [ Abs: 29.86163  Tot: -0.00000 ]
	SubspaceRotationAdjust: set factor to 0.0992
ElecMinimize: Iter:  79  F: -2214.638666304554135  |grad|_K:  4.384e-06  alpha:  4.073e-01  linmin: -4.547e-05  t[s]:   6998.21
	FillingsUpdate:  mu: +0.101614676  nElectrons: 360.000000  magneticMoment: [ Abs: 30.01471  Tot: +0.00000 ]
	SubspaceRotationAdjust: set factor to 0.0952
ElecMinimize: Iter:  80  F: -2214.639945098077987  |grad|_K:  4.370e-06  alpha:  3.784e-01  linmin:  5.148e-05  t[s]:   7074.98
	FillingsUpdate:  mu: +0.101501947  nElectrons: 360.000000  magneticMoment: [ Abs: 30.13457  Tot: +0.00000 ]
	SubspaceRotationAdjust: set factor to 0.092
ElecMinimize: Iter:  81  F: -2214.641238684484051  |grad|_K:  4.267e-06  alpha:  3.891e-01  linmin: -1.203e-04  t[s]:   7152.48
	FillingsUpdate:  mu: +0.101686382  nElectrons: 360.000000  magneticMoment: [ Abs: 30.29003  Tot: +0.00000 ]
	SubspaceRotationAdjust: set factor to 0.1
ElecMinimize: Iter:  82  F: -2214.642521418307751  |grad|_K:  4.156e-06  alpha:  3.974e-01  linmin: -9.880e-06  t[s]:   7233.02
	FillingsUpdate:  mu: +0.101478410  nElectrons: 360.000000  magneticMoment: [ Abs: 30.43464  Tot: +0.00000 ]
	SubspaceRotationAdjust: set factor to 0.113
ElecMinimize: Iter:  83  F: -2214.643783439465096  |grad|_K:  4.122e-06  alpha:  4.172e-01  linmin: -4.971e-05  t[s]:   7308.55
	FillingsUpdate:  mu: +0.101796056  nElectrons: 360.000000  magneticMoment: [ Abs: 30.54488  Tot: +0.00000 ]
	SubspaceRotationAdjust: set factor to 0.116
ElecMinimize: Iter:  84  F: -2214.644964824432009  |grad|_K:  4.252e-06  alpha:  3.948e-01  linmin:  2.370e-05  t[s]:   7388.99
	FillingsUpdate:  mu: +0.101743111  nElectrons: 360.000000  magneticMoment: [ Abs: 30.71033  Tot: -0.00000 ]
	SubspaceRotationAdjust: set factor to 0.109
ElecMinimize: Iter:  85  F: -2214.646185552699080  |grad|_K:  4.280e-06  alpha:  3.877e-01  linmin: -2.439e-04  t[s]:   7468.62
	FillingsUpdate:  mu: +0.103110444  nElectrons: 360.000000  magneticMoment: [ Abs: 30.81395  Tot: -0.00000 ]
	SubspaceRotationAdjust: set factor to 0.104
ElecMinimize: Iter:  86  F: -2214.647399292327464  |grad|_K:  4.312e-06  alpha:  3.660e-01  linmin:  1.781e-04  t[s]:   7546.05
	FillingsUpdate:  mu: +0.103717030  nElectrons: 360.000000  magneticMoment: [ Abs: 30.96601  Tot: -0.00000 ]
	SubspaceRotationAdjust: set factor to 0.125
ElecMinimize: Iter:  87  F: -2214.648754826222557  |grad|_K:  4.379e-06  alpha:  4.261e-01  linmin: -5.468e-05  t[s]:   7622.91
	FillingsUpdate:  mu: +0.102723968  nElectrons: 360.000000  magneticMoment: [ Abs: 31.09348  Tot: -0.00000 ]
	SubspaceRotationAdjust: set factor to 0.143
ElecMinimize: Iter:  88  F: -2214.650011681369051  |grad|_K:  4.101e-06  alpha:  3.739e-01  linmin: -1.348e-04  t[s]:   7699.20
	FillingsUpdate:  mu: +0.103410929  nElectrons: 360.000000  magneticMoment: [ Abs: 31.17742  Tot: +0.00000 ]
	SubspaceRotationAdjust: set factor to 0.161
ElecMinimize: Iter:  89  F: -2214.651232883832563  |grad|_K:  4.633e-06  alpha:  4.106e-01  linmin:  3.517e-04  t[s]:   7774.88
	FillingsUpdate:  mu: +0.103354427  nElectrons: 360.000000  magneticMoment: [ Abs: 31.28845  Tot: +0.00000 ]
	SubspaceRotationAdjust: set factor to 0.19
ElecMinimize: Iter:  90  F: -2214.652491702124280  |grad|_K:  4.259e-06  alpha:  3.535e-01  linmin: -1.607e-04  t[s]:   7854.07
	FillingsUpdate:  mu: +0.103974245  nElectrons: 360.000000  magneticMoment: [ Abs: 31.35847  Tot: -0.00000 ]
	SubspaceRotationAdjust: set factor to 0.232
ElecMinimize: Iter:  91  F: -2214.653553160675983  |grad|_K:  4.135e-06  alpha:  3.279e-01  linmin:  9.994e-07  t[s]:   7932.20
	FillingsUpdate:  mu: +0.105278281  nElectrons: 360.000000  magneticMoment: [ Abs: 31.41291  Tot: -0.00000 ]
	SubspaceRotationAdjust: set factor to 0.286
ElecMinimize: Iter:  92  F: -2214.654608057277528  |grad|_K:  4.139e-06  alpha:  3.522e-01  linmin: -1.217e-04  t[s]:   8006.00
	FillingsUpdate:  mu: +0.103041717  nElectrons: 360.000000  magneticMoment: [ Abs: 31.45282  Tot: -0.00000 ]
	SubspaceRotationAdjust: set factor to 0.338
ElecMinimize: Iter:  93  F: -2214.655614760884419  |grad|_K:  4.257e-06  alpha:  3.321e-01  linmin: -1.478e-04  t[s]:   8082.86
	FillingsUpdate:  mu: +0.104763010  nElectrons: 360.000000  magneticMoment: [ Abs: 31.45670  Tot: -0.00000 ]
	SubspaceRotationAdjust: set factor to 0.307
ElecMinimize: Iter:  94  F: -2214.656563872414608  |grad|_K:  4.949e-06  alpha:  2.726e-01  linmin:  4.176e-04  t[s]:   8164.42
	FillingsUpdate:  mu: +0.102954613  nElectrons: 360.000000  magneticMoment: [ Abs: 31.44159  Tot: +0.00000 ]
	SubspaceRotationAdjust: set factor to 0.278
ElecMinimize: Iter:  95  F: -2214.657109594468238  |grad|_K:  4.938e-06  alpha:  1.148e-01  linmin: -7.480e-04  t[s]:   8239.06
	FillingsUpdate:  mu: +0.100578469  nElectrons: 360.000000  magneticMoment: [ Abs: 31.42392  Tot: +0.00000 ]
	SubspaceRotationAdjust: set factor to 0.254
ElecMinimize: Iter:  96  F: -2214.657807788708396  |grad|_K:  4.805e-06  alpha:  1.417e-01  linmin: -3.782e-04  t[s]:   8318.24
	FillingsUpdate:  mu: +0.102615896  nElectrons: 360.000000  magneticMoment: [ Abs: 31.41256  Tot: -0.00000 ]
	SubspaceRotationAdjust: set factor to 0.35
ElecMinimize: Iter:  97  F: -2214.658649345647973  |grad|_K:  4.539e-06  alpha:  1.919e-01  linmin: -1.297e-04  t[s]:   8397.66
	FillingsUpdate:  mu: +0.106121435  nElectrons: 360.000000  magneticMoment: [ Abs: 31.39737  Tot: +0.00000 ]
	SubspaceRotationAdjust: set factor to 0.354
ElecMinimize: Iter:  98  F: -2214.659230874472541  |grad|_K:  4.114e-06  alpha:  1.553e-01  linmin:  3.110e-05  t[s]:   8478.69
	FillingsUpdate:  mu: +0.105867912  nElectrons: 360.000000  magneticMoment: [ Abs: 31.37382  Tot: -0.00000 ]
	SubspaceRotationAdjust: set factor to 0.488
ElecMinimize: Iter:  99  F: -2214.659751818289351  |grad|_K:  3.851e-06  alpha:  1.770e-01  linmin: -2.410e-05  t[s]:   8558.38
	FillingsUpdate:  mu: +0.102862284  nElectrons: 360.000000  magneticMoment: [ Abs: 31.34874  Tot: +0.00000 ]
	SubspaceRotationAdjust: set factor to 0.51
ElecMinimize: Iter: 100  F: -2214.660160171592452  |grad|_K:  3.817e-06  alpha:  1.574e-01  linmin: -6.611e-05  t[s]:   8637.37
	FillingsUpdate:  mu: +0.102478888  nElectrons: 360.000000  magneticMoment: [ Abs: 31.32046  Tot: -0.00000 ]
	SubspaceRotationAdjust: set factor to 0.496
ElecMinimize: Iter: 101  F: -2214.660545027167700  |grad|_K:  3.788e-06  alpha:  1.489e-01  linmin:  5.733e-05  t[s]:   8711.45
	FillingsUpdate:  mu: +0.104276754  nElectrons: 360.000000  magneticMoment: [ Abs: 31.32334  Tot: -0.00000 ]
	SubspaceRotationAdjust: set factor to 0.565
ElecMinimize: Iter: 102  F: -2214.660890389391625  |grad|_K:  3.384e-06  alpha:  1.391e-01  linmin: -5.886e-05  t[s]:   8789.37
	FillingsUpdate:  mu: +0.105041627  nElectrons: 360.000000  magneticMoment: [ Abs: 31.30859  Tot: +0.00000 ]
	SubspaceRotationAdjust: set factor to 0.643
ElecMinimize: Iter: 103  F: -2214.661314384367415  |grad|_K:  3.672e-06  alpha:  2.098e-01  linmin:  1.457e-05  t[s]:   8868.78
	FillingsUpdate:  mu: +0.104354794  nElectrons: 360.000000  magneticMoment: [ Abs: 31.28647  Tot: -0.00000 ]
	SubspaceRotationAdjust: set factor to 0.718
ElecMinimize: Iter: 104  F: -2214.661670806150141  |grad|_K:  3.600e-06  alpha:  1.491e-01  linmin:  1.231e-05  t[s]:   8940.66
	FillingsUpdate:  mu: +0.102669130  nElectrons: 360.000000  magneticMoment: [ Abs: 31.29254  Tot: +0.00000 ]
	SubspaceRotationAdjust: set factor to 0.593
ElecMinimize: Iter: 105  F: -2214.662011456863183  |grad|_K:  4.275e-06  alpha:  1.506e-01  linmin: -1.147e-04  t[s]:   9016.91
	FillingsUpdate:  mu: +0.103261120  nElectrons: 360.000000  magneticMoment: [ Abs: 31.29434  Tot: +0.00000 ]
	SubspaceRotationAdjust: set factor to 0.599
ElecMinimize: Iter: 106  F: -2214.662322067998048  |grad|_K:  3.858e-06  alpha:  9.185e-02  linmin: -3.572e-05  t[s]:   9094.84
	FillingsUpdate:  mu: +0.105727029  nElectrons: 360.000000  magneticMoment: [ Abs: 31.31631  Tot: -0.00000 ]
	SubspaceRotationAdjust: set factor to 0.696
ElecMinimize: Iter: 107  F: -2214.662690181762628  |grad|_K:  3.815e-06  alpha:  1.380e-01  linmin: -1.246e-04  t[s]:   9172.27
	FillingsUpdate:  mu: +0.105555213  nElectrons: 360.000000  magneticMoment: [ Abs: 31.32160  Tot: -0.00000 ]
	SubspaceRotationAdjust: set factor to 0.711
ElecMinimize: Iter: 108  F: -2214.663119397750506  |grad|_K:  4.097e-06  alpha:  1.624e-01  linmin: -5.592e-05  t[s]:   9247.83
	FillingsUpdate:  mu: +0.104084694  nElectrons: 360.000000  magneticMoment: [ Abs: 31.32386  Tot: -0.00000 ]
	SubspaceRotationAdjust: set factor to 0.594
ElecMinimize: Iter: 109  F: -2214.663407036501212  |grad|_K:  4.674e-06  alpha:  9.041e-02  linmin: -9.386e-05  t[s]:   9326.63
	FillingsUpdate:  mu: +0.103446566  nElectrons: 360.000000  magneticMoment: [ Abs: 31.38383  Tot: -0.00000 ]
	SubspaceRotationAdjust: set factor to 0.632
ElecMinimize: Iter: 110  F: -2214.663900785664282  |grad|_K:  4.663e-06  alpha:  1.241e-01  linmin: -1.110e-04  t[s]:   9402.60
	FillingsUpdate:  mu: +0.104108391  nElectrons: 360.000000  magneticMoment: [ Abs: 31.47203  Tot: -0.00000 ]
	SubspaceRotationAdjust: set factor to 0.673
ElecMinimize: Iter: 111  F: -2214.664348693222109  |grad|_K:  4.778e-06  alpha:  1.147e-01  linmin: -1.640e-04  t[s]:   9478.86
	FillingsUpdate:  mu: +0.103798420  nElectrons: 360.000000  magneticMoment: [ Abs: 31.57481  Tot: -0.00000 ]
	SubspaceRotationAdjust: set factor to 0.576
ElecMinimize: Iter: 112  F: -2214.664861527141056  |grad|_K:  5.426e-06  alpha:  1.238e-01  linmin:  3.772e-04  t[s]:   9557.37
	FillingsUpdate:  mu: +0.103624458  nElectrons: 360.000000  magneticMoment: [ Abs: 31.68180  Tot: +0.00000 ]
	SubspaceRotationAdjust: set factor to 0.487
ElecMinimize: Iter: 113  F: -2214.665259981736199  |grad|_K:  6.008e-06  alpha:  7.974e-02  linmin: -8.002e-05  t[s]:   9637.04
	FillingsUpdate:  mu: +0.103682009  nElectrons: 360.000000  magneticMoment: [ Abs: 31.79074  Tot: +0.00000 ]
	SubspaceRotationAdjust: set factor to 0.424
ElecMinimize: Iter: 114  F: -2214.665687215904200  |grad|_K:  6.283e-06  alpha:  6.407e-02  linmin:  7.797e-05  t[s]:   9713.52
	FillingsUpdate:  mu: +0.103543915  nElectrons: 360.000000  magneticMoment: [ Abs: 31.87223  Tot: -0.00000 ]
	SubspaceRotationAdjust: set factor to 0.344
ElecMinimize: Iter: 115  F: -2214.666013248819581  |grad|_K:  6.584e-06  alpha:  4.670e-02  linmin:  2.372e-05  t[s]:   9792.90
	FillingsUpdate:  mu: +0.103529307  nElectrons: 360.000000  magneticMoment: [ Abs: 31.94491  Tot: -0.00000 ]
	SubspaceRotationAdjust: set factor to 0.267
ElecMinimize: Iter: 116  F: -2214.666320149648072  |grad|_K:  6.550e-06  alpha:  4.063e-02  linmin:  2.365e-05  t[s]:   9871.09
	FillingsUpdate:  mu: +0.104005595  nElectrons: 360.000000  magneticMoment: [ Abs: 32.00880  Tot: +0.00000 ]
	SubspaceRotationAdjust: set factor to 0.215
ElecMinimize: Iter: 117  F: -2214.666626412007190  |grad|_K:  6.176e-06  alpha:  4.113e-02  linmin:  2.151e-04  t[s]:   9950.37
	FillingsUpdate:  mu: +0.103867372  nElectrons: 360.000000  magneticMoment: [ Abs: 32.04102  Tot: -0.00000 ]
	SubspaceRotationAdjust: set factor to 0.185
ElecMinimize: Iter: 118  F: -2214.666804284338014  |grad|_K:  5.902e-06  alpha:  2.647e-02  linmin: -1.293e-05  t[s]:  10028.63
	FillingsUpdate:  mu: +0.103531411  nElectrons: 360.000000  magneticMoment: [ Abs: 32.06948  Tot: -0.00000 ]
	SubspaceRotationAdjust: set factor to 0.157
ElecMinimize: Iter: 119  F: -2214.666966899137151  |grad|_K:  5.881e-06  alpha:  2.661e-02  linmin: -1.205e-06  t[s]:  10105.96
	FillingsUpdate:  mu: +0.103391311  nElectrons: 360.000000  magneticMoment: [ Abs: 32.10032  Tot: +0.00000 ]
	SubspaceRotationAdjust: set factor to 0.135
ElecMinimize: Iter: 120  F: -2214.667149797258389  |grad|_K:  5.664e-06  alpha:  3.004e-02  linmin: -1.442e-04  t[s]:  10183.88
	FillingsUpdate:  mu: +0.103490830  nElectrons: 360.000000  magneticMoment: [ Abs: 32.13354  Tot: +0.00000 ]
	SubspaceRotationAdjust: set factor to 0.131
ElecMinimize: Iter: 121  F: -2214.667357394867850  |grad|_K:  5.099e-06  alpha:  3.563e-02  linmin: -8.735e-05  t[s]:  10262.43
	FillingsUpdate:  mu: +0.104015142  nElectrons: 360.000000  magneticMoment: [ Abs: 32.16232  Tot: -0.00000 ]
	SubspaceRotationAdjust: set factor to 0.145
ElecMinimize: Iter: 122  F: -2214.667536686826224  |grad|_K:  4.675e-06  alpha:  3.860e-02  linmin: -5.316e-05  t[s]:  10338.76
	FillingsUpdate:  mu: +0.104615212  nElectrons: 360.000000  magneticMoment: [ Abs: 32.18791  Tot: -0.00000 ]
	SubspaceRotationAdjust: set factor to 0.158
ElecMinimize: Iter: 123  F: -2214.667697821014372  |grad|_K:  4.521e-06  alpha:  4.158e-02  linmin: -7.579e-05  t[s]:  10414.41
	FillingsUpdate:  mu: +0.104416765  nElectrons: 360.000000  magneticMoment: [ Abs: 32.21214  Tot: -0.00000 ]
	SubspaceRotationAdjust: set factor to 0.16
ElecMinimize: Iter: 124  F: -2214.667857943427862  |grad|_K:  4.465e-06  alpha:  4.400e-02  linmin: -7.566e-05  t[s]:  10486.31
	FillingsUpdate:  mu: +0.105342905  nElectrons: 360.000000  magneticMoment: [ Abs: 32.23472  Tot: +0.00000 ]
	SubspaceRotationAdjust: set factor to 0.162
ElecMinimize: Iter: 125  F: -2214.668018696340823  |grad|_K:  4.341e-06  alpha:  4.535e-02  linmin: -5.499e-05  t[s]:  10564.36
	FillingsUpdate:  mu: +0.106166540  nElectrons: 360.000000  magneticMoment: [ Abs: 32.25486  Tot: +0.00000 ]
	SubspaceRotationAdjust: set factor to 0.182
ElecMinimize: Iter: 126  F: -2214.668173733740787  |grad|_K:  4.154e-06  alpha:  4.648e-02  linmin: -4.325e-05  t[s]:  10639.60
	FillingsUpdate:  mu: +0.106425924  nElectrons: 360.000000  magneticMoment: [ Abs: 32.27309  Tot: +0.00000 ]
	SubspaceRotationAdjust: set factor to 0.234
ElecMinimize: Iter: 127  F: -2214.668318897439804  |grad|_K:  4.003e-06  alpha:  4.761e-02  linmin: -4.076e-05  t[s]:  10719.65
	FillingsUpdate:  mu: +0.106327653  nElectrons: 360.000000  magneticMoment: [ Abs: 32.29087  Tot: -0.00000 ]
	SubspaceRotationAdjust: set factor to 0.311
ElecMinimize: Iter: 128  F: -2214.668453886937186  |grad|_K:  3.968e-06  alpha:  4.771e-02  linmin: -3.649e-05  t[s]:  10798.55
	FillingsUpdate:  mu: +0.106022111  nElectrons: 360.000000  magneticMoment: [ Abs: 32.31064  Tot: +0.00000 ]
	SubspaceRotationAdjust: set factor to 0.367
ElecMinimize: Iter: 129  F: -2214.668584792557340  |grad|_K:  4.137e-06  alpha:  4.711e-02  linmin: -2.942e-05  t[s]:  10877.65
	FillingsUpdate:  mu: +0.106039270  nElectrons: 360.000000  magneticMoment: [ Abs: 32.33513  Tot: -0.00000 ]
	SubspaceRotationAdjust: set factor to 0.402
ElecMinimize: Iter: 130  F: -2214.668723998657242  |grad|_K:  4.412e-06  alpha:  4.616e-02  linmin: -2.017e-05  t[s]:  10958.96
	FillingsUpdate:  mu: +0.106343343  nElectrons: 360.000000  magneticMoment: [ Abs: 32.36393  Tot: -0.00000 ]
	SubspaceRotationAdjust: set factor to 0.487
ElecMinimize: Iter: 131  F: -2214.668875011921955  |grad|_K:  4.585e-06  alpha:  4.410e-02  linmin: -1.227e-05  t[s]:  11040.11
	FillingsUpdate:  mu: +0.106947368  nElectrons: 360.000000  magneticMoment: [ Abs: 32.39338  Tot: -0.00000 ]
	SubspaceRotationAdjust: set factor to 0.656
ElecMinimize: Iter: 132  F: -2214.669031136636477  |grad|_K:  4.778e-06  alpha:  4.229e-02  linmin: -8.272e-06  t[s]:  11116.61
	FillingsUpdate:  mu: +0.107669290  nElectrons: 360.000000  magneticMoment: [ Abs: 32.42176  Tot: -0.00000 ]
	SubspaceRotationAdjust: set factor to 0.829
ElecMinimize: Iter: 133  F: -2214.669194955146850  |grad|_K:  5.270e-06  alpha:  4.088e-02  linmin: -1.524e-06  t[s]:  11196.21
	FillingsUpdate:  mu: +0.107824159  nElectrons: 360.000000  magneticMoment: [ Abs: 32.44959  Tot: +0.00000 ]
	SubspaceRotationAdjust: set factor to 0.883
ElecMinimize: Iter: 134  F: -2214.669380493426615  |grad|_K:  5.970e-06  alpha:  3.814e-02  linmin:  8.161e-06  t[s]:  11272.43
	FillingsUpdate:  mu: +0.107472239  nElectrons: 360.000000  magneticMoment: [ Abs: 32.47396  Tot: -0.00000 ]
	SubspaceRotationAdjust: set factor to 1.03
	SubspaceRotationAdjust: resetting CG because factor has changed by 7.81889
ElecMinimize: 	State modified externally: resetting search direction.
ElecMinimize: Iter: 135  F: -2214.669574870506949  |grad|_K:  6.315e-06  alpha:  3.120e-02
ElecMinimize: 	Predicted alpha/alphaT>3.000000, increasing alphaT to 9.359646e-02.
	FillingsUpdate:  mu: +0.106119629  nElectrons: 360.000000  magneticMoment: [ Abs: 32.45776  Tot: -0.00000 ]
	SubspaceRotationAdjust: set factor to 0.589
ElecMinimize: Iter: 136  F: -2214.670624647724253  |grad|_K:  9.073e-06  alpha:  1.519e-01  linmin:  5.687e-04  t[s]:  11474.42
	FillingsUpdate:  mu: +0.108701797  nElectrons: 360.000000  magneticMoment: [ Abs: 32.43079  Tot: -0.00000 ]
	SubspaceRotationAdjust: set factor to 0.521
ElecMinimize: Iter: 137  F: -2214.671976347224245  |grad|_K:  5.701e-06  alpha:  9.842e-02  linmin:  1.989e-05  t[s]:  11551.83
	FillingsUpdate:  mu: +0.105936038  nElectrons: 360.000000  magneticMoment: [ Abs: 32.44280  Tot: -0.00000 ]
	SubspaceRotationAdjust: set factor to 0.431
ElecMinimize: Iter: 138  F: -2214.673225492724214  |grad|_K:  4.951e-06  alpha:  2.302e-01  linmin:  1.267e-03  t[s]:  11622.38
	FillingsUpdate:  mu: +0.105232968  nElectrons: 360.000000  magneticMoment: [ Abs: 32.47266  Tot: +0.00000 ]
	SubspaceRotationAdjust: set factor to 0.326
ElecMinimize: Iter: 139  F: -2214.674110746654151  |grad|_K:  5.242e-06  alpha:  2.249e-01  linmin:  6.851e-04  t[s]:  11701.50
	FillingsUpdate:  mu: +0.106999899  nElectrons: 360.000000  magneticMoment: [ Abs: 32.49032  Tot: +0.00000 ]
	SubspaceRotationAdjust: set factor to 0.301
ElecMinimize: Iter: 140  F: -2214.674842867923871  |grad|_K:  3.903e-06  alpha:  1.642e-01  linmin: -9.472e-05  t[s]:  11774.97
	FillingsUpdate:  mu: +0.106457818  nElectrons: 360.000000  magneticMoment: [ Abs: 32.48942  Tot: -0.00000 ]
	SubspaceRotationAdjust: set factor to 0.365
ElecMinimize: Iter: 141  F: -2214.675532879216462  |grad|_K:  2.831e-06  alpha:  2.579e-01  linmin:  1.871e-04  t[s]:  11854.46
	FillingsUpdate:  mu: +0.104561327  nElectrons: 360.000000  magneticMoment: [ Abs: 32.51685  Tot: +0.00000 ]
	SubspaceRotationAdjust: set factor to 0.3
ElecMinimize: Iter: 142  F: -2214.675874116064733  |grad|_K:  2.851e-06  alpha:  2.462e-01  linmin:  1.509e-04  t[s]:  11933.82
	FillingsUpdate:  mu: +0.106773652  nElectrons: 360.000000  magneticMoment: [ Abs: 32.55816  Tot: +0.00000 ]
	SubspaceRotationAdjust: set factor to 0.28
ElecMinimize: Iter: 143  F: -2214.676162150652999  |grad|_K:  2.372e-06  alpha:  2.051e-01  linmin: -1.323e-04  t[s]:  12010.34
	FillingsUpdate:  mu: +0.106985299  nElectrons: 360.000000  magneticMoment: [ Abs: 32.58613  Tot: +0.00000 ]
	SubspaceRotationAdjust: set factor to 0.336
ElecMinimize: Iter: 144  F: -2214.676467791788582  |grad|_K:  2.317e-06  alpha:  3.088e-01  linmin:  3.697e-05  t[s]:  12089.20
	FillingsUpdate:  mu: +0.104756335  nElectrons: 360.000000  magneticMoment: [ Abs: 32.60549  Tot: -0.00000 ]
	SubspaceRotationAdjust: set factor to 0.304
ElecMinimize: Iter: 145  F: -2214.676746134982750  |grad|_K:  2.576e-06  alpha:  2.967e-01  linmin:  1.747e-04  t[s]:  12170.12
	FillingsUpdate:  mu: +0.105384838  nElectrons: 360.000000  magneticMoment: [ Abs: 32.64154  Tot: +0.00000 ]
	SubspaceRotationAdjust: set factor to 0.308
ElecMinimize: Iter: 146  F: -2214.677019003815076  |grad|_K:  2.411e-06  alpha:  2.399e-01  linmin: -8.768e-05  t[s]:  12251.92
	FillingsUpdate:  mu: +0.105681430  nElectrons: 360.000000  magneticMoment: [ Abs: 32.70678  Tot: +0.00000 ]
	SubspaceRotationAdjust: set factor to 0.346
ElecMinimize: Iter: 147  F: -2214.677393836059764  |grad|_K:  2.470e-06  alpha:  3.634e-01  linmin: -1.258e-04  t[s]:  12331.34
	FillingsUpdate:  mu: +0.104671147  nElectrons: 360.000000  magneticMoment: [ Abs: 32.75338  Tot: -0.00000 ]
	SubspaceRotationAdjust: set factor to 0.319
ElecMinimize: Iter: 148  F: -2214.677703478248986  |grad|_K:  2.696e-06  alpha:  2.849e-01  linmin:  3.934e-05  t[s]:  12411.31
	FillingsUpdate:  mu: +0.104953284  nElectrons: 360.000000  magneticMoment: [ Abs: 32.79058  Tot: +0.00000 ]
	SubspaceRotationAdjust: set factor to 0.347
ElecMinimize: Iter: 149  F: -2214.678001412047706  |grad|_K:  2.198e-06  alpha:  2.352e-01  linmin: -2.135e-06  t[s]:  12491.25
	FillingsUpdate:  mu: +0.105359220  nElectrons: 360.000000  magneticMoment: [ Abs: 32.82396  Tot: +0.00000 ]
	SubspaceRotationAdjust: set factor to 0.407
ElecMinimize: Iter: 150  F: -2214.678240032075337  |grad|_K:  2.152e-06  alpha:  2.819e-01  linmin: -8.307e-05  t[s]:  12569.92
	FillingsUpdate:  mu: +0.103937094  nElectrons: 360.000000  magneticMoment: [ Abs: 32.85376  Tot: +0.00000 ]
	SubspaceRotationAdjust: set factor to 0.399
ElecMinimize: Iter: 151  F: -2214.678429756754667  |grad|_K:  2.121e-06  alpha:  2.339e-01  linmin: -1.013e-04  t[s]:  12646.82
	FillingsUpdate:  mu: +0.105250153  nElectrons: 360.000000  magneticMoment: [ Abs: 32.87232  Tot: +0.00000 ]
	SubspaceRotationAdjust: set factor to 0.445
ElecMinimize: Iter: 152  F: -2214.678644891647764  |grad|_K:  1.930e-06  alpha:  2.700e-01  linmin: -1.441e-04  t[s]:  12726.31
	FillingsUpdate:  mu: +0.105284847  nElectrons: 360.000000  magneticMoment: [ Abs: 32.87996  Tot: -0.00000 ]
	SubspaceRotationAdjust: set factor to 0.527
ElecMinimize: Iter: 153  F: -2214.678874489505233  |grad|_K:  2.112e-06  alpha:  3.504e-01  linmin:  2.393e-04  t[s]:  12804.42
	FillingsUpdate:  mu: +0.103496621  nElectrons: 360.000000  magneticMoment: [ Abs: 32.89449  Tot: +0.00000 ]
	SubspaceRotationAdjust: set factor to 0.503
ElecMinimize: Iter: 154  F: -2214.679083943417936  |grad|_K:  2.613e-06  alpha:  2.760e-01  linmin: -2.300e-05  t[s]:  12882.49
	FillingsUpdate:  mu: +0.105270307  nElectrons: 360.000000  magneticMoment: [ Abs: 32.90053  Tot: -0.00000 ]
	SubspaceRotationAdjust: set factor to 0.521
ElecMinimize: Iter: 155  F: -2214.679326389805738  |grad|_K:  2.456e-06  alpha:  1.984e-01  linmin:  1.898e-05  t[s]:  12961.30
	FillingsUpdate:  mu: +0.105318906  nElectrons: 360.000000  magneticMoment: [ Abs: 32.91961  Tot: +0.00000 ]
	SubspaceRotationAdjust: set factor to 0.676
ElecMinimize: Iter: 156  F: -2214.679595347821305  |grad|_K:  2.351e-06  alpha:  2.556e-01  linmin:  3.176e-05  t[s]:  13039.80
	FillingsUpdate:  mu: +0.104099323  nElectrons: 360.000000  magneticMoment: [ Abs: 32.94571  Tot: -0.00000 ]
	SubspaceRotationAdjust: set factor to 0.62
ElecMinimize: Iter: 157  F: -2214.679814403705677  |grad|_K:  2.615e-06  alpha:  2.280e-01  linmin: -5.971e-05  t[s]:  13116.85
	FillingsUpdate:  mu: +0.105708740  nElectrons: 360.000000  magneticMoment: [ Abs: 32.95516  Tot: +0.00000 ]
	SubspaceRotationAdjust: set factor to 0.602
ElecMinimize: Iter: 158  F: -2214.679982276586998  |grad|_K:  2.399e-06  alpha:  1.379e-01  linmin: -2.389e-05  t[s]:  13200.28
	FillingsUpdate:  mu: +0.104983917  nElectrons: 360.000000  magneticMoment: [ Abs: 32.95982  Tot: +0.00000 ]
	SubspaceRotationAdjust: set factor to 0.858
ElecMinimize: Iter: 159  F: -2214.680200725202212  |grad|_K:  2.090e-06  alpha:  2.144e-01  linmin: -1.102e-04  t[s]:  13278.90
	FillingsUpdate:  mu: +0.104044533  nElectrons: 360.000000  magneticMoment: [ Abs: 32.95834  Tot: +0.00000 ]
	SubspaceRotationAdjust: set factor to 0.645
ElecMinimize: Iter: 160  F: -2214.680367444631429  |grad|_K:  2.582e-06  alpha:  2.149e-01  linmin: -1.450e-05  t[s]:  13356.06
	FillingsUpdate:  mu: +0.105784670  nElectrons: 360.000000  magneticMoment: [ Abs: 32.95635  Tot: +0.00000 ]
	SubspaceRotationAdjust: set factor to 0.648
ElecMinimize: Iter: 161  F: -2214.680483324968918  |grad|_K:  2.117e-06  alpha:  9.769e-02  linmin: -6.528e-05  t[s]:  13435.73
	FillingsUpdate:  mu: +0.105779427  nElectrons: 360.000000  magneticMoment: [ Abs: 32.95786  Tot: -0.00000 ]
	SubspaceRotationAdjust: set factor to 0.695
ElecMinimize: Iter: 162  F: -2214.680652396018104  |grad|_K:  2.048e-06  alpha:  2.125e-01  linmin: -4.979e-05  t[s]:  13514.09
	FillingsUpdate:  mu: +0.103958865  nElectrons: 360.000000  magneticMoment: [ Abs: 32.95503  Tot: +0.00000 ]
	SubspaceRotationAdjust: set factor to 0.595
ElecMinimize: Iter: 163  F: -2214.680749482727151  |grad|_K:  2.193e-06  alpha:  1.292e-01  linmin: -4.236e-05  t[s]:  13586.23
	FillingsUpdate:  mu: +0.104857667  nElectrons: 360.000000  magneticMoment: [ Abs: 32.95025  Tot: -0.00000 ]
	SubspaceRotationAdjust: set factor to 0.697
ElecMinimize: Iter: 164  F: -2214.680872754929624  |grad|_K:  1.706e-06  alpha:  1.459e-01  linmin:  7.586e-05  t[s]:  13665.14
	FillingsUpdate:  mu: +0.105713702  nElectrons: 360.000000  magneticMoment: [ Abs: 32.95479  Tot: -0.00000 ]
	SubspaceRotationAdjust: set factor to 0.552
ElecMinimize: Iter: 165  F: -2214.680966154520775  |grad|_K:  1.919e-06  alpha:  1.849e-01  linmin: -9.045e-05  t[s]:  13745.41
	FillingsUpdate:  mu: +0.104533691  nElectrons: 360.000000  magneticMoment: [ Abs: 32.95491  Tot: -0.00000 ]
	SubspaceRotationAdjust: set factor to 0.546
ElecMinimize: Iter: 166  F: -2214.681036743965251  |grad|_K:  1.582e-06  alpha:  1.082e-01  linmin: -1.382e-05  t[s]:  13822.40
	FillingsUpdate:  mu: +0.104435193  nElectrons: 360.000000  magneticMoment: [ Abs: 32.94790  Tot: -0.00000 ]
	SubspaceRotationAdjust: set factor to 0.601
ElecMinimize: Iter: 167  F: -2214.681137565093650  |grad|_K:  1.609e-06  alpha:  2.339e-01  linmin:  2.322e-04  t[s]:  13899.13
	FillingsUpdate:  mu: +0.105596224  nElectrons: 360.000000  magneticMoment: [ Abs: 32.94981  Tot: -0.00000 ]
	SubspaceRotationAdjust: set factor to 0.519
ElecMinimize: Iter: 168  F: -2214.681198269558081  |grad|_K:  1.753e-06  alpha:  1.382e-01  linmin: -1.148e-05  t[s]:  13976.08
	FillingsUpdate:  mu: +0.105074329  nElectrons: 360.000000  magneticMoment: [ Abs: 32.95683  Tot: -0.00000 ]
	SubspaceRotationAdjust: set factor to 0.776
ElecMinimize: Iter: 169  F: -2214.681285925312750  |grad|_K:  1.375e-06  alpha:  1.627e-01  linmin: -2.990e-05  t[s]:  14052.62
	FillingsUpdate:  mu: +0.104075335  nElectrons: 360.000000  magneticMoment: [ Abs: 32.96172  Tot: -0.00000 ]
	SubspaceRotationAdjust: set factor to 0.543
ElecMinimize: Iter: 170  F: -2214.681356286317623  |grad|_K:  1.876e-06  alpha:  2.116e-01  linmin: -1.158e-05  t[s]:  14128.09
	FillingsUpdate:  mu: +0.105282470  nElectrons: 360.000000  magneticMoment: [ Abs: 32.96370  Tot: -0.00000 ]
	SubspaceRotationAdjust: set factor to 0.563
ElecMinimize: Iter: 171  F: -2214.681412639842165  |grad|_K:  1.400e-06  alpha:  9.270e-02  linmin:  4.429e-05  t[s]:  14207.86
	FillingsUpdate:  mu: +0.105264095  nElectrons: 360.000000  magneticMoment: [ Abs: 32.95992  Tot: -0.00000 ]
	SubspaceRotationAdjust: set factor to 0.575
ElecMinimize: Iter: 172  F: -2214.681492739066925  |grad|_K:  1.525e-06  alpha:  2.412e-01  linmin:  3.212e-04  t[s]:  14286.36
	FillingsUpdate:  mu: +0.104286552  nElectrons: 360.000000  magneticMoment: [ Abs: 32.96198  Tot: +0.00000 ]
	SubspaceRotationAdjust: set factor to 0.502
ElecMinimize: Iter: 173  F: -2214.681541780680163  |grad|_K:  1.592e-06  alpha:  1.237e-01  linmin: -9.074e-05  t[s]:  14366.24
	FillingsUpdate:  mu: +0.104702855  nElectrons: 360.000000  magneticMoment: [ Abs: 32.97274  Tot: -0.00000 ]
	SubspaceRotationAdjust: set factor to 0.761
ElecMinimize: Iter: 174  F: -2214.681613493144596  |grad|_K:  1.267e-06  alpha:  1.578e-01  linmin: -2.888e-04  t[s]:  14444.12
	FillingsUpdate:  mu: +0.105696152  nElectrons: 360.000000  magneticMoment: [ Abs: 32.97688  Tot: +0.00000 ]
	SubspaceRotationAdjust: set factor to 0.543
ElecMinimize: Iter: 175  F: -2214.681666535197564  |grad|_K:  1.697e-06  alpha:  1.810e-01  linmin: -1.065e-04  t[s]:  14523.82
	FillingsUpdate:  mu: +0.104885484  nElectrons: 360.000000  magneticMoment: [ Abs: 32.97360  Tot: +0.00000 ]
	SubspaceRotationAdjust: set factor to 0.603
ElecMinimize: Iter: 176  F: -2214.681718921190168  |grad|_K:  1.194e-06  alpha:  1.005e-01  linmin: -6.623e-05  t[s]:  14601.30
	FillingsUpdate:  mu: +0.104319997  nElectrons: 360.000000  magneticMoment: [ Abs: 32.97046  Tot: -0.00000 ]
	SubspaceRotationAdjust: set factor to 0.496
ElecMinimize: Iter: 177  F: -2214.681778788746215  |grad|_K:  1.398e-06  alpha:  2.402e-01  linmin:  1.520e-04  t[s]:  14681.88
	FillingsUpdate:  mu: +0.105293318  nElectrons: 360.000000  magneticMoment: [ Abs: 32.97485  Tot: -0.00000 ]
	SubspaceRotationAdjust: set factor to 0.491
ElecMinimize: Iter: 178  F: -2214.681812838098267  |grad|_K:  1.192e-06  alpha:  1.039e-01  linmin:  9.804e-05  t[s]:  14762.12
	FillingsUpdate:  mu: +0.105328262  nElectrons: 360.000000  magneticMoment: [ Abs: 32.98369  Tot: +0.00000 ]
	SubspaceRotationAdjust: set factor to 0.555
ElecMinimize: Iter: 179  F: -2214.681861479433337  |grad|_K:  1.083e-06  alpha:  1.962e-01  linmin: -1.958e-04  t[s]:  14839.29
	FillingsUpdate:  mu: +0.104423801  nElectrons: 360.000000  magneticMoment: [ Abs: 32.98476  Tot: +0.00000 ]
	SubspaceRotationAdjust: set factor to 0.485
ElecMinimize: Iter: 180  F: -2214.681890669418408  |grad|_K:  1.138e-06  alpha:  1.386e-01  linmin:  5.630e-06  t[s]:  14917.22
	FillingsUpdate:  mu: +0.104874076  nElectrons: 360.000000  magneticMoment: [ Abs: 32.98436  Tot: -0.00000 ]
	SubspaceRotationAdjust: set factor to 0.683
ElecMinimize: Iter: 181  F: -2214.681926596812900  |grad|_K:  9.122e-07  alpha:  1.588e-01  linmin:  5.600e-05  t[s]:  14993.37
	FillingsUpdate:  mu: +0.105439100  nElectrons: 360.000000  magneticMoment: [ Abs: 32.98715  Tot: -0.00000 ]
	SubspaceRotationAdjust: set factor to 0.489
ElecMinimize: Iter: 182  F: -2214.681954338543619  |grad|_K:  1.182e-06  alpha:  1.916e-01  linmin: -6.683e-05  t[s]:  15067.96
	FillingsUpdate:  mu: +0.104848607  nElectrons: 360.000000  magneticMoment: [ Abs: 32.98993  Tot: +0.00000 ]
	SubspaceRotationAdjust: set factor to 0.554
ElecMinimize: Iter: 183  F: -2214.681979534056154  |grad|_K:  8.434e-07  alpha:  1.023e-01  linmin: -3.088e-06  t[s]:  15149.09
	FillingsUpdate:  mu: +0.104518236  nElectrons: 360.000000  magneticMoment: [ Abs: 32.99192  Tot: +0.00000 ]
	SubspaceRotationAdjust: set factor to 0.496
ElecMinimize: Iter: 184  F: -2214.682008608387150  |grad|_K:  9.592e-07  alpha:  2.332e-01  linmin: -2.924e-05  t[s]:  15230.56
	FillingsUpdate:  mu: +0.105241907  nElectrons: 360.000000  magneticMoment: [ Abs: 32.99147  Tot: +0.00000 ]
	SubspaceRotationAdjust: set factor to 0.47
ElecMinimize: Iter: 185  F: -2214.682026771010896  |grad|_K:  8.180e-07  alpha:  1.135e-01  linmin:  3.144e-05  t[s]:  15308.36
	FillingsUpdate:  mu: +0.105198427  nElectrons: 360.000000  magneticMoment: [ Abs: 32.98829  Tot: -0.00000 ]
	SubspaceRotationAdjust: set factor to 0.509
ElecMinimize: Iter: 186  F: -2214.682051125831094  |grad|_K:  7.861e-07  alpha:  2.105e-01  linmin:  1.204e-04  t[s]:  15388.50
	FillingsUpdate:  mu: +0.104597942  nElectrons: 360.000000  magneticMoment: [ Abs: 32.98823  Tot: +0.00000 ]
	SubspaceRotationAdjust: set factor to 0.521
ElecMinimize: Iter: 187  F: -2214.682065968852385  |grad|_K:  7.877e-07  alpha:  1.393e-01  linmin: -7.103e-07  t[s]:  15466.79
	FillingsUpdate:  mu: +0.104824332  nElectrons: 360.000000  magneticMoment: [ Abs: 32.99099  Tot: +0.00000 ]
	SubspaceRotationAdjust: set factor to 0.708
ElecMinimize: Iter: 188  F: -2214.682085268644641  |grad|_K:  6.869e-07  alpha:  1.772e-01  linmin: -9.558e-05  t[s]:  15545.57
	FillingsUpdate:  mu: +0.105311893  nElectrons: 360.000000  magneticMoment: [ Abs: 32.99034  Tot: -0.00000 ]
	SubspaceRotationAdjust: set factor to 0.529
ElecMinimize: Iter: 189  F: -2214.682099297622244  |grad|_K:  8.388e-07  alpha:  1.681e-01  linmin: -8.639e-06  t[s]:  15624.08
	FillingsUpdate:  mu: +0.104903655  nElectrons: 360.000000  magneticMoment: [ Abs: 32.98756  Tot: +0.00000 ]
	SubspaceRotationAdjust: set factor to 0.619
ElecMinimize: Iter: 190  F: -2214.682113013754133  |grad|_K:  6.398e-07  alpha:  1.108e-01  linmin: -2.683e-06  t[s]:  15701.41
	FillingsUpdate:  mu: +0.104575941  nElectrons: 360.000000  magneticMoment: [ Abs: 32.98749  Tot: +0.00000 ]
	SubspaceRotationAdjust: set factor to 0.498
ElecMinimize: Iter: 191  F: -2214.682129331387841  |grad|_K:  7.772e-07  alpha:  2.275e-01  linmin: -2.457e-05  t[s]:  15779.44
[...]
	FillingsUpdate:  mu: +0.103938124  nElectrons: 360.000000  magneticMoment: [ Abs: 33.11780  Tot: +0.00000 ]
	SubspaceRotationAdjust: set factor to 0.309
ElecMinimize: Iter:  13  F: -2214.727169500980381  |grad|_K:  9.434e-08  alpha:  3.460e-01  linmin:  2.598e-07  t[s]:  68374.63
	FillingsUpdate:  mu: +0.103954098  nElectrons: 360.000000  magneticMoment: [ Abs: 33.11785  Tot: +0.00000 ]
	SubspaceRotationAdjust: set factor to 0.31
ElecMinimize: Iter:  14  F: -2214.727170023747931  |grad|_K:  8.242e-08  alpha:  3.359e-01  linmin:  8.476e-07  t[s]:  68454.89
	FillingsUpdate:  mu: +0.103938455  nElectrons: 360.000000  magneticMoment: [ Abs: 33.11813  Tot: -0.00000 ]
	SubspaceRotationAdjust: set factor to 0.278
ElecMinimize: Iter:  15  F: -2214.727170379196650  |grad|_K:  6.822e-08  alpha:  2.991e-01  linmin: -4.745e-06  t[s]:  68532.38
	FillingsUpdate:  mu: +0.103953843  nElectrons: 360.000000  magneticMoment: [ Abs: 33.11825  Tot: +0.00000 ]
	SubspaceRotationAdjust: set factor to 0.276
ElecMinimize: Iter:  16  F: -2214.727170622715221  |grad|_K:  5.205e-08  alpha:  2.992e-01  linmin:  4.112e-06  t[s]:  68612.82
	FillingsUpdate:  mu: +0.103950097  nElectrons: 360.000000  magneticMoment: [ Abs: 33.11843  Tot: -0.00000 ]
	SubspaceRotationAdjust: set factor to 0.323
ElecMinimize: Iter:  17  F: -2214.727170792098605  |grad|_K:  4.053e-08  alpha:  3.569e-01  linmin: -1.814e-05  t[s]:  68690.92
ElecMinimize: Converged (|Delta F|<1.000000e-06 for 5 iters).
Setting wave functions to eigenvectors of Hamiltonian

# Ionic positions in lattice coordinates:
ion Ni   0.011216695937217  -0.003794445776440   0.151006223938364 1
ion Ni   0.497403883871255  -0.005347992436342   0.153558531359662 1
ion Ni   0.252532888902961   0.747947359418538   0.050729175212139 1
ion Ni  -0.251588416150479   0.249431441326528   0.051757860231038 1
ion Ni   0.500000000000000   0.000000000000000  -0.050000000000000 0
ion Ni   0.500000000000000   0.500000000000000  -0.050000000000000 0
ion Ni   0.250000000000000   0.750000000000000  -0.150000000000000 0
ion Ni  -0.250000000000000   0.750000000000000  -0.150000000000000 0
ion Cr  -0.014525770767649   0.495354971456019   0.162015093371437 1
ion V   0.492525023922139   0.502617426378326   0.150963297090253 1
ion V   0.255336125923396   0.244297239483266   0.052179469827134 1
ion V  -0.251656718731398   0.755155957427743   0.053278098204366 1
ion V   0.000000000000000   0.000000000000000  -0.050000000000000 0
ion V   0.000000000000000   0.500000000000000  -0.050000000000000 0
ion Co   0.250000000000000   0.250000000000000  -0.150000000000000 0
ion Co  -0.250000000000000   0.250000000000000  -0.150000000000000 0
ion O   0.250128588015442   0.262510859434087   0.144941778463114 1
ion O   0.251438986344130   0.734206438211331   0.145354951078995 1
ion O  -0.272986501899880   0.259953799465408   0.146199350512202 1
ion O  -0.274881621038005   0.723944829700892   0.152025546780157 1
ion O   0.003747667609959   0.006028535141606   0.055417736052941 1
ion O   0.491774650821601   0.012664877744888   0.043250543543352 1
ion O   0.016154657701630   0.490021524608484   0.046186876671185 1
ion O   0.497088771811941   0.494210148190602   0.053861677862046 1
ion O   0.250000000000000   0.250000000000000  -0.050000000000000 0
ion O   0.250000000000000   0.750000000000000  -0.050000000000000 0
ion O  -0.250000000000000   0.250000000000000  -0.050000000000000 0
ion O  -0.250000000000000   0.750000000000000  -0.050000000000000 0
ion O   0.000000000000000   0.000000000000000  -0.150000000000000 0
ion O   0.500000000000000   0.000000000000000  -0.150000000000000 0
ion O   0.000000000000000   0.500000000000000  -0.150000000000000 0
ion O   0.500000000000000   0.500000000000000  -0.150000000000000 0
ion O   0.000314493016002  -0.009067306147969   0.236301271261848 1
ion H   0.150904514124667   0.003576701968902   0.251155789129499 1

# Forces in Lattice coordinates:
force Ni   0.006758186316366   0.002672113885602   0.012086761244182 1
force Ni   0.001880080527206  -0.006040965790313  -0.011692949702639 1
force Ni  -0.004171355383902  -0.000093430641695   0.000318179810631 1
force Ni  -0.005682911425936   0.003037276208872  -0.011025886528011 1
force Ni   0.003198662754722  -0.029858780024226  -0.605873012485815 0
force Ni   0.028362317583722   0.057520395839853  -0.376436132047369 0
force Ni   0.075879640279563  -0.007765652426083   0.448201714240759 0
force Ni  -0.066467296166023  -0.004140895203261   0.289443838760606 0
force Cr  -0.002401185763100  -0.008433934412108   0.015298082719889 1
force V  -0.001791997224131  -0.005988785865639  -0.004581636792865 1
force V  -0.012543471384329  -0.004324471156620  -0.011125535962271 1
force V  -0.008370724874104  -0.003645225026525  -0.022792377674984 1
force V  -0.017201720428561  -0.032998801616502  -0.132842080747279 0
force V  -0.011969942373637   0.025147854657866  -0.492237248206990 0
force Co   0.091367181959047  -0.015820396225322  -0.322555613351960 0
force Co  -0.071231959853732  -0.018642921164137  -0.145779034904137 0
force O   0.003393245756277   0.008469208003820  -0.001821929620911 1
force O   0.003518594022967  -0.003921008434671  -0.009107192756714 1
force O   0.016309141371335   0.002110125658587  -0.020217825682074 1
force O  -0.006742539672293  -0.005383791199701  -0.007592292643643 1
force O   0.003761905582918   0.004365194290613  -0.032748835864709 1
force O   0.002854102930065  -0.000617963948960   0.035450216348131 1
force O  -0.001055977530384  -0.003447192742679   0.004242116386290 1
force O  -0.004481977883812  -0.005133458116083  -0.018894884085373 1
force O  -0.046108313615225   0.010807029377267   0.574136517340563 0
force O   0.013951704795595   0.001232172607960   0.159247877206647 0
force O   0.001493773310989   0.014189325776377   0.334465786818551 0
force O   0.029645077990518  -0.005397898770943   0.090467889304522 0
force O   0.041363878417437  -0.028747192078237   0.000069594880278 0
force O  -0.047723799216119  -0.040763603282498   0.138838622644061 0
force O   0.029880788835035   0.046794050371328   0.022734326573470 0
force O  -0.050175075597997   0.041607939199818   0.088220132612407 0
force O   0.023236383038553   0.010778021634822  -0.001612354506960 1
force H  -0.020269307749664  -0.004218653959627  -0.036228474078918 1

# Energy components:
   Eewald =     5807.1938680251050755
       EH =     7803.3619572038760452
     Eloc =   -15963.6029434310657962
      Enl =     -612.4126559312288691
   Epulay =       -0.0004911042135150
      Exc =     -261.7300263210373146
       KE =     1010.9000987794545381
        U =        1.5636972562998543
-------------------------------------
     Etot =    -2214.7264955228101826
       TS =        0.0006752692885328
-------------------------------------
        F =    -2214.7271707920986046

IonicMinimize: Iter:  20  F: -2214.727170792098605  |grad|_K:  6.073e-04  alpha:  1.000e+00  linmin: -1.537e-02  t[s]:  68702.51

#--- Lowdin population analysis ---
# oxidation-state Ni +3.574 +3.416 +3.424 +3.487 +3.537 +3.460 +3.866 +3.772
# magnetic-moments Ni -0.017 +0.674 +0.823 -0.892 +0.993 +0.926 -1.051 +0.990
# oxidation-state Cr +2.992
# magnetic-moments Cr +4.029
# oxidation-state V +1.290 +1.240 +1.016 +1.048 +1.099
# magnetic-moments V -2.060 +2.013 -2.896 -2.690 -2.506
# oxidation-state Co +1.243 +1.241
# magnetic-moments Co -2.699 +2.649
# oxidation-state O -0.776 -0.724 -0.726 -0.785 -0.749 -0.721 -0.805 -0.750 -0.854 -0.748 -0.815 -0.795 -0.887 -0.842 -0.889 -0.838 -0.683
# magnetic-moments O +0.078 +0.083 -0.193 +0.093 +0.005 +0.080 +0.028 +0.047 +0.131 +0.135 +0.150 +0.286 -0.001 +0.084 -0.008 +0.097 +0.019
# oxidation-state H +0.370
# magnetic-moments H -0.000


-------- Electronic minimization -----------
	FillingsUpdate:  mu: +0.103544920  nElectrons: 360.000000  magneticMoment: [ Abs: 33.11918  Tot: +0.00000 ]
ElecMinimize: Iter:   0  F: -2214.642082753900468  |grad|_K:  4.808e-05  alpha:  1.000e+00
	FillingsUpdate:  mu: +0.104202231  nElectrons: 360.000000  magneticMoment: [ Abs: 33.11927  Tot: -0.00000 ]
	SubspaceRotationAdjust: set factor to 0.363
ElecMinimize: Iter:   1  F: -2214.718931090189017  |grad|_K:  1.007e-05  alpha:  1.905e-01  linmin:  6.730e-04  t[s]:  68808.19
	FillingsUpdate:  mu: +0.102765142  nElectrons: 360.000000  magneticMoment: [ Abs: 33.12307  Tot: -0.00000 ]
	SubspaceRotationAdjust: set factor to 0.382
ElecMinimize: Iter:   2  F: -2214.723628355766778  |grad|_K:  5.301e-06  alpha:  2.656e-01  linmin:  1.984e-04  t[s]:  68885.85
	FillingsUpdate:  mu: +0.102319283  nElectrons: 360.000000  magneticMoment: [ Abs: 33.11539  Tot: -0.00000 ]
	SubspaceRotationAdjust: set factor to 0.278
ElecMinimize: Iter:   3  F: -2214.724798260006537  |grad|_K:  4.678e-06  alpha:  2.397e-01  linmin: -2.867e-04  t[s]:  68961.94
	FillingsUpdate:  mu: +0.103304815  nElectrons: 360.000000  magneticMoment: [ Abs: 33.12339  Tot: +0.00000 ]
	SubspaceRotationAdjust: set factor to 0.256
ElecMinimize: Iter:   4  F: -2214.725738954093231  |grad|_K:  3.346e-06  alpha:  2.429e-01  linmin: -1.074e-05  t[s]:  69036.41
	FillingsUpdate:  mu: +0.103758256  nElectrons: 360.000000  magneticMoment: [ Abs: 33.12129  Tot: +0.00000 ]
	SubspaceRotationAdjust: set factor to 0.312
ElecMinimize: Iter:   5  F: -2214.726518670761834  |grad|_K:  2.541e-06  alpha:  3.982e-01  linmin:  9.328e-06  t[s]:  69114.18
	FillingsUpdate:  mu: +0.103608913  nElectrons: 360.000000  magneticMoment: [ Abs: 33.11993  Tot: -0.00000 ]
	SubspaceRotationAdjust: set factor to 0.315
ElecMinimize: Iter:   6  F: -2214.726964230187605  |grad|_K:  1.907e-06  alpha:  3.950e-01  linmin: -1.398e-05  t[s]:  69189.46
	FillingsUpdate:  mu: +0.103487599  nElectrons: 360.000000  magneticMoment: [ Abs: 33.12325  Tot: -0.00000 ]
	SubspaceRotationAdjust: set factor to 0.216
ElecMinimize: Iter:   7  F: -2214.727100036805950  |grad|_K:  1.352e-06  alpha:  2.129e-01  linmin: -3.506e-06  t[s]:  69267.32
	FillingsUpdate:  mu: +0.103986901  nElectrons: 360.000000  magneticMoment: [ Abs: 33.12218  Tot: +0.00000 ]
	SubspaceRotationAdjust: set factor to 0.203
ElecMinimize: Iter:   8  F: -2214.727184832669536  |grad|_K:  7.425e-07  alpha:  2.652e-01  linmin:  1.796e-05  t[s]:  69342.46
	FillingsUpdate:  mu: +0.103996771  nElectrons: 360.000000  magneticMoment: [ Abs: 33.12239  Tot: +0.00000 ]
	SubspaceRotationAdjust: set factor to 0.232
ElecMinimize: Iter:   9  F: -2214.727214199226182  |grad|_K:  4.859e-07  alpha:  3.050e-01  linmin: -8.950e-08  t[s]:  69418.96
	FillingsUpdate:  mu: +0.103909434  nElectrons: 360.000000  magneticMoment: [ Abs: 33.12295  Tot: +0.00000 ]
	SubspaceRotationAdjust: set factor to 0.235
ElecMinimize: Iter:  10  F: -2214.727226484100356  |grad|_K:  3.328e-07  alpha:  2.976e-01  linmin: -3.213e-07  t[s]:  69496.54
	FillingsUpdate:  mu: +0.103975313  nElectrons: 360.000000  magneticMoment: [ Abs: 33.12284  Tot: -0.00000 ]
	SubspaceRotationAdjust: set factor to 0.249
ElecMinimize: Iter:  11  F: -2214.727232770675982  |grad|_K:  2.408e-07  alpha:  3.247e-01  linmin:  1.988e-06  t[s]:  69573.92
	FillingsUpdate:  mu: +0.103959135  nElectrons: 360.000000  magneticMoment: [ Abs: 33.12327  Tot: +0.00000 ]
	SubspaceRotationAdjust: set factor to 0.29
ElecMinimize: Iter:  12  F: -2214.727236480667216  |grad|_K:  1.953e-07  alpha:  3.660e-01  linmin: -5.117e-07  t[s]:  69651.70
	FillingsUpdate:  mu: +0.103960168  nElectrons: 360.000000  magneticMoment: [ Abs: 33.12351  Tot: -0.00000 ]
	SubspaceRotationAdjust: set factor to 0.349
ElecMinimize: Iter:  13  F: -2214.727238981382470  |grad|_K:  1.634e-07  alpha:  3.750e-01  linmin: -8.762e-08  t[s]:  69726.30
	FillingsUpdate:  mu: +0.103971729  nElectrons: 360.000000  magneticMoment: [ Abs: 33.12376  Tot: +0.00000 ]
	SubspaceRotationAdjust: set factor to 0.396
ElecMinimize: Iter:  14  F: -2214.727240731581333  |grad|_K:  1.375e-07  alpha:  3.750e-01  linmin:  5.615e-07  t[s]:  69804.10
	FillingsUpdate:  mu: +0.103952263  nElectrons: 360.000000  magneticMoment: [ Abs: 33.12421  Tot: +0.00000 ]
	SubspaceRotationAdjust: set factor to 0.366
ElecMinimize: Iter:  15  F: -2214.727241714897900  |grad|_K:  1.139e-07  alpha:  2.976e-01  linmin: -3.601e-07  t[s]:  69882.28
	FillingsUpdate:  mu: +0.103981017  nElectrons: 360.000000  magneticMoment: [ Abs: 33.12423  Tot: -0.00000 ]
	SubspaceRotationAdjust: set factor to 0.271
ElecMinimize: Iter:  16  F: -2214.727242199146076  |grad|_K:  8.805e-08  alpha:  2.135e-01  linmin: -8.305e-08  t[s]:  69961.26
	FillingsUpdate:  mu: +0.103963260  nElectrons: 360.000000  magneticMoment: [ Abs: 33.12453  Tot: +0.00000 ]
	SubspaceRotationAdjust: set factor to 0.26
ElecMinimize: Iter:  17  F: -2214.727242547139213  |grad|_K:  5.837e-08  alpha:  2.566e-01  linmin: -2.422e-06  t[s]:  70039.29
	FillingsUpdate:  mu: +0.103967186  nElectrons: 360.000000  magneticMoment: [ Abs: 33.12474  Tot: -0.00000 ]
	SubspaceRotationAdjust: set factor to 0.309
ElecMinimize: Iter:  18  F: -2214.727242743243551  |grad|_K:  4.362e-08  alpha:  3.292e-01  linmin:  2.078e-06  t[s]:  70113.92
	FillingsUpdate:  mu: +0.103976238  nElectrons: 360.000000  magneticMoment: [ Abs: 33.12487  Tot: -0.00000 ]
	SubspaceRotationAdjust: set factor to 0.327
ElecMinimize: Iter:  19  F: -2214.727242851119172  |grad|_K:  3.826e-08  alpha:  3.240e-01  linmin:  2.938e-05  t[s]:  70192.18
ElecMinimize: Converged (|Delta F|<1.000000e-06 for 5 iters).
Setting wave functions to eigenvectors of Hamiltonian

# Ionic positions in lattice coordinates:
ion Ni   0.012100532187984  -0.003722410021260   0.151016632430031 1
ion Ni   0.497677442102786  -0.005810471993812   0.153435814552475 1
ion Ni   0.252124567951560   0.747617696674711   0.050553204659898 1
ion Ni  -0.251855155004665   0.249667650640653   0.051666005327512 1
ion Ni   0.500000000000000   0.000000000000000  -0.050000000000000 0
ion Ni   0.500000000000000   0.500000000000000  -0.050000000000000 0
ion Ni   0.250000000000000   0.750000000000000  -0.150000000000000 0
ion Ni  -0.250000000000000   0.750000000000000  -0.150000000000000 0
ion Cr  -0.014817106519424   0.494598664518691   0.162167596686267 1
ion V   0.492192481557626   0.501994029056156   0.150938683577016 1
ion V   0.254406623983797   0.243990464925256   0.052134755311060 1
ion V  -0.252223218279508   0.754931925954084   0.053175863773714 1
ion V   0.000000000000000   0.000000000000000  -0.050000000000000 0
ion V   0.000000000000000   0.500000000000000  -0.050000000000000 0
ion Co   0.250000000000000   0.250000000000000  -0.150000000000000 0
ion Co  -0.250000000000000   0.250000000000000  -0.150000000000000 0
ion O   0.250138899161838   0.262971833381048   0.145018126681499 1
ion O   0.251335576749092   0.733962147444884   0.145291590525084 1
ion O  -0.272294180484790   0.259784977394729   0.146139487869622 1
ion O  -0.275422912864484   0.723508679460323   0.151996752345317 1
ion O   0.003916955395874   0.006122199012888   0.055301703644786 1
ion O   0.491773039838875   0.012580688921491   0.043477164589834 1
ion O   0.016165972714833   0.489747036392858   0.046278498505838 1
ion O   0.496540133537038   0.494152591624311   0.053710928941545 1
ion O   0.250000000000000   0.250000000000000  -0.050000000000000 0
ion O   0.250000000000000   0.750000000000000  -0.050000000000000 0
ion O  -0.250000000000000   0.250000000000000  -0.050000000000000 0
ion O  -0.250000000000000   0.750000000000000  -0.050000000000000 0
ion O   0.000000000000000   0.000000000000000  -0.150000000000000 0
ion O   0.500000000000000   0.000000000000000  -0.150000000000000 0
ion O   0.000000000000000   0.500000000000000  -0.150000000000000 0
ion O   0.500000000000000   0.500000000000000  -0.150000000000000 0
ion O   0.001280367278158  -0.009075056187568   0.236224967481259 1
ion H   0.152015253510946   0.001154167429720   0.251026684671069 1

# Forces in Lattice coordinates:
force Ni   0.007353236029314  -0.002446879627399  -0.014402049839619 1
force Ni  -0.001719422769182  -0.006631945878523  -0.009977173125479 1
force Ni  -0.002250556080461  -0.000251860371834   0.009039252395762 1
force Ni  -0.005321889449433   0.001262703788357  -0.026013459552908 1
force Ni   0.002965819308806  -0.029499647781046  -0.606474586758014 0
force Ni   0.027924362235401   0.057174511274159  -0.396264352374807 0
force Ni   0.075499964629174  -0.007387311139686   0.441971828277947 0
force Ni  -0.066110817207692  -0.003684869636287   0.282674636958641 0
force Cr  -0.003550949491199  -0.001768169317539   0.019231992200363 1
force V   0.003021665787268  -0.000511985673002  -0.016466500501844 1
force V   0.003494331421944   0.001076157264317  -0.006344889504889 1
force V  -0.004046176541275  -0.002403781342558  -0.000733561984473 1
force V  -0.017866514808087  -0.033162681241567  -0.146151954276835 0
force V  -0.012536800732701   0.024661451851261  -0.498785550122369 0
force Co   0.091056589158840  -0.016160579636471  -0.327566976488709 0
force Co  -0.071060808056747  -0.018916862558952  -0.150316606958489 0
force O   0.001859160748662  -0.000071835227662  -0.024470320736640 1
force O   0.002737788092253  -0.003780733763095  -0.004244971349685 1
force O   0.008699636509324   0.001023872229855  -0.019989991288563 1
force O  -0.000388655113012  -0.005296141378560  -0.012062119621874 1
force O  -0.004159175846416  -0.000107735190848  -0.016348291228202 1
force O  -0.000178442030488   0.001966872397204   0.001212227376493 1
force O  -0.006286390567167  -0.000860546853083  -0.023510102663948 1
force O  -0.002572092873183  -0.007834810493375  -0.003663246349371 1
force O  -0.045457214354010   0.009654580357580   0.575306845287281 0
force O   0.014289148955305   0.001708846586832   0.156710310577773 0
force O   0.000181479077616   0.013613763695997   0.333656684020219 0
force O   0.028275145336034  -0.005761786454813   0.088152961912984 0
force O   0.040832974463465  -0.029051887430137   0.000228404341161 0
force O  -0.047304852761073  -0.041113392913283   0.138522134554107 0
force O   0.029359459345064   0.047183069258703   0.023528744516131 0
force O  -0.049727944790721   0.042088861238254   0.094735479307149 0
force O   0.016103643060168   0.011119447611755   0.015010773644589 1
force H  -0.014363070321814  -0.002865835168212  -0.025697265401485 1

# Energy components:
   Eewald =     5808.2252466692816597
       EH =     7804.4101985684683314
     Eloc =   -15965.6839746349305642
      Enl =     -612.4142048360797617
   Epulay =       -0.0004911042135150
      Exc =     -261.7309446493165979
       KE =     1010.9040660836708412
        U =        1.5635317157632882
-------------------------------------
     Etot =    -2214.7265721873568509
       TS =        0.0006706637623379
-------------------------------------
        F =    -2214.7272428511191720

IonicMinimize: Iter:  21  F: -2214.727242851119172  |grad|_K:  4.471e-04  alpha:  1.000e+00  linmin: -2.137e-02  t[s]:  70203.75
IonicMinimize: Converged (|Delta F|<1.000000e-04 for 3 iters).

#--- Lowdin population analysis ---
# oxidation-state Ni +3.575 +3.417 +3.424 +3.487 +3.536 +3.461 +3.866 +3.772
# magnetic-moments Ni -0.016 +0.675 +0.823 -0.892 +0.992 +0.927 -1.051 +0.990
# oxidation-state Cr +2.992
# magnetic-moments Cr +4.028
# oxidation-state V +1.291 +1.240 +1.017 +1.048 +1.097
# magnetic-moments V -2.060 +2.012 -2.897 -2.690 -2.509
# oxidation-state Co +1.243 +1.241
# magnetic-moments Co -2.699 +2.649
# oxidation-state O -0.777 -0.725 -0.726 -0.786 -0.749 -0.722 -0.804 -0.750 -0.854 -0.747 -0.815 -0.795 -0.887 -0.842 -0.889 -0.838 -0.682
# magnetic-moments O +0.078 +0.082 -0.193 +0.093 +0.005 +0.080 +0.028 +0.048 +0.131 +0.136 +0.150 +0.285 -0.001 +0.084 -0.008 +0.097 +0.020
# oxidation-state H +0.370
# magnetic-moments H -0.000


Dumping 'run.ionpos' ... done
Dumping 'run.lattice' ... done
Dumping 'run.Ecomponents' ... done
End date and time: Tue May 20 18:55:02 2025  (Duration: 0-19:30:06.85)
Done!
