/var/spool/slurmd/job44149/slurm_script: line 9: module: command not found
/var/spool/slurmd/job44149/slurm_script: line 10: module: command not found

*************** JDFTx 1.7.0  ***************

Start date and time: Fri May  9 10:37:28 2025
Executable /data2/jt577/jdftx_eat_withLibXC/build/jdftx with command-line: -i /data2/jt577/May_2025/Relax_Mag/rel15+1_6/OH/runs/calc_/run.in
Running on hosts (process indices):  node3404 (0-8)
Divided in process groups (process indices):  0 (0)  1 (1)  2 (2)  3 (3)  4 (4)  5 (5)  6 (6)  7 (7)  8 (8)
Resource initialization completed at t[s]:      0.00
Run totals: 9 processes, 90 threads, 0 GPUs


Input parsed successfully to the following command list (including defaults):

add-mix 
add-U 	Ni d 0.22 \
	Cr d 0.16 \
	V d 0.12 \
	Co d 0.2
basis kpoint-dependent
coords-type Lattice
core-overlap-check vector
coulomb-interaction Periodic
davidson-band-ratio 1.1
dump End IonicPositions Lattice Ecomponents
dump-name run.$VAR
elec-cutoff 30
elec-eigen-algo Davidson
elec-ex-corr gga-x-rpbe gga-c-pbe
elec-smearing Fermi 0.001
electronic-minimize  \
	dirUpdateScheme      FletcherReeves \
	linminMethod         DirUpdateRecommended \
	nIterations          1000 \
	history              15 \
	knormThreshold       0 \
	energyDiffThreshold  1e-06 \
	nEnergyDiff          5 \
	alphaTstart          1 \
	alphaTmin            1e-10 \
	updateTestStepSize   yes \
	alphaTreduceFactor   0.1 \
	alphaTincreaseFactor 3 \
	nAlphaAdjustMax      3 \
	wolfeEnergy          0.0001 \
	wolfeGradient        0.9 \
	fdTest               no
exchange-regularization WignerSeitzTruncated
fluid None
fluid-ex-corr (null) lda-PZ
fluid-gummel-loop 10 1.000000e-05
fluid-minimize  \
	dirUpdateScheme      PolakRibiere \
	linminMethod         DirUpdateRecommended \
	nIterations          100 \
	history              15 \
	knormThreshold       0 \
	energyDiffThreshold  0 \
	nEnergyDiff          2 \
	alphaTstart          1 \
	alphaTmin            1e-10 \
	updateTestStepSize   yes \
	alphaTreduceFactor   0.1 \
	alphaTincreaseFactor 3 \
	nAlphaAdjustMax      3 \
	wolfeEnergy          0.0001 \
	wolfeGradient        0.9 \
	fdTest               no
fluid-solvent H2O 55.338 ScalarEOS \
	epsBulk 78.4 \
	pMol 0.92466 \
	epsInf 1.77 \
	Pvap 1.06736e-10 \
	sigmaBulk 4.62e-05 \
	Rvdw 2.61727 \
	Res 1.42 \
	tauNuc 343133 \
	poleEl 15 7 1
forces-output-coords Positions
initial-magnetic-moments  \
	Ni 1 -1 1 -1 1 1 -1 1 \
	Cr 1 \
	V -1 1 -1 -1 -1 \
	Co -1 1
initial-state run.$VAR
ion Ni  0.000000000000000   0.000000000000000   0.150000000000000 1
ion Ni  0.500000000000000   0.000000000000000   0.150000000000000 1
ion Ni  0.250000000000000   0.750000000000000   0.050000000000000 1
ion Ni -0.250000000000000   0.250000000000000   0.050000000000000 1
ion Ni  0.500000000000000   0.000000000000000  -0.050000000000000 0
ion Ni  0.500000000000000   0.500000000000000  -0.050000000000000 0
ion Ni  0.250000000000000   0.750000000000000  -0.150000000000000 0
ion Ni -0.250000000000000   0.750000000000000  -0.150000000000000 0
ion Cr  0.000000000000000   0.500000000000000   0.150000000000000 1
ion V  0.500000000000000   0.500000000000000   0.150000000000000 1
ion V  0.250000000000000   0.250000000000000   0.050000000000000 1
ion V -0.250000000000000   0.750000000000000   0.050000000000000 1
ion V  0.000000000000000   0.000000000000000  -0.050000000000000 0
ion V  0.000000000000000   0.500000000000000  -0.050000000000000 0
ion Co  0.250000000000000   0.250000000000000  -0.150000000000000 0
ion Co -0.250000000000000   0.250000000000000  -0.150000000000000 0
ion O  0.250000000000000   0.250000000000000   0.150000000000000 1
ion O  0.250000000000000   0.750000000000000   0.150000000000000 1
ion O -0.250000000000000   0.250000000000000   0.150000000000000 1
ion O -0.250000000000000   0.750000000000000   0.150000000000000 1
ion O  0.000000000000000   0.000000000000000   0.050000000000000 1
ion O  0.500000000000000   0.000000000000000   0.050000000000000 1
ion O  0.000000000000000   0.500000000000000   0.050000000000000 1
ion O  0.500000000000000   0.500000000000000   0.050000000000000 1
ion O  0.250000000000000   0.250000000000000  -0.050000000000000 0
ion O  0.250000000000000   0.750000000000000  -0.050000000000000 0
ion O -0.250000000000000   0.250000000000000  -0.050000000000000 0
ion O -0.250000000000000   0.750000000000000  -0.050000000000000 0
ion O  0.000000000000000   0.000000000000000  -0.150000000000000 0
ion O  0.500000000000000   0.000000000000000  -0.150000000000000 0
ion O  0.000000000000000   0.500000000000000  -0.150000000000000 0
ion O  0.500000000000000   0.500000000000000  -0.150000000000000 0
ion O -0.008040138212305  -0.008269777577920   0.235000196603227 1
ion H  0.095742872057713   0.094897636790041   0.252810710255288 1
ion-species SG15/$ID_ONCV_PBE.upf
ion-width 0
ionic-minimize  \
	dirUpdateScheme      L-BFGS \
	linminMethod         DirUpdateRecommended \
	nIterations          1000 \
	history              15 \
	knormThreshold       0.0001 \
	energyDiffThreshold  0.0001 \
	nEnergyDiff          3 \
	alphaTstart          1 \
	alphaTmin            1e-10 \
	updateTestStepSize   yes \
	alphaTreduceFactor   0.1 \
	alphaTincreaseFactor 3 \
	nAlphaAdjustMax      3 \
	wolfeEnergy          0.0001 \
	wolfeGradient        0.9 \
	fdTest               no
kpoint   0.500000000000   0.500000000000   0.500000000000  1.00000000000000
kpoint-folding 3 3 1 
latt-move-scale 1 1 1
latt-scale 1 1 1 
lattice  \
	   8.140000000000001    8.140000000000001    0.000000000000000  \
	   8.140000000000001   -8.140000000000001    0.000000000000000  \
	   0.000000000000000    0.000000000000000   40.700000000000003 
lattice-minimize  \
	dirUpdateScheme      L-BFGS \
	linminMethod         DirUpdateRecommended \
	nIterations          0 \
	history              15 \
	knormThreshold       0 \
	energyDiffThreshold  1e-06 \
	nEnergyDiff          2 \
	alphaTstart          1 \
	alphaTmin            1e-10 \
	updateTestStepSize   yes \
	alphaTreduceFactor   0.1 \
	alphaTincreaseFactor 3 \
	nAlphaAdjustMax      3 \
	wolfeEnergy          0.0001 \
	wolfeGradient        0.9 \
	fdTest               no
lcao-params -1 1e-06 0.001
pcm-variant GLSSA13
spintype z-spin
subspace-rotation-factor 1 yes
symmetries none
symmetry-threshold 0.0001


Applied RMS atom displacement 0 bohrs to make symmetries exact.

---------- Initializing the Grid ----------
R = 
[         8.14         8.14            0  ]
[         8.14        -8.14            0  ]
[            0            0         40.7  ]
unit cell volume = 5393.53
G =
[   0.385945   0.385945         -0  ]
[   0.385945  -0.385945         -0  ]
[         -0         -0   0.154378  ]
Minimum fftbox size, Smin = [  60  60  204  ]
Chosen fftbox size, S = [  60  60  210  ]

---------- Exchange Correlation functional ----------
Initialized LibXC exchange functional 'Hammer, Hansen, and Norskov'
Initialized LibXC correlation functional 'Perdew, Burke & Ernzerhof'

---------- Setting up pseudopotentials ----------
Width of ionic core gaussian charges (only for fluid interactions / plotting) set to 0

Reading pseudopotential file '/data2/jt577/jdftx_eat_withLibXC/build/pseudopotentials/SG15/Ni_ONCV_PBE.upf':
  'Ni' pseudopotential, 'PBE' functional
  Generated using ONCVPSP code by D. R. Hamann
  Author: Martin Schlipf and Francois Gygi  Date: 150915.
  18 valence electrons, 4 orbitals, 6 projectors, 1292 radial grid points, with lMax = 2
  Transforming local potential to a uniform radial grid of dG=0.02 with 1419 points.
  Transforming nonlocal projectors to a uniform radial grid of dG=0.02 with 528 points.
    3S    l: 0   occupation:  2.0   eigenvalue: -4.081355
    3P    l: 1   occupation:  6.0   eigenvalue: -2.623460
    4S    l: 0   occupation:  2.0   eigenvalue: -0.207378
    3D    l: 2   occupation:  8.0   eigenvalue: -0.326118
  Transforming atomic orbitals to a uniform radial grid of dG=0.02 with 528 points.
  WARNING: large normalization error in atomic orbital 1s (integral: 0.000006).
  Core radius for overlap checks: 1.99 bohrs.
  Reading pulay file /data2/jt577/jdftx_eat_withLibXC/build/pseudopotentials/SG15/Ni_ONCV_PBE.pulay ... using dE_dnG = -7.250568e-04 computed for Ecut = 30.

Reading pseudopotential file '/data2/jt577/jdftx_eat_withLibXC/build/pseudopotentials/SG15/Cr_ONCV_PBE.upf':
  'Cr' pseudopotential, 'PBE' functional
  Generated using ONCVPSP code by D. R. Hamann
  Author: Martin Schlipf and Francois Gygi  Date: 150915.
  14 valence electrons, 4 orbitals, 6 projectors, 1160 radial grid points, with lMax = 2
  Transforming local potential to a uniform radial grid of dG=0.02 with 1419 points.
  Transforming nonlocal projectors to a uniform radial grid of dG=0.02 with 528 points.
    3S    l: 0   occupation:  2.0   eigenvalue: -2.865131
    3P    l: 1   occupation:  6.0   eigenvalue: -1.810600
    4S    l: 0   occupation:  2.0   eigenvalue: -0.180525
    3D    l: 2   occupation:  4.0   eigenvalue: -0.220312
  Transforming atomic orbitals to a uniform radial grid of dG=0.02 with 528 points.
  WARNING: large normalization error in atomic orbital 1s (integral: 0.000001).
  Core radius for overlap checks: 2.10 bohrs.
  Reading pulay file /data2/jt577/jdftx_eat_withLibXC/build/pseudopotentials/SG15/Cr_ONCV_PBE.pulay ... using dE_dnG = -9.817895e-06 computed for Ecut = 30.

Reading pseudopotential file '/data2/jt577/jdftx_eat_withLibXC/build/pseudopotentials/SG15/V_ONCV_PBE.upf':
  'V' pseudopotential, 'PBE' functional
  Generated using ONCVPSP code by D. R. Hamann
  Author: Martin Schlipf and Francois Gygi  Date: 150915.
  13 valence electrons, 4 orbitals, 6 projectors, 1536 radial grid points, with lMax = 2
  Transforming local potential to a uniform radial grid of dG=0.02 with 1419 points.
  Transforming nonlocal projectors to a uniform radial grid of dG=0.02 with 528 points.
    3S    l: 0   occupation:  2.0   eigenvalue: -2.581105
    3P    l: 1   occupation:  6.0   eigenvalue: -1.618486
    4S    l: 0   occupation:  2.0   eigenvalue: -0.172804
    3D    l: 2   occupation:  3.0   eigenvalue: -0.189795
  Transforming atomic orbitals to a uniform radial grid of dG=0.02 with 528 points.
  Core radius for overlap checks: 1.80 bohrs.
  Reading pulay file /data2/jt577/jdftx_eat_withLibXC/build/pseudopotentials/SG15/V_ONCV_PBE.pulay ... using dE_dnG = -1.698632e-04 computed for Ecut = 30.

Reading pseudopotential file '/data2/jt577/jdftx_eat_withLibXC/build/pseudopotentials/SG15/Co_ONCV_PBE.upf':
  'Co' pseudopotential, 'PBE' functional
  Generated using ONCVPSP code by D. R. Hamann
  Author: Martin Schlipf and Francois Gygi  Date: 150915.
  17 valence electrons, 4 orbitals, 6 projectors, 1388 radial grid points, with lMax = 2
  Transforming local potential to a uniform radial grid of dG=0.02 with 1419 points.
  Transforming nonlocal projectors to a uniform radial grid of dG=0.02 with 528 points.
    3S    l: 0   occupation:  2.0   eigenvalue: -3.763303
    3P    l: 1   occupation:  6.0   eigenvalue: -2.412101
    4S    l: 0   occupation:  2.0   eigenvalue: -0.201022
    3D    l: 2   occupation:  7.0   eigenvalue: -0.301498
  Transforming atomic orbitals to a uniform radial grid of dG=0.02 with 528 points.
  Core radius for overlap checks: 1.94 bohrs.
  Reading pulay file /data2/jt577/jdftx_eat_withLibXC/build/pseudopotentials/SG15/Co_ONCV_PBE.pulay ... using dE_dnG = -9.787391e-05 computed for Ecut = 30.

Reading pseudopotential file '/data2/jt577/jdftx_eat_withLibXC/build/pseudopotentials/SG15/O_ONCV_PBE.upf':
  'O' pseudopotential, 'PBE' functional
  Generated using ONCVPSP code by D. R. Hamann
  Author: Martin Schlipf and Francois Gygi  Date: 150915.
  6 valence electrons, 2 orbitals, 4 projectors, 936 radial grid points, with lMax = 1
  Transforming local potential to a uniform radial grid of dG=0.02 with 1419 points.
  Transforming nonlocal projectors to a uniform radial grid of dG=0.02 with 528 points.
    2S    l: 0   occupation:  2.0   eigenvalue: -0.880572
    2P    l: 1   occupation:  4.0   eigenvalue: -0.331869
  Transforming atomic orbitals to a uniform radial grid of dG=0.02 with 528 points.
  Core radius for overlap checks: 1.29 bohrs.
  Reading pulay file /data2/jt577/jdftx_eat_withLibXC/build/pseudopotentials/SG15/O_ONCV_PBE.pulay ... using dE_dnG = -8.209514e-03 computed for Ecut = 30.

Reading pseudopotential file '/data2/jt577/jdftx_eat_withLibXC/build/pseudopotentials/SG15/H_ONCV_PBE.upf':
  'H' pseudopotential, 'PBE' functional
  Generated using ONCVPSP code by D. R. Hamann
  Author: Martin Schlipf and Francois Gygi  Date: 150915.
  1 valence electrons, 1 orbitals, 2 projectors, 1166 radial grid points, with lMax = 0
  Transforming local potential to a uniform radial grid of dG=0.02 with 1419 points.
  Transforming nonlocal projectors to a uniform radial grid of dG=0.02 with 528 points.
    1S    l: 0   occupation:  1.0   eigenvalue: -0.238602
  Transforming atomic orbitals to a uniform radial grid of dG=0.02 with 528 points.
  Core radius for overlap checks: 1.01 bohrs.
  Reading pulay file /data2/jt577/jdftx_eat_withLibXC/build/pseudopotentials/SG15/H_ONCV_PBE.pulay ... using dE_dnG = -8.245991e-05 computed for Ecut = 30.

Initialized 6 species with 34 total atoms.

Folded 1 k-points by 3x3x1 to 9 k-points.

---------- Setting up k-points, bands, fillings ----------
No reducable k-points. 
Computing the number of bands and number of electrons
Calculating initial fillings.
nElectrons: 360.000000   nBands: 229   nStates: 18

----- Setting up reduced wavefunction bases (one per k-point) -----
average nbasis = 42312.000 , ideal nbasis = 42330.081

---------- Setting up ewald sum ----------
Optimum gaussian width for ewald sums = 3.887061 bohr.
Real space sum over 605 unit cells with max indices [  5  5  2  ]
Reciprocal space sum over 5915 terms with max indices [  6  6  17  ]

---------- Allocating electronic variables ----------
Initializing wave functions:  linear combination of atomic orbitals
Ni (M=1) pseudo-atom majority spin occupations:   s ( 1 0.5 )  p ( 3 )  d ( 5 )
Ni (M=1) pseudo-atom minority spin occupations:   s ( 1 0 )  p ( 3 )  d ( 4.5 )
Cr (M=1) pseudo-atom majority spin occupations:   s ( 1 0 )  p ( 3 )  d ( 3.5 )
Cr (M=1) pseudo-atom minority spin occupations:   s ( 1 0 )  p ( 3 )  d ( 2.5 )
V (M=1) pseudo-atom majority spin occupations:   s ( 1 0 )  p ( 3 )  d ( 3 )
V (M=1) pseudo-atom minority spin occupations:   s ( 1 0 )  p ( 3 )  d ( 2 )
Co (M=1) pseudo-atom majority spin occupations:   s ( 1 0 )  p ( 3 )  d ( 5 )
Co (M=1) pseudo-atom minority spin occupations:   s ( 1 0 )  p ( 3 )  d ( 4 )
O pseudo-atom occupations:   s ( 2 )  p ( 4 )
H pseudo-atom occupations:   s ( 1 )
	FillingsUpdate:  mu: +1.888878760  nElectrons: 360.000000  magneticMoment: [ Abs: 0.30526  Tot: -0.00000 ]
LCAOMinimize: Iter:   0  F: -2020.1851700539843932  |grad|_K:  2.693e-02  alpha:  1.000e+00
LCAOMinimize: 	Step increased F by 3.068140e+02, reducing alpha to 2.542346e-02.
	FillingsUpdate:  mu: +1.490970314  nElectrons: 360.000000  magneticMoment: [ Abs: 0.26614  Tot: -0.00000 ]
LCAOMinimize: Iter:   1  F: -2031.3970268150344509  |grad|_K:  1.404e-02  alpha:  2.542e-02  linmin: -5.309e-02  cgtest:  1.545e+00  t[s]:     53.91
LCAOMinimize: Encountered beta<0, resetting CG.
LCAOMinimize: 	Wrong curvature in test step, increasing alphaT to 7.627038e-02.
	FillingsUpdate:  mu: +1.202638828  nElectrons: 360.000000  magneticMoment: [ Abs: 0.31469  Tot: +0.00000 ]
LCAOMinimize: Iter:   2  F: -2037.5083135498882712  |grad|_K:  1.778e-02  alpha: -4.521e-02  linmin: -5.586e-02  cgtest:  6.958e-01  t[s]:     67.98
LCAOMinimize: 	Step increased F by 4.280744e+02, reducing alpha to 2.167936e-02.
	FillingsUpdate:  mu: +1.127548584  nElectrons: 360.000000  magneticMoment: [ Abs: 4.49407  Tot: -0.00000 ]
LCAOMinimize: Iter:   3  F: -2063.7256269571525991  |grad|_K:  6.395e-02  alpha:  2.168e-02  linmin:  1.573e-01  cgtest: -1.931e-01  t[s]:     93.35
LCAOMinimize: 	Bad step direction: g.d > 0.
LCAOMinimize: 	Undoing step.
LCAOMinimize: 	Step failed: resetting search direction.
	FillingsUpdate:  mu: +1.127548584  nElectrons: 360.000000  magneticMoment: [ Abs: 4.49407  Tot: -0.00000 ]
LCAOMinimize: Iter:   4  F: -2063.7256269571525991  |grad|_K:  6.395e-02  alpha:  0.000e+00
	FillingsUpdate:  mu: +0.116547315  nElectrons: 360.000000  magneticMoment: [ Abs: 6.18154  Tot: -0.00000 ]
LCAOMinimize: Iter:   5  F: -2071.8640852138560149  |grad|_K:  3.735e-02  alpha:  1.046e-02  linmin:  7.931e-02  cgtest: -1.145e+00  t[s]:    118.92
LCAOMinimize: 	Bad step direction: g.d > 0.
LCAOMinimize: 	Undoing step.
LCAOMinimize: 	Step failed: resetting search direction.
	FillingsUpdate:  mu: +0.116547315  nElectrons: 360.000000  magneticMoment: [ Abs: 6.18154  Tot: -0.00000 ]
LCAOMinimize: Iter:   6  F: -2071.8640852138596529  |grad|_K:  3.735e-02  alpha:  0.000e+00
	FillingsUpdate:  mu: +0.045375138  nElectrons: 360.000000  magneticMoment: [ Abs: 8.14626  Tot: -0.00000 ]
LCAOMinimize: Iter:   7  F: -2078.7063498527618322  |grad|_K:  8.033e-03  alpha:  9.243e-03  linmin:  8.524e-02  cgtest: -1.442e-01  t[s]:    144.46
LCAOMinimize: 	Predicted alpha/alphaT>3.000000, increasing alphaT to 2.772816e-02.
	FillingsUpdate:  mu: +0.266522657  nElectrons: 360.000000  magneticMoment: [ Abs: 7.05543  Tot: -0.00000 ]
LCAOMinimize: Iter:   8  F: -2081.0837093460108917  |grad|_K:  3.000e-02  alpha:  7.974e-02  linmin:  2.083e-03  cgtest:  4.767e-01  t[s]:    163.14
	FillingsUpdate:  mu: +0.309788278  nElectrons: 360.000000  magneticMoment: [ Abs: 5.89087  Tot: -0.00000 ]
LCAOMinimize: Iter:   9  F: -2082.7420782945764586  |grad|_K:  3.203e-02  alpha:  5.823e-03  linmin: -1.598e-03  cgtest:  1.396e+00  t[s]:    177.72
LCAOMinimize: Encountered beta<0, resetting CG.
	FillingsUpdate:  mu: -0.102324976  nElectrons: 360.000000  magneticMoment: [ Abs: 8.11601  Tot: +0.00000 ]
LCAOMinimize: Iter:  10  F: -2086.8286999994147664  |grad|_K:  7.642e-03  alpha:  7.763e-03  linmin: -1.147e-01  cgtest:  6.121e-01  t[s]:    192.52
LCAOMinimize: Encountered beta<0, resetting CG.
LCAOMinimize: 	Predicted alpha/alphaT>3.000000, increasing alphaT to 2.328911e-02.
LCAOMinimize: 	Predicted alpha/alphaT>3.000000, increasing alphaT to 6.986733e-02.
LCAOMinimize: 	Predicted alpha/alphaT>3.000000, increasing alphaT to 2.096020e-01.
LCAOMinimize: 	Step increased F by 1.998986e+02, reducing alpha to 4.865167e-02.
	FillingsUpdate:  mu: +0.120170983  nElectrons: 360.000000  magneticMoment: [ Abs: 9.07214  Tot: -0.00000 ]
LCAOMinimize: Iter:  11  F: -2089.6705149489566793  |grad|_K:  1.241e-02  alpha:  4.865e-02  linmin: -3.839e-02  cgtest: -8.946e-06  t[s]:    226.53
	FillingsUpdate:  mu: +0.223281858  nElectrons: 360.000000  magneticMoment: [ Abs: 9.57756  Tot: -0.00000 ]
LCAOMinimize: Iter:  12  F: -2090.6949923952211066  |grad|_K:  8.294e-03  alpha:  5.699e-03  linmin: -1.681e-02  cgtest:  4.957e-01  t[s]:    241.20
LCAOMinimize: 	Wrong curvature in test step, increasing alphaT to 1.709581e-02.
	FillingsUpdate:  mu: +0.218095594  nElectrons: 360.000000  magneticMoment: [ Abs: 9.40145  Tot: +0.00000 ]
LCAOMinimize: Iter:  13  F: -2091.1018565340664281  |grad|_K:  8.203e-03  alpha: -3.932e-01  linmin: -7.102e-02  cgtest:  9.202e-01  t[s]:    254.95
	FillingsUpdate:  mu: +0.056649286  nElectrons: 360.000000  magneticMoment: [ Abs: 6.42446  Tot: -0.00000 ]
LCAOMinimize: Iter:  14  F: -2093.0482536216613880  |grad|_K:  9.294e-03  alpha:  1.159e-01  linmin:  2.553e-02  cgtest: -7.613e-01  t[s]:    269.51
	FillingsUpdate:  mu: +0.126611085  nElectrons: 360.000000  magneticMoment: [ Abs: 6.66986  Tot: -0.00000 ]
LCAOMinimize: Iter:  15  F: -2093.0854785762940082  |grad|_K:  9.895e-03  alpha:  4.623e-03  linmin:  8.263e-03  cgtest:  9.176e-01  t[s]:    283.89
LCAOMinimize: 	Predicted alpha/alphaT>3.000000, increasing alphaT to 1.386864e-02.
	FillingsUpdate:  mu: +0.119461091  nElectrons: 360.000000  magneticMoment: [ Abs: 7.07846  Tot: -0.00000 ]
LCAOMinimize: Iter:  16  F: -2093.5489052290872678  |grad|_K:  1.641e-02  alpha:  3.450e-02  linmin:  7.615e-02  cgtest: -3.403e-01  t[s]:    302.32
LCAOMinimize: 	Bad step direction: g.d > 0.
LCAOMinimize: 	Undoing step.
LCAOMinimize: 	Step failed: resetting search direction.
	FillingsUpdate:  mu: +0.119461091  nElectrons: 360.000000  magneticMoment: [ Abs: 7.07846  Tot: -0.00000 ]
LCAOMinimize: Iter:  17  F: -2093.5489052290872678  |grad|_K:  1.641e-02  alpha:  0.000e+00
	FillingsUpdate:  mu: +0.037365219  nElectrons: 360.000000  magneticMoment: [ Abs: 8.17147  Tot: -0.00000 ]
LCAOMinimize: Iter:  18  F: -2094.8206362984396947  |grad|_K:  6.012e-03  alpha:  1.412e-02  linmin:  7.202e-02  cgtest: -7.194e-01  t[s]:    327.38
LCAOMinimize: 	Wrong curvature in test step, increasing alphaT to 4.237134e-02.
	FillingsUpdate:  mu: +0.072357638  nElectrons: 360.000000  magneticMoment: [ Abs: 8.54148  Tot: +0.00000 ]
LCAOMinimize: Iter:  19  F: -2095.0966818719002731  |grad|_K:  6.261e-03  alpha: -8.494e-02  linmin: -4.585e-02  cgtest:  8.078e-01  t[s]:    341.02
LCAOMinimize: 	Step increased F by 7.543615e+00, reducing alpha to 1.028388e-02.
	FillingsUpdate:  mu: +0.069145293  nElectrons: 360.000000  magneticMoment: [ Abs: 8.41968  Tot: -0.00000 ]
LCAOMinimize: Iter:  20  F: -2095.3167123366829401  |grad|_K:  2.543e-03  alpha:  1.028e-02  linmin:  4.363e-02  cgtest: -3.388e-01  t[s]:    365.81
	FillingsUpdate:  mu: +0.044300997  nElectrons: 360.000000  magneticMoment: [ Abs: 8.49240  Tot: -0.00000 ]
LCAOMinimize: Iter:  21  F: -2095.3689762050876197  |grad|_K:  2.928e-03  alpha:  2.642e-02  linmin:  7.317e-04  cgtest:  7.244e-01  t[s]:    380.36
	FillingsUpdate:  mu: +0.023369327  nElectrons: 360.000000  magneticMoment: [ Abs: 8.68164  Tot: -0.00000 ]
LCAOMinimize: Iter:  22  F: -2095.4056957902789691  |grad|_K:  9.346e-04  alpha:  9.237e-03  linmin:  4.843e-03  cgtest: -3.526e-02  t[s]:    394.91
LCAOMinimize: 	Predicted alpha/alphaT>3.000000, increasing alphaT to 2.771168e-02.
	FillingsUpdate:  mu: +0.038678925  nElectrons: 360.000000  magneticMoment: [ Abs: 8.95369  Tot: +0.00000 ]
LCAOMinimize: Iter:  23  F: -2095.4229016425433656  |grad|_K:  8.755e-04  alpha:  4.238e-02  linmin: -8.985e-04  cgtest:  1.304e-02  t[s]:    413.50
	FillingsUpdate:  mu: +0.037442217  nElectrons: 360.000000  magneticMoment: [ Abs: 9.14855  Tot: -0.00000 ]
LCAOMinimize: Iter:  24  F: -2095.4423812725740390  |grad|_K:  1.039e-03  alpha:  5.120e-02  linmin: -1.100e-04  cgtest: -6.699e-02  t[s]:    427.99
	FillingsUpdate:  mu: +0.028145598  nElectrons: 360.000000  magneticMoment: [ Abs: 9.38661  Tot: +0.00000 ]
LCAOMinimize: Iter:  25  F: -2095.4513582052245511  |grad|_K:  8.201e-04  alpha:  2.172e-02  linmin:  1.079e-03  cgtest: -2.202e-01  t[s]:    442.63
	FillingsUpdate:  mu: +0.037336715  nElectrons: 360.000000  magneticMoment: [ Abs: 9.97270  Tot: +0.00000 ]
LCAOMinimize: Iter:  26  F: -2095.4670448142173882  |grad|_K:  8.678e-04  alpha:  6.239e-02  linmin:  6.905e-04  cgtest:  6.366e-01  t[s]:    457.00
	FillingsUpdate:  mu: +0.044948272  nElectrons: 360.000000  magneticMoment: [ Abs: 10.10877  Tot: -0.00000 ]
LCAOMinimize: Iter:  27  F: -2095.4815290853512124  |grad|_K:  1.205e-03  alpha:  4.297e-02  linmin: -4.908e-05  cgtest: -1.058e-02  t[s]:    471.40
	FillingsUpdate:  mu: +0.054528922  nElectrons: 360.000000  magneticMoment: [ Abs: 10.75469  Tot: +0.00000 ]
LCAOMinimize: Iter:  28  F: -2095.5195359716008170  |grad|_K:  6.502e-04  alpha:  5.281e-02  linmin: -1.766e-03  cgtest:  8.073e-01  t[s]:    485.93
LCAOMinimize: Encountered beta<0, resetting CG.
	FillingsUpdate:  mu: +0.046069872  nElectrons: 360.000000  magneticMoment: [ Abs: 10.81522  Tot: +0.00000 ]
LCAOMinimize: Iter:  29  F: -2095.5258280542757348  |grad|_K:  5.764e-04  alpha:  3.166e-02  linmin:  1.551e-04  cgtest:  2.815e-02  t[s]:    500.44
	FillingsUpdate:  mu: +0.035342557  nElectrons: 360.000000  magneticMoment: [ Abs: 10.87549  Tot: +0.00000 ]
LCAOMinimize: Iter:  30  F: -2095.5322687618404416  |grad|_K:  4.118e-04  alpha:  4.014e-02  linmin: -4.079e-03  cgtest: -2.873e-02  t[s]:    514.73
LCAOMinimize: None of the convergence criteria satisfied after 30 iterations.


---- Citations for features of the code used in this run ----

   Software package:
      R. Sundararaman, K. Letchworth-Weaver, K.A. Schwarz, D. Gunceler, Y. Ozhabes and T.A. Arias, 'JDFTx: software for joint density-functional theory', SoftwareX 6, 278 (2017)

   Simplified rotationally-invariant DFT+U:
      S. L. Dudarev et al., Phys. Rev. B 57, 1505 (1998)

   LibXC library of exchange-correlation functions:
      M. A. L. Marques, M. J. T. Oliveira and T. Burnus, Comput. Phys. Commun. 183, 2272 (2012)

   Hammer, Hansen, and Norskov exchange functional:
      B. Hammer, L. B. Hansen, and J. K. Nørskov, Phys. Rev. B 59, 7413 (1999)

   Perdew, Burke & Ernzerhof correlation functional:
      J. P. Perdew, K. Burke, and M. Ernzerhof, Phys. Rev. Lett. 77, 3865 (1996)

   Pseudopotentials:
      M Schlipf and F Gygi, Comput. Phys. Commun. 196, 36 (2015)

   Total energy minimization with Auxiliary Hamiltonian:
      C. Freysoldt, S. Boeck, and J. Neugebauer, Phys. Rev. B 79, 241103(R) (2009)

This list may not be complete. Please suggest additional citations or
report any other bugs at https://github.com/shankar1729/jdftx/issues

Initialization completed successfully at t[s]:    521.35


-------- Electronic minimization -----------
	FillingsUpdate:  mu: +0.035342563  nElectrons: 360.000000  magneticMoment: [ Abs: 10.87549  Tot: +0.00000 ]
ElecMinimize: Iter:   0  F: -2095.532268761838623  |grad|_K:  1.195e-03  alpha:  1.000e+00
	FillingsUpdate:  mu: +0.686949714  nElectrons: 360.000000  magneticMoment: [ Abs: 12.47481  Tot: +0.00000 ]
	SubspaceRotationAdjust: set factor to 0.998
ElecMinimize: Iter:   1  F: -2161.918793177092994  |grad|_K:  1.450e-03  alpha:  4.794e-01  linmin:  2.075e-02  t[s]:    611.77
ElecMinimize: 	Step increased F by 2.765376e+00, reducing alpha to 1.685610e-02.
	FillingsUpdate:  mu: +0.636183945  nElectrons: 360.000000  magneticMoment: [ Abs: 12.14826  Tot: -0.00000 ]
	SubspaceRotationAdjust: set factor to 1.05
ElecMinimize: Iter:   2  F: -2165.991850981645257  |grad|_K:  9.302e-04  alpha:  1.686e-02  linmin: -2.733e-03  t[s]:    732.38
ElecMinimize: 	Predicted alpha/alphaT>3.000000, increasing alphaT to 5.056829e-02.
	FillingsUpdate:  mu: +0.416661177  nElectrons: 360.000000  magneticMoment: [ Abs: 11.10545  Tot: -0.00000 ]
	SubspaceRotationAdjust: set factor to 1.06
ElecMinimize: Iter:   3  F: -2190.608616359776079  |grad|_K:  7.091e-04  alpha:  1.147e-01  linmin: -1.711e-03  t[s]:    834.75
	FillingsUpdate:  mu: +0.454675035  nElectrons: 360.000000  magneticMoment: [ Abs: 12.27897  Tot: -0.00000 ]
	SubspaceRotationAdjust: set factor to 0.831
ElecMinimize: Iter:   4  F: -2195.939726771108326  |grad|_K:  6.714e-04  alpha:  2.765e-02  linmin: -1.614e-03  t[s]:    911.75
	FillingsUpdate:  mu: +1.033380094  nElectrons: 360.000000  magneticMoment: [ Abs: 16.84300  Tot: -0.00000 ]
	SubspaceRotationAdjust: set factor to 0.449
ElecMinimize: Iter:   5  F: -2199.364553794725907  |grad|_K:  1.394e-03  alpha:  5.891e-02  linmin:  2.440e-03  t[s]:    987.59
ElecMinimize: 	Bad step direction: g.d > 0.
ElecMinimize: 	Undoing step.
ElecMinimize: 	Step failed: resetting search direction.
	FillingsUpdate:  mu: +1.033380094  nElectrons: 360.000000  magneticMoment: [ Abs: 16.84300  Tot: -0.00000 ]
	SubspaceRotationAdjust: set factor to 0.258
ElecMinimize: Iter:   6  F: -2199.364553794730000  |grad|_K:  1.056e-03  alpha:  0.000e+00
	FillingsUpdate:  mu: +0.518975319  nElectrons: 360.000000  magneticMoment: [ Abs: 15.20918  Tot: +0.00000 ]
	SubspaceRotationAdjust: set factor to 0.14
ElecMinimize: Iter:   7  F: -2206.652342893442437  |grad|_K:  4.012e-04  alpha:  4.119e-02  linmin:  2.094e-03  t[s]:   1115.25
	FillingsUpdate:  mu: +0.200737200  nElectrons: 360.000000  magneticMoment: [ Abs: 14.52302  Tot: +0.00000 ]
	SubspaceRotationAdjust: set factor to 0.161
ElecMinimize: Iter:   8  F: -2209.924362599390406  |grad|_K:  1.822e-04  alpha:  1.046e-01  linmin: -5.645e-03  t[s]:   1191.59
	FillingsUpdate:  mu: +0.151521596  nElectrons: 360.000000  magneticMoment: [ Abs: 14.58850  Tot: -0.00000 ]
	SubspaceRotationAdjust: set factor to 0.115
	SubspaceRotationAdjust: resetting CG because factor has changed by 0.115075
ElecMinimize: 	State modified externally: resetting search direction.
ElecMinimize: Iter:   9  F: -2211.307177858270279  |grad|_K:  1.528e-04  alpha:  1.895e-01
	FillingsUpdate:  mu: +0.182645742  nElectrons: 360.000000  magneticMoment: [ Abs: 15.27254  Tot: +0.00000 ]
	SubspaceRotationAdjust: set factor to 0.114
ElecMinimize: Iter:  10  F: -2211.929103093070808  |grad|_K:  7.628e-05  alpha:  1.514e-01  linmin:  8.788e-04  t[s]:   1362.04
ElecMinimize: 	Predicted alpha/alphaT>3.000000, increasing alphaT to 4.541321e-01.
	FillingsUpdate:  mu: +0.179147828  nElectrons: 360.000000  magneticMoment: [ Abs: 16.03636  Tot: -0.00000 ]
	SubspaceRotationAdjust: set factor to 0.118
ElecMinimize: Iter:  11  F: -2212.364251285057435  |grad|_K:  6.798e-05  alpha:  4.397e-01  linmin: -1.328e-04  t[s]:   1470.12
	FillingsUpdate:  mu: +0.117244763  nElectrons: 360.000000  magneticMoment: [ Abs: 16.51547  Tot: +0.00000 ]
	SubspaceRotationAdjust: set factor to 0.15
ElecMinimize: Iter:  12  F: -2212.671509440023783  |grad|_K:  5.658e-05  alpha:  3.736e-01  linmin: -2.815e-04  t[s]:   1547.03
	FillingsUpdate:  mu: +0.128584277  nElectrons: 360.000000  magneticMoment: [ Abs: 17.84948  Tot: +0.00000 ]
	SubspaceRotationAdjust: set factor to 0.164
ElecMinimize: Iter:  13  F: -2213.014350971347994  |grad|_K:  6.362e-05  alpha:  5.515e-01  linmin: -1.807e-04  t[s]:   1621.91
	FillingsUpdate:  mu: +0.117667708  nElectrons: 360.000000  magneticMoment: [ Abs: 18.95372  Tot: -0.00000 ]
	SubspaceRotationAdjust: set factor to 0.137
ElecMinimize: Iter:  14  F: -2213.243380164584778  |grad|_K:  6.663e-05  alpha:  2.819e-01  linmin: -6.793e-05  t[s]:   1699.68
	FillingsUpdate:  mu: +0.130522351  nElectrons: 360.000000  magneticMoment: [ Abs: 20.96656  Tot: +0.00000 ]
	SubspaceRotationAdjust: set factor to 0.108
ElecMinimize: Iter:  15  F: -2213.478385659786454  |grad|_K:  7.815e-05  alpha:  3.030e-01  linmin:  3.513e-04  t[s]:   1773.65
	FillingsUpdate:  mu: +0.141088759  nElectrons: 360.000000  magneticMoment: [ Abs: 22.04808  Tot: +0.00000 ]
	SubspaceRotationAdjust: set factor to 0.0954
ElecMinimize: Iter:  16  F: -2213.568992884006548  |grad|_K:  8.330e-05  alpha:  1.076e-01  linmin: -1.874e-04  t[s]:   1851.82
	FillingsUpdate:  mu: +0.126283760  nElectrons: 360.000000  magneticMoment: [ Abs: 23.18605  Tot: +0.00000 ]
	SubspaceRotationAdjust: set factor to 0.0848
ElecMinimize: Iter:  17  F: -2213.729769091038634  |grad|_K:  7.076e-05  alpha:  1.123e-01  linmin:  3.487e-04  t[s]:   1929.48
	FillingsUpdate:  mu: +0.134979025  nElectrons: 360.000000  magneticMoment: [ Abs: 23.38617  Tot: -0.00000 ]
	SubspaceRotationAdjust: set factor to 0.0695
ElecMinimize: Iter:  18  F: -2213.753285834028702  |grad|_K:  7.457e-05  alpha:  3.454e-02  linmin: -9.261e-05  t[s]:   2007.70
	FillingsUpdate:  mu: +0.150016497  nElectrons: 360.000000  magneticMoment: [ Abs: 23.70631  Tot: +0.00000 ]
	SubspaceRotationAdjust: set factor to 0.0513
ElecMinimize: Iter:  19  F: -2213.815527263022886  |grad|_K:  7.815e-05  alpha:  6.148e-02  linmin:  1.274e-04  t[s]:   2085.14
	FillingsUpdate:  mu: +0.150617432  nElectrons: 360.000000  magneticMoment: [ Abs: 23.86562  Tot: +0.00000 ]
	SubspaceRotationAdjust: set factor to 0.0395
ElecMinimize: Iter:  20  F: -2213.845386766802221  |grad|_K:  7.261e-05  alpha:  2.896e-02  linmin: -5.464e-05  t[s]:   2161.54
	FillingsUpdate:  mu: +0.144306095  nElectrons: 360.000000  magneticMoment: [ Abs: 24.05629  Tot: -0.00000 ]
	SubspaceRotationAdjust: set factor to 0.0316
ElecMinimize: Iter:  21  F: -2213.880936512709013  |grad|_K:  6.606e-05  alpha:  3.658e-02  linmin:  6.740e-06  t[s]:   2241.09
	FillingsUpdate:  mu: +0.131574673  nElectrons: 360.000000  magneticMoment: [ Abs: 24.28309  Tot: +0.00000 ]
	SubspaceRotationAdjust: set factor to 0.0275
ElecMinimize: Iter:  22  F: -2213.913789846993041  |grad|_K:  5.826e-05  alpha:  4.275e-02  linmin: -6.050e-05  t[s]:   2318.80
	FillingsUpdate:  mu: +0.105630915  nElectrons: 360.000000  magneticMoment: [ Abs: 24.58816  Tot: -0.00000 ]
	SubspaceRotationAdjust: set factor to 0.0285
ElecMinimize: Iter:  23  F: -2213.951589091003825  |grad|_K:  5.047e-05  alpha:  5.950e-02  linmin: -2.652e-05  t[s]:   2395.69
	FillingsUpdate:  mu: +0.093451938  nElectrons: 360.000000  magneticMoment: [ Abs: 24.83065  Tot: -0.00000 ]
	SubspaceRotationAdjust: set factor to 0.0364
ElecMinimize: Iter:  24  F: -2213.977284307654372  |grad|_K:  4.600e-05  alpha:  5.586e-02  linmin:  8.243e-05  t[s]:   2468.82
	FillingsUpdate:  mu: +0.080652644  nElectrons: 360.000000  magneticMoment: [ Abs: 24.95263  Tot: +0.00000 ]
	SubspaceRotationAdjust: set factor to 0.0427
ElecMinimize: Iter:  25  F: -2213.990572389323461  |grad|_K:  4.575e-05  alpha:  3.715e-02  linmin:  1.316e-06  t[s]:   2545.54
	FillingsUpdate:  mu: +0.091043775  nElectrons: 360.000000  magneticMoment: [ Abs: 25.02969  Tot: -0.00000 ]
	SubspaceRotationAdjust: set factor to 0.0434
ElecMinimize: Iter:  26  F: -2214.001985710921417  |grad|_K:  4.569e-05  alpha:  3.068e-02  linmin:  3.517e-05  t[s]:   2624.81
	FillingsUpdate:  mu: +0.099995631  nElectrons: 360.000000  magneticMoment: [ Abs: 25.06122  Tot: -0.00000 ]
	SubspaceRotationAdjust: set factor to 0.0413
ElecMinimize: Iter:  27  F: -2214.010000827860495  |grad|_K:  4.443e-05  alpha:  2.157e-02  linmin:  9.788e-06  t[s]:   2699.95
	FillingsUpdate:  mu: +0.100399423  nElectrons: 360.000000  magneticMoment: [ Abs: 25.06438  Tot: +0.00000 ]
	SubspaceRotationAdjust: set factor to 0.039
ElecMinimize: Iter:  28  F: -2214.015792933696957  |grad|_K:  4.201e-05  alpha:  1.632e-02  linmin:  2.899e-05  t[s]:   2775.67
	FillingsUpdate:  mu: +0.099192160  nElectrons: 360.000000  magneticMoment: [ Abs: 25.05200  Tot: -0.00000 ]
	SubspaceRotationAdjust: set factor to 0.0376
ElecMinimize: Iter:  29  F: -2214.019654426385841  |grad|_K:  3.939e-05  alpha:  1.239e-02  linmin:  2.695e-05  t[s]:   2853.90
	FillingsUpdate:  mu: +0.095829671  nElectrons: 360.000000  magneticMoment: [ Abs: 25.03219  Tot: -0.00000 ]
	SubspaceRotationAdjust: set factor to 0.037
ElecMinimize: Iter:  30  F: -2214.022401752011774  |grad|_K:  3.698e-05  alpha:  1.013e-02  linmin:  3.563e-05  t[s]:   2931.80
	FillingsUpdate:  mu: +0.090884819  nElectrons: 360.000000  magneticMoment: [ Abs: 25.00930  Tot: -0.00000 ]
	SubspaceRotationAdjust: set factor to 0.0372
ElecMinimize: Iter:  31  F: -2214.024413602696768  |grad|_K:  3.491e-05  alpha:  8.501e-03  linmin:  3.321e-05  t[s]:   3011.21
	FillingsUpdate:  mu: +0.086733840  nElectrons: 360.000000  magneticMoment: [ Abs: 24.98518  Tot: -0.00000 ]
	SubspaceRotationAdjust: set factor to 0.0377
ElecMinimize: Iter:  32  F: -2214.025968757835926  |grad|_K:  3.313e-05  alpha:  7.385e-03  linmin:  3.215e-05  t[s]:   3086.59
	FillingsUpdate:  mu: +0.083436548  nElectrons: 360.000000  magneticMoment: [ Abs: 24.96071  Tot: +0.00000 ]
	SubspaceRotationAdjust: set factor to 0.0383
ElecMinimize: Iter:  33  F: -2214.027209376965402  |grad|_K:  3.161e-05  alpha:  6.542e-03  linmin:  2.970e-05  t[s]:   3161.16
	FillingsUpdate:  mu: +0.079706787  nElectrons: 360.000000  magneticMoment: [ Abs: 24.93629  Tot: -0.00000 ]
	SubspaceRotationAdjust: set factor to 0.0387
ElecMinimize: Iter:  34  F: -2214.028228998654413  |grad|_K:  3.029e-05  alpha:  5.903e-03  linmin:  2.783e-05  t[s]:   3239.61
	FillingsUpdate:  mu: +0.074914412  nElectrons: 360.000000  magneticMoment: [ Abs: 24.91205  Tot: -0.00000 ]
	SubspaceRotationAdjust: set factor to 0.0388
ElecMinimize: Iter:  35  F: -2214.029087406855069  |grad|_K:  2.914e-05  alpha:  5.408e-03  linmin:  2.632e-05  t[s]:   3316.64
	FillingsUpdate:  mu: +0.070870039  nElectrons: 360.000000  magneticMoment: [ Abs: 24.88802  Tot: +0.00000 ]
	SubspaceRotationAdjust: set factor to 0.0384
ElecMinimize: Iter:  36  F: -2214.029826143928858  |grad|_K:  2.815e-05  alpha:  5.023e-03  linmin:  2.525e-05  t[s]:   3391.14
	FillingsUpdate:  mu: +0.068825170  nElectrons: 360.000000  magneticMoment: [ Abs: 24.86418  Tot: -0.00000 ]
	SubspaceRotationAdjust: set factor to 0.0375
ElecMinimize: Iter:  37  F: -2214.030474768234853  |grad|_K:  2.727e-05  alpha:  4.726e-03  linmin:  2.453e-05  t[s]:   3468.85
	FillingsUpdate:  mu: +0.068496923  nElectrons: 360.000000  magneticMoment: [ Abs: 24.84045  Tot: -0.00000 ]
	SubspaceRotationAdjust: set factor to 0.036
ElecMinimize: Iter:  38  F: -2214.031054854032391  |grad|_K:  2.648e-05  alpha:  4.501e-03  linmin:  2.399e-05  t[s]:   3546.07
	FillingsUpdate:  mu: +0.067834305  nElectrons: 360.000000  magneticMoment: [ Abs: 24.81674  Tot: +0.00000 ]
	SubspaceRotationAdjust: set factor to 0.0341
ElecMinimize: Iter:  39  F: -2214.031582325749241  |grad|_K:  2.577e-05  alpha:  4.338e-03  linmin:  2.348e-05  t[s]:   3621.05
	FillingsUpdate:  mu: +0.067326371  nElectrons: 360.000000  magneticMoment: [ Abs: 24.79302  Tot: +0.00000 ]
	SubspaceRotationAdjust: set factor to 0.0319
ElecMinimize: Iter:  40  F: -2214.032068984774469  |grad|_K:  2.510e-05  alpha:  4.227e-03  linmin:  2.285e-05  t[s]:   3694.68
	FillingsUpdate:  mu: +0.068175667  nElectrons: 360.000000  magneticMoment: [ Abs: 24.76923  Tot: +0.00000 ]
	SubspaceRotationAdjust: set factor to 0.0295
ElecMinimize: Iter:  41  F: -2214.032523574194784  |grad|_K:  2.446e-05  alpha:  4.161e-03  linmin:  2.197e-05  t[s]:   3770.77
	FillingsUpdate:  mu: +0.069094911  nElectrons: 360.000000  magneticMoment: [ Abs: 24.74540  Tot: -0.00000 ]
	SubspaceRotationAdjust: set factor to 0.0272
ElecMinimize: Iter:  42  F: -2214.032952559306977  |grad|_K:  2.384e-05  alpha:  4.133e-03  linmin:  2.072e-05  t[s]:   3846.18
	FillingsUpdate:  mu: +0.069718948  nElectrons: 360.000000  magneticMoment: [ Abs: 24.72165  Tot: -0.00000 ]
	SubspaceRotationAdjust: set factor to 0.025
ElecMinimize: Iter:  43  F: -2214.033360717544383  |grad|_K:  2.324e-05  alpha:  4.137e-03  linmin:  1.909e-05  t[s]:   3922.37
	FillingsUpdate:  mu: +0.070549818  nElectrons: 360.000000  magneticMoment: [ Abs: 24.69806  Tot: -0.00000 ]
	SubspaceRotationAdjust: set factor to 0.0229
ElecMinimize: Iter:  44  F: -2214.033751567591935  |grad|_K:  2.265e-05  alpha:  4.167e-03  linmin:  1.708e-05  t[s]:   4000.15
	FillingsUpdate:  mu: +0.070854944  nElectrons: 360.000000  magneticMoment: [ Abs: 24.67463  Tot: +0.00000 ]
	SubspaceRotationAdjust: set factor to 0.0211
ElecMinimize: Iter:  45  F: -2214.034127695977077  |grad|_K:  2.208e-05  alpha:  4.218e-03  linmin:  1.475e-05  t[s]:   4075.42
	FillingsUpdate:  mu: +0.070596422  nElectrons: 360.000000  magneticMoment: [ Abs: 24.65128  Tot: +0.00000 ]
	SubspaceRotationAdjust: set factor to 0.0194
ElecMinimize: Iter:  46  F: -2214.034490983517117  |grad|_K:  2.153e-05  alpha:  4.283e-03  linmin:  1.217e-05  t[s]:   4154.39
	FillingsUpdate:  mu: +0.070116392  nElectrons: 360.000000  magneticMoment: [ Abs: 24.62806  Tot: -0.00000 ]
	SubspaceRotationAdjust: set factor to 0.0181
ElecMinimize: Iter:  47  F: -2214.034842766606744  |grad|_K:  2.100e-05  alpha:  4.359e-03  linmin:  9.444e-06  t[s]:   4230.87
	FillingsUpdate:  mu: +0.069672777  nElectrons: 360.000000  magneticMoment: [ Abs: 24.60503  Tot: -0.00000 ]
	SubspaceRotationAdjust: set factor to 0.0169
ElecMinimize: Iter:  48  F: -2214.035183949203656  |grad|_K:  2.048e-05  alpha:  4.441e-03  linmin:  6.652e-06  t[s]:   4302.43
	FillingsUpdate:  mu: +0.069191882  nElectrons: 360.000000  magneticMoment: [ Abs: 24.58225  Tot: -0.00000 ]
	SubspaceRotationAdjust: set factor to 0.0159
ElecMinimize: Iter:  49  F: -2214.035515093939466  |grad|_K:  1.999e-05  alpha:  4.524e-03  linmin:  3.869e-06  t[s]:   4380.75
	FillingsUpdate:  mu: +0.068658590  nElectrons: 360.000000  magneticMoment: [ Abs: 24.55974  Tot: +0.00000 ]
	SubspaceRotationAdjust: set factor to 0.015
	SubspaceRotationAdjust: resetting CG because factor has changed by 0.130743
ElecMinimize: 	State modified externally: resetting search direction.
ElecMinimize: Iter:  50  F: -2214.035836491298596  |grad|_K:  1.924e-05  alpha:  4.607e-03
ElecMinimize: 	Predicted alpha/alphaT>3.000000, increasing alphaT to 1.381966e-02.
ElecMinimize: 	Predicted alpha/alphaT>3.000000, increasing alphaT to 4.145897e-02.
ElecMinimize: 	Predicted alpha/alphaT>3.000000, increasing alphaT to 1.243769e-01.
	FillingsUpdate:  mu: +0.079337121  nElectrons: 360.000000  magneticMoment: [ Abs: 24.54662  Tot: +0.00000 ]
	SubspaceRotationAdjust: set factor to 0.0181
ElecMinimize: Iter:  51  F: -2214.081008317021315  |grad|_K:  2.274e-05  alpha:  6.877e-01  linmin: -3.177e-03  t[s]:   4612.38
	FillingsUpdate:  mu: +0.089904589  nElectrons: 360.000000  magneticMoment: [ Abs: 24.48050  Tot: -0.00000 ]
	SubspaceRotationAdjust: set factor to 0.0217
ElecMinimize: Iter:  52  F: -2214.140449529472789  |grad|_K:  3.024e-05  alpha:  6.416e-01  linmin: -5.567e-04  t[s]:   4689.55
	FillingsUpdate:  mu: +0.073150584  nElectrons: 360.000000  magneticMoment: [ Abs: 24.32558  Tot: -0.00000 ]
	SubspaceRotationAdjust: set factor to 0.0257
ElecMinimize: Iter:  53  F: -2214.211793228885199  |grad|_K:  2.699e-05  alpha:  4.445e-01  linmin: -6.009e-04  t[s]:   4768.14
	FillingsUpdate:  mu: +0.085350034  nElectrons: 360.000000  magneticMoment: [ Abs: 24.13059  Tot: +0.00000 ]
	SubspaceRotationAdjust: set factor to 0.0291
ElecMinimize: Iter:  54  F: -2214.270932664013799  |grad|_K:  2.485e-05  alpha:  4.587e-01  linmin: -1.050e-03  t[s]:   4845.63
	FillingsUpdate:  mu: +0.092198321  nElectrons: 360.000000  magneticMoment: [ Abs: 24.02917  Tot: +0.00000 ]
	SubspaceRotationAdjust: set factor to 0.0327
ElecMinimize: Iter:  55  F: -2214.320882854465253  |grad|_K:  2.254e-05  alpha:  4.516e-01  linmin: -1.308e-03  t[s]:   4922.81
	FillingsUpdate:  mu: +0.094143149  nElectrons: 360.000000  magneticMoment: [ Abs: 24.07809  Tot: +0.00000 ]
	SubspaceRotationAdjust: set factor to 0.0376
ElecMinimize: Iter:  56  F: -2214.367841149843116  |grad|_K:  2.353e-05  alpha:  5.097e-01  linmin: -9.403e-04  t[s]:   4998.93
	FillingsUpdate:  mu: +0.094244358  nElectrons: 360.000000  magneticMoment: [ Abs: 24.24113  Tot: +0.00000 ]
	SubspaceRotationAdjust: set factor to 0.0436
ElecMinimize: Iter:  57  F: -2214.413159386416282  |grad|_K:  2.255e-05  alpha:  4.553e-01  linmin: -6.134e-04  t[s]:   5077.12
	FillingsUpdate:  mu: +0.093294496  nElectrons: 360.000000  magneticMoment: [ Abs: 24.50391  Tot: -0.00000 ]
	SubspaceRotationAdjust: set factor to 0.0508
ElecMinimize: Iter:  58  F: -2214.452738977032823  |grad|_K:  2.059e-05  alpha:  4.357e-01  linmin: -3.762e-04  t[s]:   5154.81
	FillingsUpdate:  mu: +0.097525334  nElectrons: 360.000000  magneticMoment: [ Abs: 24.85169  Tot: -0.00000 ]
	SubspaceRotationAdjust: set factor to 0.0581
ElecMinimize: Iter:  59  F: -2214.485568130042793  |grad|_K:  1.968e-05  alpha:  4.367e-01  linmin: -3.181e-04  t[s]:   5232.46
	FillingsUpdate:  mu: +0.102752395  nElectrons: 360.000000  magneticMoment: [ Abs: 25.26021  Tot: +0.00000 ]
	SubspaceRotationAdjust: set factor to 0.0646
ElecMinimize: Iter:  60  F: -2214.514985238523423  |grad|_K:  1.865e-05  alpha:  4.290e-01  linmin: -1.509e-04  t[s]:   5310.59
	FillingsUpdate:  mu: +0.106282160  nElectrons: 360.000000  magneticMoment: [ Abs: 25.60229  Tot: -0.00000 ]
	SubspaceRotationAdjust: set factor to 0.0723
ElecMinimize: Iter:  61  F: -2214.537401638472602  |grad|_K:  1.588e-05  alpha:  3.666e-01  linmin: -1.192e-04  t[s]:   5386.07
	FillingsUpdate:  mu: +0.110199227  nElectrons: 360.000000  magneticMoment: [ Abs: 25.91136  Tot: -0.00000 ]
	SubspaceRotationAdjust: set factor to 0.0807
ElecMinimize: Iter:  62  F: -2214.556260089168518  |grad|_K:  1.470e-05  alpha:  4.246e-01  linmin: -2.194e-04  t[s]:   5460.46
	FillingsUpdate:  mu: +0.107525547  nElectrons: 360.000000  magneticMoment: [ Abs: 26.19438  Tot: -0.00000 ]
	SubspaceRotationAdjust: set factor to 0.0899
ElecMinimize: Iter:  63  F: -2214.572060734589286  |grad|_K:  1.370e-05  alpha:  4.141e-01  linmin: -9.933e-05  t[s]:   5536.02
	FillingsUpdate:  mu: +0.103094965  nElectrons: 360.000000  magneticMoment: [ Abs: 26.51954  Tot: -0.00000 ]
	SubspaceRotationAdjust: set factor to 0.102
ElecMinimize: Iter:  64  F: -2214.585837610439739  |grad|_K:  1.252e-05  alpha:  4.177e-01  linmin: -5.109e-05  t[s]:   5613.43
	FillingsUpdate:  mu: +0.100004560  nElectrons: 360.000000  magneticMoment: [ Abs: 26.89935  Tot: +0.00000 ]
	SubspaceRotationAdjust: set factor to 0.112
	SubspaceRotationAdjust: resetting CG because factor has changed by 7.47543
ElecMinimize: 	State modified externally: resetting search direction.
ElecMinimize: Iter:  65  F: -2214.596750806513228  |grad|_K:  1.145e-05  alpha:  3.954e-01
	FillingsUpdate:  mu: +0.102682594  nElectrons: 360.000000  magneticMoment: [ Abs: 26.94464  Tot: +0.00000 ]
	SubspaceRotationAdjust: set factor to 0.131
ElecMinimize: Iter:  66  F: -2214.602364202989520  |grad|_K:  9.129e-06  alpha:  2.452e-01  linmin:  5.120e-05  t[s]:   5778.67
	FillingsUpdate:  mu: +0.106271774  nElectrons: 360.000000  magneticMoment: [ Abs: 27.08576  Tot: +0.00000 ]
	SubspaceRotationAdjust: set factor to 0.104
ElecMinimize: Iter:  67  F: -2214.607758861379807  |grad|_K:  1.111e-05  alpha:  3.711e-01  linmin:  2.527e-04  t[s]:   5856.93
	FillingsUpdate:  mu: +0.102589451  nElectrons: 360.000000  magneticMoment: [ Abs: 27.34341  Tot: -0.00000 ]
	SubspaceRotationAdjust: set factor to 0.0915
ElecMinimize: Iter:  68  F: -2214.613807520785485  |grad|_K:  1.055e-05  alpha:  2.871e-01  linmin: -2.652e-04  t[s]:   5932.75
	FillingsUpdate:  mu: +0.098895962  nElectrons: 360.000000  magneticMoment: [ Abs: 27.77115  Tot: +0.00000 ]
	SubspaceRotationAdjust: set factor to 0.0918
ElecMinimize: Iter:  69  F: -2214.621045321405290  |grad|_K:  9.921e-06  alpha:  3.735e-01  linmin:  9.585e-04  t[s]:   6011.35
	FillingsUpdate:  mu: +0.102596733  nElectrons: 360.000000  magneticMoment: [ Abs: 28.24637  Tot: -0.00000 ]
	SubspaceRotationAdjust: set factor to 0.11
ElecMinimize: Iter:  70  F: -2214.627466687973993  |grad|_K:  1.065e-05  alpha:  3.951e-01  linmin:  5.411e-04  t[s]:   6086.25
	FillingsUpdate:  mu: +0.097632897  nElectrons: 360.000000  magneticMoment: [ Abs: 28.73544  Tot: -0.00000 ]
	SubspaceRotationAdjust: set factor to 0.106
ElecMinimize: Iter:  71  F: -2214.634053856462288  |grad|_K:  9.792e-06  alpha:  3.476e-01  linmin: -5.176e-04  t[s]:   6163.24
	FillingsUpdate:  mu: +0.103670367  nElectrons: 360.000000  magneticMoment: [ Abs: 29.13452  Tot: +0.00000 ]
	SubspaceRotationAdjust: set factor to 0.1
ElecMinimize: Iter:  72  F: -2214.638931360193510  |grad|_K:  9.636e-06  alpha:  2.700e-01  linmin:  5.393e-04  t[s]:   6241.81
	FillingsUpdate:  mu: +0.102010729  nElectrons: 360.000000  magneticMoment: [ Abs: 29.52251  Tot: +0.00000 ]
	SubspaceRotationAdjust: set factor to 0.134
ElecMinimize: Iter:  73  F: -2214.643879433272105  |grad|_K:  8.915e-06  alpha:  3.105e-01  linmin: -8.713e-04  t[s]:   6318.44
	FillingsUpdate:  mu: +0.096954721  nElectrons: 360.000000  magneticMoment: [ Abs: 29.79937  Tot: -0.00000 ]
	SubspaceRotationAdjust: set factor to 0.125
ElecMinimize: Iter:  74  F: -2214.647976029633810  |grad|_K:  9.707e-06  alpha:  2.766e-01  linmin: -3.067e-05  t[s]:   6396.39
	FillingsUpdate:  mu: +0.103728826  nElectrons: 360.000000  magneticMoment: [ Abs: 30.26889  Tot: +0.00000 ]
	SubspaceRotationAdjust: set factor to 0.13
ElecMinimize: Iter:  75  F: -2214.652312215182064  |grad|_K:  8.631e-06  alpha:  2.629e-01  linmin: -1.324e-04  t[s]:   6472.03
	FillingsUpdate:  mu: +0.102327835  nElectrons: 360.000000  magneticMoment: [ Abs: 30.69924  Tot: -0.00000 ]
	SubspaceRotationAdjust: set factor to 0.157
ElecMinimize: Iter:  76  F: -2214.656683663493823  |grad|_K:  8.348e-06  alpha:  3.325e-01  linmin:  9.115e-05  t[s]:   6548.72
	FillingsUpdate:  mu: +0.101275226  nElectrons: 360.000000  magneticMoment: [ Abs: 31.02911  Tot: +0.00000 ]
	SubspaceRotationAdjust: set factor to 0.157
ElecMinimize: Iter:  77  F: -2214.660221460000685  |grad|_K:  9.654e-06  alpha:  2.880e-01  linmin:  3.375e-04  t[s]:   6629.23
	FillingsUpdate:  mu: +0.100527339  nElectrons: 360.000000  magneticMoment: [ Abs: 31.44479  Tot: +0.00000 ]
	SubspaceRotationAdjust: set factor to 0.198
ElecMinimize: Iter:  78  F: -2214.663517521726135  |grad|_K:  8.849e-06  alpha:  2.099e-01  linmin: -7.021e-05  t[s]:   6700.91
	FillingsUpdate:  mu: +0.101640488  nElectrons: 360.000000  magneticMoment: [ Abs: 31.73138  Tot: -0.00000 ]
	SubspaceRotationAdjust: set factor to 0.235
ElecMinimize: Iter:  79  F: -2214.666438292638759  |grad|_K:  7.782e-06  alpha:  2.117e-01  linmin: -4.727e-04  t[s]:   6776.10
	FillingsUpdate:  mu: +0.097522908  nElectrons: 360.000000  magneticMoment: [ Abs: 31.88818  Tot: -0.00000 ]
	SubspaceRotationAdjust: set factor to 0.234
ElecMinimize: Iter:  80  F: -2214.668928416168910  |grad|_K:  9.131e-06  alpha:  2.270e-01  linmin:  4.439e-04  t[s]:   6854.99
	FillingsUpdate:  mu: +0.103961712  nElectrons: 360.000000  magneticMoment: [ Abs: 32.06112  Tot: -0.00000 ]
	SubspaceRotationAdjust: set factor to 0.316
ElecMinimize: Iter:  81  F: -2214.670843272480852  |grad|_K:  8.315e-06  alpha:  1.239e-01  linmin: -6.101e-04  t[s]:   6932.59
	FillingsUpdate:  mu: +0.107297077  nElectrons: 360.000000  magneticMoment: [ Abs: 32.23082  Tot: -0.00000 ]
	SubspaceRotationAdjust: set factor to 0.259
ElecMinimize: Iter:  82  F: -2214.672777498766663  |grad|_K:  9.912e-06  alpha:  1.480e-01  linmin: -2.783e-04  t[s]:   7010.65
	FillingsUpdate:  mu: +0.101888221  nElectrons: 360.000000  magneticMoment: [ Abs: 32.30011  Tot: -0.00000 ]
	SubspaceRotationAdjust: set factor to 0.315
ElecMinimize: Iter:  83  F: -2214.674681344141391  |grad|_K:  8.076e-06  alpha:  1.061e-01  linmin:  3.113e-06  t[s]:   7089.87
	FillingsUpdate:  mu: +0.100003947  nElectrons: 360.000000  magneticMoment: [ Abs: 32.37513  Tot: +0.00000 ]
	SubspaceRotationAdjust: set factor to 0.337
ElecMinimize: Iter:  84  F: -2214.676425106349598  |grad|_K:  8.897e-06  alpha:  1.513e-01  linmin: -1.831e-04  t[s]:   7166.40
	FillingsUpdate:  mu: +0.103198992  nElectrons: 360.000000  magneticMoment: [ Abs: 32.52425  Tot: -0.00000 ]
	SubspaceRotationAdjust: set factor to 0.345
ElecMinimize: Iter:  85  F: -2214.677947439053241  |grad|_K:  8.295e-06  alpha:  1.091e-01  linmin: -3.972e-05  t[s]:   7242.23
	FillingsUpdate:  mu: +0.107045535  nElectrons: 360.000000  magneticMoment: [ Abs: 32.68604  Tot: +0.00000 ]
	SubspaceRotationAdjust: set factor to 0.313
ElecMinimize: Iter:  86  F: -2214.679563996677643  |grad|_K:  8.170e-06  alpha:  1.374e-01  linmin:  6.269e-04  t[s]:   7321.21
	FillingsUpdate:  mu: +0.106801615  nElectrons: 360.000000  magneticMoment: [ Abs: 32.80349  Tot: +0.00000 ]
	SubspaceRotationAdjust: set factor to 0.301
ElecMinimize: Iter:  87  F: -2214.681141527163618  |grad|_K:  8.596e-06  alpha:  1.501e-01  linmin:  1.118e-04  t[s]:   7396.28
	FillingsUpdate:  mu: +0.103012471  nElectrons: 360.000000  magneticMoment: [ Abs: 32.85513  Tot: -0.00000 ]
	SubspaceRotationAdjust: set factor to 0.294
ElecMinimize: Iter:  88  F: -2214.682196191999992  |grad|_K:  6.377e-06  alpha:  8.649e-02  linmin:  8.294e-05  t[s]:   7473.85
	FillingsUpdate:  mu: +0.101009657  nElectrons: 360.000000  magneticMoment: [ Abs: 32.90072  Tot: +0.00000 ]
	SubspaceRotationAdjust: set factor to 0.334
ElecMinimize: Iter:  89  F: -2214.683469324106682  |grad|_K:  6.854e-06  alpha:  1.807e-01  linmin: -3.277e-05  t[s]:   7552.88
	FillingsUpdate:  mu: +0.100277877  nElectrons: 360.000000  magneticMoment: [ Abs: 32.97312  Tot: +0.00000 ]
	SubspaceRotationAdjust: set factor to 0.371
ElecMinimize: Iter:  90  F: -2214.684547744448992  |grad|_K:  6.383e-06  alpha:  1.275e-01  linmin:  4.012e-05  t[s]:   7626.88
	FillingsUpdate:  mu: +0.106167143  nElectrons: 360.000000  magneticMoment: [ Abs: 33.04975  Tot: +0.00000 ]
	SubspaceRotationAdjust: set factor to 0.366
ElecMinimize: Iter:  91  F: -2214.685299524213860  |grad|_K:  6.854e-06  alpha:  1.063e-01  linmin: -3.851e-05  t[s]:   7704.81
	FillingsUpdate:  mu: +0.105136803  nElectrons: 360.000000  magneticMoment: [ Abs: 33.05679  Tot: +0.00000 ]
	SubspaceRotationAdjust: set factor to 0.504
ElecMinimize: Iter:  92  F: -2214.686363599789274  |grad|_K:  5.434e-06  alpha:  1.291e-01  linmin:  5.154e-05  t[s]:   7783.48
	FillingsUpdate:  mu: +0.102796926  nElectrons: 360.000000  magneticMoment: [ Abs: 33.03373  Tot: -0.00000 ]
	SubspaceRotationAdjust: set factor to 0.421
ElecMinimize: Iter:  93  F: -2214.687038586952440  |grad|_K:  6.564e-06  alpha:  1.315e-01  linmin: -5.053e-05  t[s]:   7859.46
	FillingsUpdate:  mu: +0.105102557  nElectrons: 360.000000  magneticMoment: [ Abs: 33.07212  Tot: +0.00000 ]
	SubspaceRotationAdjust: set factor to 0.39
ElecMinimize: Iter:  94  F: -2214.687614185525490  |grad|_K:  5.659e-06  alpha:  7.803e-02  linmin:  4.415e-05  t[s]:   7934.29
	FillingsUpdate:  mu: +0.106449864  nElectrons: 360.000000  magneticMoment: [ Abs: 33.08961  Tot: -0.00000 ]
	SubspaceRotationAdjust: set factor to 0.328
ElecMinimize: Iter:  95  F: -2214.688099095756570  |grad|_K:  4.735e-06  alpha:  8.775e-02  linmin:  2.611e-04  t[s]:   8011.65
	FillingsUpdate:  mu: +0.107465200  nElectrons: 360.000000  magneticMoment: [ Abs: 33.10685  Tot: +0.00000 ]
	SubspaceRotationAdjust: set factor to 0.462
ElecMinimize: Iter:  96  F: -2214.688693244953811  |grad|_K:  4.365e-06  alpha:  1.570e-01  linmin: -3.846e-05  t[s]:   8094.49
	FillingsUpdate:  mu: +0.105123037  nElectrons: 360.000000  magneticMoment: [ Abs: 33.10567  Tot: +0.00000 ]
	SubspaceRotationAdjust: set factor to 0.457
ElecMinimize: Iter:  97  F: -2214.689123904233384  |grad|_K:  4.228e-06  alpha:  1.297e-01  linmin: -7.937e-05  t[s]:   8170.91
	FillingsUpdate:  mu: +0.103014593  nElectrons: 360.000000  magneticMoment: [ Abs: 33.09832  Tot: -0.00000 ]
	SubspaceRotationAdjust: set factor to 0.354
ElecMinimize: Iter:  98  F: -2214.689420719650116  |grad|_K:  4.965e-06  alpha:  9.177e-02  linmin:  2.359e-05  t[s]:   8246.92
	FillingsUpdate:  mu: +0.104842640  nElectrons: 360.000000  magneticMoment: [ Abs: 33.13699  Tot: -0.00000 ]
	SubspaceRotationAdjust: set factor to 0.419
ElecMinimize: Iter:  99  F: -2214.689759600681555  |grad|_K:  3.411e-06  alpha:  7.924e-02  linmin: -5.278e-05  t[s]:   8325.41
	FillingsUpdate:  mu: +0.106423500  nElectrons: 360.000000  magneticMoment: [ Abs: 33.17945  Tot: +0.00000 ]
	SubspaceRotationAdjust: set factor to 0.412
ElecMinimize: Iter: 100  F: -2214.690123547518851  |grad|_K:  4.062e-06  alpha:  1.761e-01  linmin: -6.703e-05  t[s]:   8404.49
	FillingsUpdate:  mu: +0.105441705  nElectrons: 360.000000  magneticMoment: [ Abs: 33.17449  Tot: +0.00000 ]
	SubspaceRotationAdjust: set factor to 0.37
ElecMinimize: Iter: 101  F: -2214.690325314161328  |grad|_K:  3.723e-06  alpha:  6.655e-02  linmin: -1.809e-04  t[s]:   8480.80
	FillingsUpdate:  mu: +0.104709820  nElectrons: 360.000000  magneticMoment: [ Abs: 33.18515  Tot: +0.00000 ]
	SubspaceRotationAdjust: set factor to 0.377
ElecMinimize: Iter: 102  F: -2214.690553031977743  |grad|_K:  3.074e-06  alpha:  9.090e-02  linmin: -1.201e-04  t[s]:   8556.63
	FillingsUpdate:  mu: +0.105932880  nElectrons: 360.000000  magneticMoment: [ Abs: 33.22191  Tot: -0.00000 ]
	SubspaceRotationAdjust: set factor to 0.336
ElecMinimize: Iter: 103  F: -2214.690808943521006  |grad|_K:  3.555e-06  alpha:  1.517e-01  linmin: -7.517e-05  t[s]:   8634.12
	FillingsUpdate:  mu: +0.106131803  nElectrons: 360.000000  magneticMoment: [ Abs: 33.22813  Tot: +0.00000 ]
	SubspaceRotationAdjust: set factor to 0.279
ElecMinimize: Iter: 104  F: -2214.690943961252742  |grad|_K:  2.844e-06  alpha:  5.794e-02  linmin: -2.318e-04  t[s]:   8714.36
	FillingsUpdate:  mu: +0.106750673  nElectrons: 360.000000  magneticMoment: [ Abs: 33.24935  Tot: -0.00000 ]
	SubspaceRotationAdjust: set factor to 0.254
ElecMinimize: Iter: 105  F: -2214.691173369843909  |grad|_K:  3.218e-06  alpha:  1.587e-01  linmin:  1.354e-04  t[s]:   8795.99
	FillingsUpdate:  mu: +0.106769300  nElectrons: 360.000000  magneticMoment: [ Abs: 33.27107  Tot: +0.00000 ]
	SubspaceRotationAdjust: set factor to 0.245
ElecMinimize: Iter: 106  F: -2214.691307430896813  |grad|_K:  2.742e-06  alpha:  7.701e-02  linmin:  8.933e-05  t[s]:   8874.11
	FillingsUpdate:  mu: +0.106340183  nElectrons: 360.000000  magneticMoment: [ Abs: 33.28828  Tot: -0.00000 ]
	SubspaceRotationAdjust: set factor to 0.254
ElecMinimize: Iter: 107  F: -2214.691513454541564  |grad|_K:  3.095e-06  alpha:  1.588e-01  linmin:  3.001e-05  t[s]:   8952.81
	FillingsUpdate:  mu: +0.104806451  nElectrons: 360.000000  magneticMoment: [ Abs: 33.30069  Tot: +0.00000 ]
	SubspaceRotationAdjust: set factor to 0.272
ElecMinimize: Iter: 108  F: -2214.691683153409031  |grad|_K:  3.161e-06  alpha:  1.016e-01  linmin:  6.716e-06  t[s]:   9029.76
	FillingsUpdate:  mu: +0.106468202  nElectrons: 360.000000  magneticMoment: [ Abs: 33.34587  Tot: -0.00000 ]
	SubspaceRotationAdjust: set factor to 0.335
ElecMinimize: Iter: 109  F: -2214.691896417885346  |grad|_K:  3.197e-06  alpha:  1.230e-01  linmin:  1.527e-04  t[s]:   9106.51
	FillingsUpdate:  mu: +0.108043824  nElectrons: 360.000000  magneticMoment: [ Abs: 33.38537  Tot: -0.00000 ]
	SubspaceRotationAdjust: set factor to 0.35
ElecMinimize: Iter: 110  F: -2214.692054077851026  |grad|_K:  3.403e-06  alpha:  9.167e-02  linmin: -3.313e-05  t[s]:   9183.21
	FillingsUpdate:  mu: +0.106562044  nElectrons: 360.000000  magneticMoment: [ Abs: 33.40306  Tot: +0.00000 ]
	SubspaceRotationAdjust: set factor to 0.477
ElecMinimize: Iter: 111  F: -2214.692272128825152  |grad|_K:  2.993e-06  alpha:  1.068e-01  linmin: -8.442e-05  t[s]:   9258.22
	FillingsUpdate:  mu: +0.105339504  nElectrons: 360.000000  magneticMoment: [ Abs: 33.40599  Tot: +0.00000 ]
	SubspaceRotationAdjust: set factor to 0.408
ElecMinimize: Iter: 112  F: -2214.692424136516820  |grad|_K:  3.802e-06  alpha:  9.559e-02  linmin:  3.406e-06  t[s]:   9335.42
	FillingsUpdate:  mu: +0.104733413  nElectrons: 360.000000  magneticMoment: [ Abs: 33.44823  Tot: -0.00000 ]
	SubspaceRotationAdjust: set factor to 0.6
ElecMinimize: Iter: 113  F: -2214.692659137160717  |grad|_K:  3.190e-06  alpha:  9.307e-02  linmin: -2.863e-05  t[s]:   9416.41
	FillingsUpdate:  mu: +0.105649536  nElectrons: 360.000000  magneticMoment: [ Abs: 33.49179  Tot: +0.00000 ]
	SubspaceRotationAdjust: set factor to 0.577
ElecMinimize: Iter: 114  F: -2214.692832443361567  |grad|_K:  3.708e-06  alpha:  9.667e-02  linmin: -8.502e-05  t[s]:   9494.62
	FillingsUpdate:  mu: +0.104604007  nElectrons: 360.000000  magneticMoment: [ Abs: 33.49974  Tot: -0.00000 ]
	SubspaceRotationAdjust: set factor to 0.569
ElecMinimize: Iter: 115  F: -2214.692982646988185  |grad|_K:  3.597e-06  alpha:  5.183e-02  linmin: -5.277e-04  t[s]:   9573.12
	FillingsUpdate:  mu: +0.102824733  nElectrons: 360.000000  magneticMoment: [ Abs: 33.49859  Tot: -0.00000 ]
	SubspaceRotationAdjust: set factor to 0.425
ElecMinimize: Iter: 116  F: -2214.693134379692765  |grad|_K:  4.407e-06  alpha:  6.216e-02  linmin:  5.987e-04  t[s]:   9653.26
	FillingsUpdate:  mu: +0.102338220  nElectrons: 360.000000  magneticMoment: [ Abs: 33.50575  Tot: +0.00000 ]
	SubspaceRotationAdjust: set factor to 0.369
ElecMinimize: Iter: 117  F: -2214.693228388881835  |grad|_K:  4.060e-06  alpha:  3.108e-02  linmin: -5.025e-05  t[s]:   9731.18
	FillingsUpdate:  mu: +0.102868206  nElectrons: 360.000000  magneticMoment: [ Abs: 33.52500  Tot: +0.00000 ]
	SubspaceRotationAdjust: set factor to 0.336
ElecMinimize: Iter: 118  F: -2214.693360837913588  |grad|_K:  3.993e-06  alpha:  4.463e-02  linmin: -2.326e-04  t[s]:   9809.59
	FillingsUpdate:  mu: +0.104129162  nElectrons: 360.000000  magneticMoment: [ Abs: 33.55219  Tot: -0.00000 ]
	SubspaceRotationAdjust: set factor to 0.355
ElecMinimize: Iter: 119  F: -2214.693548291447769  |grad|_K:  3.730e-06  alpha:  6.317e-02  linmin: -1.737e-04  t[s]:   9887.33
	FillingsUpdate:  mu: +0.105536160  nElectrons: 360.000000  magneticMoment: [ Abs: 33.56672  Tot: +0.00000 ]
	SubspaceRotationAdjust: set factor to 0.438
ElecMinimize: Iter: 120  F: -2214.693695715799549  |grad|_K:  3.377e-06  alpha:  5.838e-02  linmin: -1.021e-05  t[s]:   9965.41
	FillingsUpdate:  mu: +0.106281480  nElectrons: 360.000000  magneticMoment: [ Abs: 33.58017  Tot: -0.00000 ]
	SubspaceRotationAdjust: set factor to 0.445
ElecMinimize: Iter: 121  F: -2214.693844250070015  |grad|_K:  3.720e-06  alpha:  7.415e-02  linmin: -3.008e-05  t[s]:  10040.10
	FillingsUpdate:  mu: +0.105455639  nElectrons: 360.000000  magneticMoment: [ Abs: 33.59900  Tot: -0.00000 ]
	SubspaceRotationAdjust: set factor to 0.552
ElecMinimize: Iter: 122  F: -2214.693969935034147  |grad|_K:  3.095e-06  alpha:  5.229e-02  linmin: -1.368e-05  t[s]:  10117.31
	FillingsUpdate:  mu: +0.104962965  nElectrons: 360.000000  magneticMoment: [ Abs: 33.62401  Tot: -0.00000 ]
	SubspaceRotationAdjust: set factor to 0.497
ElecMinimize: Iter: 123  F: -2214.694097210272503  |grad|_K:  3.690e-06  alpha:  7.521e-02  linmin: -9.638e-05  t[s]:  10196.92
	FillingsUpdate:  mu: +0.104482044  nElectrons: 360.000000  magneticMoment: [ Abs: 33.64211  Tot: -0.00000 ]
	SubspaceRotationAdjust: set factor to 0.662
ElecMinimize: Iter: 124  F: -2214.694227386723469  |grad|_K:  2.965e-06  alpha:  5.332e-02  linmin:  5.135e-06  t[s]:  10274.20
	FillingsUpdate:  mu: +0.104566450  nElectrons: 360.000000  magneticMoment: [ Abs: 33.65782  Tot: -0.00000 ]
	SubspaceRotationAdjust: set factor to 0.579
ElecMinimize: Iter: 125  F: -2214.694341170009920  |grad|_K:  3.773e-06  alpha:  7.464e-02  linmin:  9.822e-05  t[s]:  10350.69
	FillingsUpdate:  mu: +0.104899650  nElectrons: 360.000000  magneticMoment: [ Abs: 33.67682  Tot: -0.00000 ]
	SubspaceRotationAdjust: set factor to 0.667
ElecMinimize: Iter: 126  F: -2214.694457732071442  |grad|_K:  3.411e-06  alpha:  4.755e-02  linmin: -5.638e-06  t[s]:  10429.20
	FillingsUpdate:  mu: +0.104157767  nElectrons: 360.000000  magneticMoment: [ Abs: 33.68807  Tot: -0.00000 ]
	SubspaceRotationAdjust: set factor to 0.553
ElecMinimize: Iter: 127  F: -2214.694590842011621  |grad|_K:  4.182e-06  alpha:  6.544e-02  linmin:  2.381e-05  t[s]:  10507.54
	FillingsUpdate:  mu: +0.103363442  nElectrons: 360.000000  magneticMoment: [ Abs: 33.69080  Tot: -0.00000 ]
	SubspaceRotationAdjust: set factor to 0.602
ElecMinimize: Iter: 128  F: -2214.694727150874769  |grad|_K:  3.854e-06  alpha:  4.432e-02  linmin: -7.630e-07  t[s]:  10581.26
	FillingsUpdate:  mu: +0.103724062  nElectrons: 360.000000  magneticMoment: [ Abs: 33.70628  Tot: +0.00000 ]
	SubspaceRotationAdjust: set factor to 0.538
ElecMinimize: Iter: 129  F: -2214.694884105414985  |grad|_K:  4.542e-06  alpha:  6.006e-02  linmin: -5.103e-05  t[s]:  10656.87
	FillingsUpdate:  mu: +0.104267412  nElectrons: 360.000000  magneticMoment: [ Abs: 33.74060  Tot: +0.00000 ]
	SubspaceRotationAdjust: set factor to 0.758
ElecMinimize: Iter: 130  F: -2214.695062653379864  |grad|_K:  3.709e-06  alpha:  4.938e-02  linmin: -5.900e-05  t[s]:  10736.95
	FillingsUpdate:  mu: +0.104783672  nElectrons: 360.000000  magneticMoment: [ Abs: 33.77069  Tot: -0.00000 ]
	SubspaceRotationAdjust: set factor to 0.722
ElecMinimize: Iter: 131  F: -2214.695234151746263  |grad|_K:  4.577e-06  alpha:  6.961e-02  linmin: -3.681e-05  t[s]:  10813.10
	FillingsUpdate:  mu: +0.104206559  nElectrons: 360.000000  magneticMoment: [ Abs: 33.77000  Tot: -0.00000 ]
	SubspaceRotationAdjust: set factor to 0.907
	SubspaceRotationAdjust: resetting CG because factor has changed by 8.0639
ElecMinimize: 	State modified externally: resetting search direction.
ElecMinimize: Iter: 132  F: -2214.695406227544026  |grad|_K:  4.122e-06  alpha:  4.417e-02
ElecMinimize: 	Predicted alpha/alphaT>3.000000, increasing alphaT to 1.325204e-01.
	FillingsUpdate:  mu: +0.104547046  nElectrons: 360.000000  magneticMoment: [ Abs: 33.79607  Tot: +0.00000 ]
	SubspaceRotationAdjust: set factor to 0.589
ElecMinimize: Iter: 133  F: -2214.696051486398119  |grad|_K:  4.600e-06  alpha:  2.162e-01  linmin: -2.952e-04  t[s]:  11013.50
	FillingsUpdate:  mu: +0.106349194  nElectrons: 360.000000  magneticMoment: [ Abs: 33.84289  Tot: -0.00000 ]
	SubspaceRotationAdjust: set factor to 0.36
ElecMinimize: Iter: 134  F: -2214.696535302996381  |grad|_K:  5.817e-06  alpha:  1.281e-01  linmin: -2.526e-05  t[s]:  11087.00
	FillingsUpdate:  mu: +0.105355519  nElectrons: 360.000000  magneticMoment: [ Abs: 33.82214  Tot: -0.00000 ]
	SubspaceRotationAdjust: set factor to 0.282
ElecMinimize: Iter: 135  F: -2214.696894492178671  |grad|_K:  3.745e-06  alpha:  5.884e-02  linmin: -1.751e-04  t[s]:  11164.99
ElecMinimize: 	Predicted alpha/alphaT>3.000000, increasing alphaT to 1.765092e-01.
	FillingsUpdate:  mu: +0.103163016  nElectrons: 360.000000  magneticMoment: [ Abs: 33.79526  Tot: -0.00000 ]
	SubspaceRotationAdjust: set factor to 0.213
ElecMinimize: Iter: 136  F: -2214.697377864529699  |grad|_K:  3.550e-06  alpha:  1.937e-01  linmin: -3.297e-06  t[s]:  11273.48
	FillingsUpdate:  mu: +0.104970324  nElectrons: 360.000000  magneticMoment: [ Abs: 33.82785  Tot: -0.00000 ]
	SubspaceRotationAdjust: set factor to 0.19
ElecMinimize: Iter: 137  F: -2214.697646937118861  |grad|_K:  3.064e-06  alpha:  1.233e-01  linmin:  1.849e-05  t[s]:  11353.30
	FillingsUpdate:  mu: +0.106771346  nElectrons: 360.000000  magneticMoment: [ Abs: 33.85652  Tot: -0.00000 ]
	SubspaceRotationAdjust: set factor to 0.203
ElecMinimize: Iter: 138  F: -2214.697951332692355  |grad|_K:  2.293e-06  alpha:  1.865e-01  linmin:  1.436e-04  t[s]:  11430.71
	FillingsUpdate:  mu: +0.106002511  nElectrons: 360.000000  magneticMoment: [ Abs: 33.85660  Tot: +0.00000 ]
	SubspaceRotationAdjust: set factor to 0.155
ElecMinimize: Iter: 139  F: -2214.698161136433100  |grad|_K:  2.662e-06  alpha:  2.311e-01  linmin:  1.137e-04  t[s]:  11509.10
	FillingsUpdate:  mu: +0.104424069  nElectrons: 360.000000  magneticMoment: [ Abs: 33.87480  Tot: +0.00000 ]
	SubspaceRotationAdjust: set factor to 0.154
ElecMinimize: Iter: 140  F: -2214.698335505401701  |grad|_K:  1.799e-06  alpha:  1.416e-01  linmin: -1.167e-06  t[s]:  11586.88
	FillingsUpdate:  mu: +0.104809803  nElectrons: 360.000000  magneticMoment: [ Abs: 33.89677  Tot: +0.00000 ]
	SubspaceRotationAdjust: set factor to 0.138
ElecMinimize: Iter: 141  F: -2214.698480802526774  |grad|_K:  1.957e-06  alpha:  2.566e-01  linmin: -1.694e-05  t[s]:  11665.15
	FillingsUpdate:  mu: +0.105037756  nElectrons: 360.000000  magneticMoment: [ Abs: 33.90353  Tot: -0.00000 ]
	SubspaceRotationAdjust: set factor to 0.131
ElecMinimize: Iter: 142  F: -2214.698597784792582  |grad|_K:  1.607e-06  alpha:  1.739e-01  linmin:  9.947e-07  t[s]:  11742.15
	FillingsUpdate:  mu: +0.105974782  nElectrons: 360.000000  magneticMoment: [ Abs: 33.91910  Tot: -0.00000 ]
	SubspaceRotationAdjust: set factor to 0.146
ElecMinimize: Iter: 143  F: -2214.698720762042285  |grad|_K:  1.755e-06  alpha:  2.717e-01  linmin: -6.462e-05  t[s]:  11820.05
	FillingsUpdate:  mu: +0.106022038  nElectrons: 360.000000  magneticMoment: [ Abs: 33.94403  Tot: -0.00000 ]
	SubspaceRotationAdjust: set factor to 0.137
ElecMinimize: Iter: 144  F: -2214.698834366370193  |grad|_K:  1.681e-06  alpha:  2.101e-01  linmin: -9.230e-07  t[s]:  11897.69
	FillingsUpdate:  mu: +0.105412720  nElectrons: 360.000000  magneticMoment: [ Abs: 33.96023  Tot: -0.00000 ]
	SubspaceRotationAdjust: set factor to 0.164
ElecMinimize: Iter: 145  F: -2214.698977664245831  |grad|_K:  1.851e-06  alpha:  2.902e-01  linmin:  4.156e-05  t[s]:  11976.48
	FillingsUpdate:  mu: +0.105020652  nElectrons: 360.000000  magneticMoment: [ Abs: 33.96446  Tot: +0.00000 ]
	SubspaceRotationAdjust: set factor to 0.148
ElecMinimize: Iter: 146  F: -2214.699112435059760  |grad|_K:  1.940e-06  alpha:  2.254e-01  linmin:  8.128e-06  t[s]:  12050.62
	FillingsUpdate:  mu: +0.105655196  nElectrons: 360.000000  magneticMoment: [ Abs: 33.99158  Tot: -0.00000 ]
	SubspaceRotationAdjust: set factor to 0.176
ElecMinimize: Iter: 147  F: -2214.699268837816817  |grad|_K:  1.741e-06  alpha:  2.380e-01  linmin:  6.654e-05  t[s]:  12128.04
	FillingsUpdate:  mu: +0.106122802  nElectrons: 360.000000  magneticMoment: [ Abs: 34.01836  Tot: +0.00000 ]
	SubspaceRotationAdjust: set factor to 0.174
ElecMinimize: Iter: 148  F: -2214.699401893321919  |grad|_K:  2.007e-06  alpha:  2.528e-01  linmin:  7.568e-05  t[s]:  12205.36
	FillingsUpdate:  mu: +0.105683929  nElectrons: 360.000000  magneticMoment: [ Abs: 34.02045  Tot: +0.00000 ]
	SubspaceRotationAdjust: set factor to 0.179
ElecMinimize: Iter: 149  F: -2214.699536571440149  |grad|_K:  1.779e-06  alpha:  1.927e-01  linmin: -6.177e-06  t[s]:  12284.06
	FillingsUpdate:  mu: +0.105195990  nElectrons: 360.000000  magneticMoment: [ Abs: 34.02540  Tot: -0.00000 ]
	SubspaceRotationAdjust: set factor to 0.209
ElecMinimize: Iter: 150  F: -2214.699691588529731  |grad|_K:  1.902e-06  alpha:  2.794e-01  linmin: -3.586e-05  t[s]:  12361.05
	FillingsUpdate:  mu: +0.105612480  nElectrons: 360.000000  magneticMoment: [ Abs: 34.04482  Tot: -0.00000 ]
	SubspaceRotationAdjust: set factor to 0.189
ElecMinimize: Iter: 151  F: -2214.699799918865210  |grad|_K:  1.805e-06  alpha:  1.701e-01  linmin: -1.477e-05  t[s]:  12439.23
	FillingsUpdate:  mu: +0.106377698  nElectrons: 360.000000  magneticMoment: [ Abs: 34.05170  Tot: -0.00000 ]
	SubspaceRotationAdjust: set factor to 0.227
ElecMinimize: Iter: 152  F: -2214.699929917451755  |grad|_K:  1.565e-06  alpha:  2.271e-01  linmin: -8.028e-05  t[s]:  12517.21
	FillingsUpdate:  mu: +0.106110167  nElectrons: 360.000000  magneticMoment: [ Abs: 34.04752  Tot: -0.00000 ]
	SubspaceRotationAdjust: set factor to 0.225
ElecMinimize: Iter: 153  F: -2214.700036626561996  |grad|_K:  1.744e-06  alpha:  2.472e-01  linmin: -1.096e-05  t[s]:  12590.59
	FillingsUpdate:  mu: +0.106022847  nElectrons: 360.000000  magneticMoment: [ Abs: 34.05891  Tot: +0.00000 ]
	SubspaceRotationAdjust: set factor to 0.198
ElecMinimize: Iter: 154  F: -2214.700116591224742  |grad|_K:  1.542e-06  alpha:  1.510e-01  linmin:  5.928e-06  t[s]:  12669.27
	FillingsUpdate:  mu: +0.106023551  nElectrons: 360.000000  magneticMoment: [ Abs: 34.06295  Tot: -0.00000 ]
	SubspaceRotationAdjust: set factor to 0.257
ElecMinimize: Iter: 155  F: -2214.700219299718810  |grad|_K:  1.357e-06  alpha:  2.455e-01  linmin: -1.650e-04  t[s]:  12746.21
	FillingsUpdate:  mu: +0.106357781  nElectrons: 360.000000  magneticMoment: [ Abs: 34.06438  Tot: +0.00000 ]
	SubspaceRotationAdjust: set factor to 0.251
ElecMinimize: Iter: 156  F: -2214.700298977064449  |grad|_K:  1.538e-06  alpha:  2.438e-01  linmin: -5.614e-05  t[s]:  12822.37
	FillingsUpdate:  mu: +0.106675752  nElectrons: 360.000000  magneticMoment: [ Abs: 34.07909  Tot: -0.00000 ]
	SubspaceRotationAdjust: set factor to 0.203
ElecMinimize: Iter: 157  F: -2214.700359020246651  |grad|_K:  1.364e-06  alpha:  1.458e-01  linmin:  2.433e-05  t[s]:  12902.88
	FillingsUpdate:  mu: +0.106190760  nElectrons: 360.000000  magneticMoment: [ Abs: 34.07624  Tot: +0.00000 ]
	SubspaceRotationAdjust: set factor to 0.222
ElecMinimize: Iter: 158  F: -2214.700437033785420  |grad|_K:  1.158e-06  alpha:  2.412e-01  linmin:  1.068e-04  t[s]:  12975.91
	FillingsUpdate:  mu: +0.105993350  nElectrons: 360.000000  magneticMoment: [ Abs: 34.07394  Tot: +0.00000 ]
	SubspaceRotationAdjust: set factor to 0.249
ElecMinimize: Iter: 159  F: -2214.700502414753828  |grad|_K:  1.172e-06  alpha:  2.817e-01  linmin:  4.718e-05  t[s]:  13053.67
	FillingsUpdate:  mu: +0.106436598  nElectrons: 360.000000  magneticMoment: [ Abs: 34.08406  Tot: -0.00000 ]
	SubspaceRotationAdjust: set factor to 0.216
ElecMinimize: Iter: 160  F: -2214.700548108276053  |grad|_K:  1.185e-06  alpha:  1.926e-01  linmin: -1.078e-05  t[s]:  13130.64
	FillingsUpdate:  mu: +0.106794369  nElectrons: 360.000000  magneticMoment: [ Abs: 34.07988  Tot: -0.00000 ]
	SubspaceRotationAdjust: set factor to 0.19
ElecMinimize: Iter: 161  F: -2214.700592938222144  |grad|_K:  9.608e-07  alpha:  1.825e-01  linmin: -6.648e-06  t[s]:  13208.19
	FillingsUpdate:  mu: +0.106586956  nElectrons: 360.000000  magneticMoment: [ Abs: 34.07993  Tot: +0.00000 ]
	SubspaceRotationAdjust: set factor to 0.212
ElecMinimize: Iter: 162  F: -2214.700634971618456  |grad|_K:  8.095e-07  alpha:  2.601e-01  linmin: -1.817e-05  t[s]:  13285.98
	FillingsUpdate:  mu: +0.106357373  nElectrons: 360.000000  magneticMoment: [ Abs: 34.08197  Tot: +0.00000 ]
	SubspaceRotationAdjust: set factor to 0.23
ElecMinimize: Iter: 163  F: -2214.700667334254831  |grad|_K:  7.690e-07  alpha:  2.820e-01  linmin: -5.052e-06  t[s]:  13364.63
	FillingsUpdate:  mu: +0.106433685  nElectrons: 360.000000  magneticMoment: [ Abs: 34.08093  Tot: -0.00000 ]
	SubspaceRotationAdjust: set factor to 0.207
ElecMinimize: Iter: 164  F: -2214.700690226844472  |grad|_K:  7.577e-07  alpha:  2.210e-01  linmin:  9.148e-06  t[s]:  13440.70
	FillingsUpdate:  mu: +0.106618243  nElectrons: 360.000000  magneticMoment: [ Abs: 34.08854  Tot: +0.00000 ]
	SubspaceRotationAdjust: set factor to 0.181
ElecMinimize: Iter: 165  F: -2214.700708411102369  |grad|_K:  6.144e-07  alpha:  1.816e-01  linmin: -3.058e-05  t[s]:  13512.73
	FillingsUpdate:  mu: +0.106563353  nElectrons: 360.000000  magneticMoment: [ Abs: 34.08887  Tot: -0.00000 ]
	SubspaceRotationAdjust: set factor to 0.205
ElecMinimize: Iter: 166  F: -2214.700724884036390  |grad|_K:  5.081e-07  alpha:  2.490e-01  linmin:  1.432e-05  t[s]:  13591.74
	FillingsUpdate:  mu: +0.106487686  nElectrons: 360.000000  magneticMoment: [ Abs: 34.08911  Tot: -0.00000 ]
	SubspaceRotationAdjust: set factor to 0.228
ElecMinimize: Iter: 167  F: -2214.700738166053725  |grad|_K:  5.006e-07  alpha:  2.946e-01  linmin:  1.556e-05  t[s]:  13667.79
	FillingsUpdate:  mu: +0.106570202  nElectrons: 360.000000  magneticMoment: [ Abs: 34.09438  Tot: -0.00000 ]
	SubspaceRotationAdjust: set factor to 0.213
ElecMinimize: Iter: 168  F: -2214.700748544434191  |grad|_K:  5.190e-07  alpha:  2.375e-01  linmin: -1.851e-05  t[s]:  13747.22
	FillingsUpdate:  mu: +0.106649236  nElectrons: 360.000000  magneticMoment: [ Abs: 34.09372  Tot: +0.00000 ]
	SubspaceRotationAdjust: set factor to 0.189
ElecMinimize: Iter: 169  F: -2214.700757974716907  |grad|_K:  4.714e-07  alpha:  1.997e-01  linmin:  2.020e-05  t[s]:  13828.16
	FillingsUpdate:  mu: +0.106558364  nElectrons: 360.000000  magneticMoment: [ Abs: 34.09627  Tot: -0.00000 ]
	SubspaceRotationAdjust: set factor to 0.213
ElecMinimize: Iter: 170  F: -2214.700768282066747  |grad|_K:  4.229e-07  alpha:  2.656e-01  linmin: -1.236e-05  t[s]:  13903.96
	FillingsUpdate:  mu: +0.106419484  nElectrons: 360.000000  magneticMoment: [ Abs: 34.09804  Tot: -0.00000 ]
	SubspaceRotationAdjust: set factor to 0.234
ElecMinimize: Iter: 171  F: -2214.700778223618727  |grad|_K:  4.392e-07  alpha:  3.175e-01  linmin: -2.568e-06  t[s]:  13981.66
	FillingsUpdate:  mu: +0.106457566  nElectrons: 360.000000  magneticMoment: [ Abs: 34.09850  Tot: -0.00000 ]
	SubspaceRotationAdjust: set factor to 0.225
ElecMinimize: Iter: 172  F: -2214.700786951035298  |grad|_K:  4.848e-07  alpha:  2.582e-01  linmin:  1.981e-05  t[s]:  14059.04
	FillingsUpdate:  mu: +0.106548752  nElectrons: 360.000000  magneticMoment: [ Abs: 34.10517  Tot: -0.00000 ]
	SubspaceRotationAdjust: set factor to 0.194
ElecMinimize: Iter: 173  F: -2214.700794930846769  |grad|_K:  4.593e-07  alpha:  1.952e-01  linmin: -2.017e-05  t[s]:  14139.47
	FillingsUpdate:  mu: +0.106547731  nElectrons: 360.000000  magneticMoment: [ Abs: 34.10817  Tot: -0.00000 ]
	SubspaceRotationAdjust: set factor to 0.207
ElecMinimize: Iter: 174  F: -2214.700804678518125  |grad|_K:  4.146e-07  alpha:  2.641e-01  linmin:  4.023e-05  t[s]:  14217.29
	FillingsUpdate:  mu: +0.106439627  nElectrons: 360.000000  magneticMoment: [ Abs: 34.11182  Tot: +0.00000 ]
	SubspaceRotationAdjust: set factor to 0.23
ElecMinimize: Iter: 175  F: -2214.700814118459220  |grad|_K:  4.230e-07  alpha:  3.155e-01  linmin:  1.110e-05  t[s]:  14296.32
	FillingsUpdate:  mu: +0.106462988  nElectrons: 360.000000  magneticMoment: [ Abs: 34.11869  Tot: -0.00000 ]
	SubspaceRotationAdjust: set factor to 0.228
ElecMinimize: Iter: 176  F: -2214.700822583746231  |grad|_K:  4.492e-07  alpha:  2.713e-01  linmin: -3.242e-05  t[s]:  14372.62
	FillingsUpdate:  mu: +0.106555194  nElectrons: 360.000000  magneticMoment: [ Abs: 34.12090  Tot: -0.00000 ]
	SubspaceRotationAdjust: set factor to 0.196
ElecMinimize: Iter: 177  F: -2214.700829933624391  |grad|_K:  4.620e-07  alpha:  2.067e-01  linmin:  2.292e-05  t[s]:  14447.37
	FillingsUpdate:  mu: +0.106574772  nElectrons: 360.000000  magneticMoment: [ Abs: 34.12860  Tot: -0.00000 ]
	SubspaceRotationAdjust: set factor to 0.203
ElecMinimize: Iter: 178  F: -2214.700838980515982  |grad|_K:  4.083e-07  alpha:  2.426e-01  linmin: -5.492e-05  t[s]:  14525.81
	FillingsUpdate:  mu: +0.106480255  nElectrons: 360.000000  magneticMoment: [ Abs: 34.13421  Tot: +0.00000 ]
	SubspaceRotationAdjust: set factor to 0.226
ElecMinimize: Iter: 179  F: -2214.700847794006677  |grad|_K:  4.023e-07  alpha:  3.004e-01  linmin: -9.671e-07  t[s]:  14603.86
	FillingsUpdate:  mu: +0.106487949  nElectrons: 360.000000  magneticMoment: [ Abs: 34.13787  Tot: -0.00000 ]
	SubspaceRotationAdjust: set factor to 0.224
ElecMinimize: Iter: 180  F: -2214.700855154841520  |grad|_K:  4.078e-07  alpha:  2.598e-01  linmin:  2.485e-05  t[s]:  14678.56
	FillingsUpdate:  mu: +0.106536695  nElectrons: 360.000000  magneticMoment: [ Abs: 34.14484  Tot: +0.00000 ]
	SubspaceRotationAdjust: set factor to 0.196
ElecMinimize: Iter: 181  F: -2214.700860633306092  |grad|_K:  3.832e-07  alpha:  1.896e-01  linmin: -1.485e-05  t[s]:  14754.10
	FillingsUpdate:  mu: +0.106596340  nElectrons: 360.000000  magneticMoment: [ Abs: 34.14910  Tot: -0.00000 ]
	SubspaceRotationAdjust: set factor to 0.207
ElecMinimize: Iter: 182  F: -2214.700867499655033  |grad|_K:  3.595e-07  alpha:  2.673e-01  linmin:  3.190e-05  t[s]:  14827.87
	FillingsUpdate:  mu: +0.106554518  nElectrons: 360.000000  magneticMoment: [ Abs: 34.15388  Tot: -0.00000 ]
	SubspaceRotationAdjust: set factor to 0.233
ElecMinimize: Iter: 183  F: -2214.700874624727021  |grad|_K:  3.747e-07  alpha:  3.164e-01  linmin:  6.573e-06  t[s]:  14906.24
	FillingsUpdate:  mu: +0.106545612  nElectrons: 360.000000  magneticMoment: [ Abs: 34.16083  Tot: -0.00000 ]
	SubspaceRotationAdjust: set factor to 0.233
ElecMinimize: Iter: 184  F: -2214.700881757737534  |grad|_K:  4.151e-07  alpha:  2.908e-01  linmin: -2.640e-05  t[s]:  14983.05
	FillingsUpdate:  mu: +0.106610601  nElectrons: 360.000000  magneticMoment: [ Abs: 34.16306  Tot: -0.00000 ]
	SubspaceRotationAdjust: set factor to 0.203
ElecMinimize: Iter: 185  F: -2214.700887963676905  |grad|_K:  4.281e-07  alpha:  2.048e-01  linmin:  4.694e-06  t[s]:  15058.50
	FillingsUpdate:  mu: +0.106598135  nElectrons: 360.000000  magneticMoment: [ Abs: 34.17022  Tot: +0.00000 ]
	SubspaceRotationAdjust: set factor to 0.21
ElecMinimize: Iter: 186  F: -2214.700896322237895  |grad|_K:  4.119e-07  alpha:  2.605e-01  linmin: -3.723e-05  t[s]:  15137.63
	FillingsUpdate:  mu: +0.106484675  nElectrons: 360.000000  magneticMoment: [ Abs: 34.17536  Tot: -0.00000 ]
	SubspaceRotationAdjust: set factor to 0.235
ElecMinimize: Iter: 187  F: -2214.700905969516498  |grad|_K:  4.448e-07  alpha:  3.237e-01  linmin:  4.752e-06  t[s]:  15214.04
	FillingsUpdate:  mu: +0.106466766  nElectrons: 360.000000  magneticMoment: [ Abs: 34.17948  Tot: -0.00000 ]
	SubspaceRotationAdjust: set factor to 0.238
ElecMinimize: Iter: 188  F: -2214.700917086552636  |grad|_K:  5.448e-07  alpha:  3.215e-01  linmin:  2.605e-05  t[s]:  15289.64
	FillingsUpdate:  mu: +0.106514272  nElectrons: 360.000000  magneticMoment: [ Abs: 34.18931  Tot: +0.00000 ]
	SubspaceRotationAdjust: set factor to 0.209
[...]
	FillingsUpdate:  mu: +0.107951196  nElectrons: 360.000000  magneticMoment: [ Abs: 34.52096  Tot: +0.00000 ]
	SubspaceRotationAdjust: set factor to 0.362
ElecMinimize: Iter:  15  F: -2214.749150219286093  |grad|_K:  6.766e-08  alpha:  3.410e-01  linmin: -4.057e-06  t[s]:  88991.92
	FillingsUpdate:  mu: +0.107944232  nElectrons: 360.000000  magneticMoment: [ Abs: 34.52096  Tot: -0.00000 ]
	SubspaceRotationAdjust: set factor to 0.426
ElecMinimize: Iter:  16  F: -2214.749150488514715  |grad|_K:  5.384e-08  alpha:  3.361e-01  linmin: -5.913e-06  t[s]:  89069.65
	FillingsUpdate:  mu: +0.107943568  nElectrons: 360.000000  magneticMoment: [ Abs: 34.52102  Tot: +0.00000 ]
	SubspaceRotationAdjust: set factor to 0.457
ElecMinimize: Iter:  17  F: -2214.749150665868001  |grad|_K:  4.770e-08  alpha:  3.497e-01  linmin: -1.810e-05  t[s]:  89149.82
	FillingsUpdate:  mu: +0.107953001  nElectrons: 360.000000  magneticMoment: [ Abs: 34.52091  Tot: -0.00000 ]
	SubspaceRotationAdjust: set factor to 0.409
ElecMinimize: Iter:  18  F: -2214.749150777891828  |grad|_K:  4.647e-08  alpha:  2.809e-01  linmin:  1.557e-05  t[s]:  89226.98
ElecMinimize: Converged (|Delta F|<1.000000e-06 for 5 iters).
Setting wave functions to eigenvectors of Hamiltonian

# Ionic positions in lattice coordinates:
ion Ni   0.024517637911968   0.001102915693788   0.157401922151472 1
ion Ni   0.503867312981915  -0.000391389360967   0.153231447828917 1
ion Ni   0.249118665262800   0.753637288452557   0.050803265588175 1
ion Ni  -0.252552874863105   0.250537697332840   0.051230525468243 1
ion Ni   0.500000000000000   0.000000000000000  -0.050000000000000 0
ion Ni   0.500000000000000   0.500000000000000  -0.050000000000000 0
ion Ni   0.250000000000000   0.750000000000000  -0.150000000000000 0
ion Ni  -0.250000000000000   0.750000000000000  -0.150000000000000 0
ion Cr  -0.004788794242632   0.500446491216816   0.165207546352185 1
ion V   0.493662660212268   0.493433369372125   0.149901346352292 1
ion V   0.249052223708142   0.249905885149946   0.052480188772147 1
ion V  -0.254934428631054   0.757998161431931   0.053335441665013 1
ion V   0.000000000000000   0.000000000000000  -0.050000000000000 0
ion V   0.000000000000000   0.500000000000000  -0.050000000000000 0
ion Co   0.250000000000000   0.250000000000000  -0.150000000000000 0
ion Co  -0.250000000000000   0.250000000000000  -0.150000000000000 0
ion O   0.250847996701553   0.263845043919250   0.153892873968225 1
ion O   0.259087924078798   0.740815536897885   0.145654939887838 1
ion O  -0.266461879003907   0.262787729254171   0.146002596397696 1
ion O  -0.267231514991722   0.728733483270501   0.145608306945595 1
ion O  -0.008776853215427   0.000913750202630   0.054421184882309 1
ion O   0.507787601490144  -0.008154897766692   0.043790138572938 1
ion O  -0.010470216867902   0.521777688381991   0.047145135987976 1
ion O   0.502380456722464   0.507148617025631   0.053245995071654 1
ion O   0.250000000000000   0.250000000000000  -0.050000000000000 0
ion O   0.250000000000000   0.750000000000000  -0.050000000000000 0
ion O  -0.250000000000000   0.250000000000000  -0.050000000000000 0
ion O  -0.250000000000000   0.750000000000000  -0.050000000000000 0
ion O   0.000000000000000   0.000000000000000  -0.150000000000000 0
ion O   0.500000000000000   0.000000000000000  -0.150000000000000 0
ion O   0.000000000000000   0.500000000000000  -0.150000000000000 0
ion O   0.500000000000000   0.500000000000000  -0.150000000000000 0
ion O  -0.011699568690134  -0.013700355872237   0.243936922627268 1
ion H   0.124174904020191   0.021998125264652   0.265231645138161 1

# Forces in Lattice coordinates:
force Ni   0.012471123809001  -0.002844286103004  -0.023427525307227 1
force Ni  -0.002732444724472   0.000722780131432   0.017376553043633 1
force Ni  -0.000739152628324  -0.001095734227696  -0.009930491569149 1
force Ni  -0.002616582772334   0.001185834397234  -0.007704647084285 1
force Ni  -0.001077763318511  -0.025134768810342  -0.597172681078492 0
force Ni  -0.007356422936410   0.019120844208105  -0.371655699922211 0
force Ni   0.073173958268000  -0.003842943492183   0.439896425250355 0
force Ni  -0.064857165064595  -0.004259076212165   0.242888143509877 0
force Cr  -0.001064658753552  -0.005619548064394  -0.029725578212275 1
force V   0.000132847345242  -0.000533690325081  -0.019783769685452 1
force V   0.000749259898918  -0.000953472922560  -0.004606972325837 1
force V   0.000420722017253  -0.002475641943916  -0.021920410265438 1
force V   0.013837276345177   0.003892475641554  -0.076963242532825 0
force V  -0.006204795757751   0.031220916611057  -0.245510945858835 0
force Co   0.086375813052835  -0.018938252501145  -0.346414206715099 0
force Co  -0.070495148405610   0.026330007373161  -0.291592035830638 0
force O  -0.000796322299487  -0.000069551243205  -0.000365541934967 1
force O  -0.001794646435633  -0.002987766991353   0.014444504934868 1
force O  -0.001351845305762  -0.000269524993904  -0.004122579372871 1
force O   0.002152212931661  -0.001626533699173   0.011771546435794 1
force O   0.000911142566002  -0.003450937097442   0.005864597493459 1
force O  -0.000012360299936   0.002881358417259   0.008490654902872 1
force O  -0.003167917589955  -0.003663545528417   0.008931423737790 1
force O   0.002787756792842  -0.003496328161419   0.007759497671357 1
force O  -0.004618722901494   0.000269944813155   0.243308283154352 0
force O   0.030379069994203   0.004599366928689   0.148579817214539 0
force O  -0.025711824781909  -0.009274252011669   0.452395634176453 0
force O   0.013047778405983   0.011518579913221   0.354379376677311 0
force O   0.034398486422389  -0.067952528047424  -0.031143569607227 0
force O  -0.043811218965547  -0.074033357461568   0.164228845380629 0
force O   0.030032413925238   0.058750873260018  -0.050992476483978 0
force O  -0.038137415846737   0.077649910824813   0.030233107931677 0
force O   0.008234973400761   0.007692216711235   0.025516943841219 1
force H  -0.007345021340188  -0.012055014190310  -0.059297992057553 1

# Energy components:
   Eewald =     5742.0558728692167278
       EH =     7737.8808880759806925
     Eloc =   -15832.9434591007720883
      Enl =     -612.5213163079270089
   Epulay =       -0.0004911042135150
      Exc =     -261.7546618353128451
       KE =     1010.9827072810464870
        U =        1.5519544172337203
-------------------------------------
     Etot =    -2214.7485057047460941
       TS =        0.0006450731457698
-------------------------------------
        F =    -2214.7491507778918276

IonicMinimize: Iter:  20  F: -2214.749150777891828  |grad|_K:  4.163e-04  alpha:  1.000e+00  linmin: -3.227e-02  t[s]:  89238.57

#--- Lowdin population analysis ---
# oxidation-state Ni +3.808 +3.436 +3.472 +3.515 +3.560 +3.485 +3.881 +3.799
# magnetic-moments Ni -1.071 +0.690 +0.843 -0.908 +1.010 +0.940 -1.060 +1.009
# oxidation-state Cr +3.003
# magnetic-moments Cr +4.096
# oxidation-state V +1.302 +1.004 +1.254 +1.047 +1.077
# magnetic-moments V -2.091 +2.901 -2.067 -2.692 -2.560
# oxidation-state Co +1.291 +1.292
# magnetic-moments Co -2.779 +2.738
# oxidation-state O -0.804 -0.742 -0.744 -0.779 -0.781 -0.734 -0.810 -0.756 -0.867 -0.748 -0.827 -0.800 -0.908 -0.859 -0.909 -0.858 -0.751
# magnetic-moments O -0.115 +0.064 -0.158 +0.035 -0.058 +0.124 +0.059 +0.046 +0.155 +0.135 +0.135 +0.275 -0.001 +0.093 -0.001 +0.105 -0.287
# oxidation-state H +0.378
# magnetic-moments H +0.005


-------- Electronic minimization -----------
	FillingsUpdate:  mu: +0.111922736  nElectrons: 360.000000  magneticMoment: [ Abs: 34.52277  Tot: -0.00000 ]
ElecMinimize: Iter:   0  F: -2214.329968677672696  |grad|_K:  1.101e-04  alpha:  1.000e+00
	FillingsUpdate:  mu: +0.107643167  nElectrons: 360.000000  magneticMoment: [ Abs: 34.52523  Tot: +0.00000 ]
	SubspaceRotationAdjust: set factor to 0.454
ElecMinimize: Iter:   1  F: -2214.720695543904185  |grad|_K:  2.062e-05  alpha:  2.005e-01  linmin:  1.954e-02  t[s]:  89339.33
	FillingsUpdate:  mu: +0.107896323  nElectrons: 360.000000  magneticMoment: [ Abs: 34.52449  Tot: +0.00000 ]
	SubspaceRotationAdjust: set factor to 0.611
ElecMinimize: Iter:   2  F: -2214.738487680091566  |grad|_K:  8.440e-06  alpha:  2.596e-01  linmin: -1.274e-04  t[s]:  89415.87
	FillingsUpdate:  mu: +0.108292095  nElectrons: 360.000000  magneticMoment: [ Abs: 34.51475  Tot: -0.00000 ]
	SubspaceRotationAdjust: set factor to 0.802
ElecMinimize: Iter:   3  F: -2214.743365286647531  |grad|_K:  6.976e-06  alpha:  3.906e-01  linmin: -1.068e-05  t[s]:  89493.81
	FillingsUpdate:  mu: +0.107968334  nElectrons: 360.000000  magneticMoment: [ Abs: 34.52428  Tot: -0.00000 ]
	SubspaceRotationAdjust: set factor to 0.603
ElecMinimize: Iter:   4  F: -2214.746532813338490  |grad|_K:  7.326e-06  alpha:  3.719e-01  linmin: -9.852e-06  t[s]:  89571.88
	FillingsUpdate:  mu: +0.107456567  nElectrons: 360.000000  magneticMoment: [ Abs: 34.50711  Tot: +0.00000 ]
	SubspaceRotationAdjust: set factor to 0.389
ElecMinimize: Iter:   5  F: -2214.747464802775085  |grad|_K:  5.032e-06  alpha:  9.739e-02  linmin: -4.162e-05  t[s]:  89650.49
	FillingsUpdate:  mu: +0.108121593  nElectrons: 360.000000  magneticMoment: [ Abs: 34.50793  Tot: -0.00000 ]
	SubspaceRotationAdjust: set factor to 0.59
ElecMinimize: Iter:   6  F: -2214.748676580940355  |grad|_K:  3.007e-06  alpha:  2.715e-01  linmin:  2.760e-06  t[s]:  89727.35
	FillingsUpdate:  mu: +0.107459539  nElectrons: 360.000000  magneticMoment: [ Abs: 34.51531  Tot: -0.00000 ]
	SubspaceRotationAdjust: set factor to 0.449
ElecMinimize: Iter:   7  F: -2214.748987577265780  |grad|_K:  2.178e-06  alpha:  1.950e-01  linmin:  2.382e-05  t[s]:  89805.28
	FillingsUpdate:  mu: +0.107931090  nElectrons: 360.000000  magneticMoment: [ Abs: 34.51074  Tot: +0.00000 ]
	SubspaceRotationAdjust: set factor to 0.281
ElecMinimize: Iter:   8  F: -2214.749105154101471  |grad|_K:  1.272e-06  alpha:  1.412e-01  linmin:  2.884e-05  t[s]:  89881.51
	FillingsUpdate:  mu: +0.108217958  nElectrons: 360.000000  magneticMoment: [ Abs: 34.51158  Tot: +0.00000 ]
	SubspaceRotationAdjust: set factor to 0.3
ElecMinimize: Iter:   9  F: -2214.749172207258198  |grad|_K:  7.281e-07  alpha:  2.373e-01  linmin: -2.284e-05  t[s]:  89958.03
	FillingsUpdate:  mu: +0.108079872  nElectrons: 360.000000  magneticMoment: [ Abs: 34.51280  Tot: +0.00000 ]
	SubspaceRotationAdjust: set factor to 0.307
ElecMinimize: Iter:  10  F: -2214.749197234784333  |grad|_K:  4.501e-07  alpha:  2.696e-01  linmin:  1.120e-05  t[s]:  90034.94
	FillingsUpdate:  mu: +0.108111759  nElectrons: 360.000000  magneticMoment: [ Abs: 34.51207  Tot: -0.00000 ]
	SubspaceRotationAdjust: set factor to 0.263
ElecMinimize: Iter:  11  F: -2214.749206117602171  |grad|_K:  3.286e-07  alpha:  2.508e-01  linmin:  2.887e-05  t[s]:  90112.30
	FillingsUpdate:  mu: +0.108124562  nElectrons: 360.000000  magneticMoment: [ Abs: 34.51248  Tot: -0.00000 ]
	SubspaceRotationAdjust: set factor to 0.339
ElecMinimize: Iter:  12  F: -2214.749211778440895  |grad|_K:  2.187e-07  alpha:  3.000e-01  linmin: -3.233e-06  t[s]:  90189.59
	FillingsUpdate:  mu: +0.108134368  nElectrons: 360.000000  magneticMoment: [ Abs: 34.51273  Tot: +0.00000 ]
	SubspaceRotationAdjust: set factor to 0.391
ElecMinimize: Iter:  13  F: -2214.749214640257378  |grad|_K:  1.912e-07  alpha:  3.421e-01  linmin: -5.032e-07  t[s]:  90262.95
	FillingsUpdate:  mu: +0.108156953  nElectrons: 360.000000  magneticMoment: [ Abs: 34.51237  Tot: -0.00000 ]
	SubspaceRotationAdjust: set factor to 0.383
ElecMinimize: Iter:  14  F: -2214.749216545949821  |grad|_K:  1.707e-07  alpha:  2.980e-01  linmin:  2.037e-06  t[s]:  90340.49
	FillingsUpdate:  mu: +0.108119168  nElectrons: 360.000000  magneticMoment: [ Abs: 34.51270  Tot: +0.00000 ]
	SubspaceRotationAdjust: set factor to 0.362
ElecMinimize: Iter:  15  F: -2214.749218017768726  |grad|_K:  1.369e-07  alpha:  2.890e-01  linmin:  5.190e-08  t[s]:  90418.67
	FillingsUpdate:  mu: +0.108150931  nElectrons: 360.000000  magneticMoment: [ Abs: 34.51247  Tot: -0.00000 ]
	SubspaceRotationAdjust: set factor to 0.391
ElecMinimize: Iter:  16  F: -2214.749218999290861  |grad|_K:  1.036e-07  alpha:  2.995e-01  linmin:  1.085e-06  t[s]:  90493.21
	FillingsUpdate:  mu: +0.108146686  nElectrons: 360.000000  magneticMoment: [ Abs: 34.51241  Tot: +0.00000 ]
	SubspaceRotationAdjust: set factor to 0.456
ElecMinimize: Iter:  17  F: -2214.749219623517092  |grad|_K:  7.921e-08  alpha:  3.325e-01  linmin: -3.122e-06  t[s]:  90569.10
	FillingsUpdate:  mu: +0.108132829  nElectrons: 360.000000  magneticMoment: [ Abs: 34.51249  Tot: -0.00000 ]
	SubspaceRotationAdjust: set factor to 0.495
ElecMinimize: Iter:  18  F: -2214.749219985710624  |grad|_K:  7.420e-08  alpha:  3.299e-01  linmin: -1.040e-06  t[s]:  90646.34
	FillingsUpdate:  mu: +0.108157045  nElectrons: 360.000000  magneticMoment: [ Abs: 34.51224  Tot: -0.00000 ]
	SubspaceRotationAdjust: set factor to 0.454
ElecMinimize: Iter:  19  F: -2214.749220237724330  |grad|_K:  7.397e-08  alpha:  2.615e-01  linmin: -8.152e-07  t[s]:  90720.67
	FillingsUpdate:  mu: +0.108145175  nElectrons: 360.000000  magneticMoment: [ Abs: 34.51234  Tot: -0.00000 ]
	SubspaceRotationAdjust: set factor to 0.453
ElecMinimize: Iter:  20  F: -2214.749220499578769  |grad|_K:  6.568e-08  alpha:  2.739e-01  linmin:  1.075e-06  t[s]:  90797.42
ElecMinimize: Converged (|Delta F|<1.000000e-06 for 5 iters).
Setting wave functions to eigenvectors of Hamiltonian

# Ionic positions in lattice coordinates:
ion Ni   0.028011243116587  -0.000868928928218   0.157531346162285 1
ion Ni   0.504026701246935   0.000103126434028   0.153346696393507 1
ion Ni   0.248958253857564   0.753359957010274   0.050661507402021 1
ion Ni  -0.252904767047522   0.250607794337955   0.051217198814519 1
ion Ni   0.500000000000000   0.000000000000000  -0.050000000000000 0
ion Ni   0.500000000000000   0.500000000000000  -0.050000000000000 0
ion Ni   0.250000000000000   0.750000000000000  -0.150000000000000 0
ion Ni  -0.250000000000000   0.750000000000000  -0.150000000000000 0
ion Cr  -0.005379826811879   0.499290618124385   0.164908282811579 1
ion V   0.493522648989496   0.493725893855405   0.149847759097096 1
ion V   0.248889488275985   0.249838970325988   0.052434206625653 1
ion V  -0.255045524906016   0.758100463177910   0.053388934330864 1
ion V   0.000000000000000   0.000000000000000  -0.050000000000000 0
ion V   0.000000000000000   0.500000000000000  -0.050000000000000 0
ion Co   0.250000000000000   0.250000000000000  -0.150000000000000 0
ion Co  -0.250000000000000   0.250000000000000  -0.150000000000000 0
ion O   0.250760300248655   0.263730939450112   0.153685614832533 1
ion O   0.258714151602903   0.740426105785371   0.145576042128155 1
ion O  -0.267792302000412   0.263642225780586   0.145996039581463 1
ion O  -0.267325612639694   0.728847298345542   0.145645703620735 1
ion O  -0.008739267391972   0.000247254856044   0.054241424757568 1
ion O   0.507785948967942  -0.008265713518082   0.044010754525632 1
ion O  -0.010824977359484   0.521160952957531   0.047235320045636 1
ion O   0.502180897961583   0.507157892436427   0.053167699616381 1
ion O   0.250000000000000   0.250000000000000  -0.050000000000000 0
ion O   0.250000000000000   0.750000000000000  -0.050000000000000 0
ion O  -0.250000000000000   0.250000000000000  -0.050000000000000 0
ion O  -0.250000000000000   0.750000000000000  -0.050000000000000 0
ion O   0.000000000000000   0.000000000000000  -0.150000000000000 0
ion O   0.500000000000000   0.000000000000000  -0.150000000000000 0
ion O   0.000000000000000   0.500000000000000  -0.150000000000000 0
ion O   0.500000000000000   0.500000000000000  -0.150000000000000 0
ion O  -0.010797993482163  -0.014306070957246   0.243878756019869 1
ion H   0.126573290015432   0.013827781704300   0.265717772211679 1

# Forces in Lattice coordinates:
force Ni   0.018193649827568  -0.001447877104711  -0.012067445996223 1
force Ni  -0.007323080291733  -0.001644354549263   0.019337180775025 1
force Ni  -0.000611669430103  -0.000987524979339  -0.003048023035544 1
force Ni  -0.003349237506798   0.002465012671806  -0.016696334884209 1
force Ni  -0.001463474684285  -0.024730919071875  -0.566111612073190 0
force Ni  -0.008198173467220   0.018679522424821  -0.359613353256000 0
force Ni   0.073702132615469  -0.004778038553447   0.452862137272864 0
force Ni  -0.065446913799980  -0.005171123328794   0.257876277798018 0
force Cr   0.000567716150097   0.000464906336616  -0.016799761350413 1
force V   0.002671017998788  -0.000495766239308  -0.018079799782963 1
force V   0.002330295065214  -0.001001869662460   0.001712496426557 1
force V   0.001958051633954  -0.003705593125967  -0.017525874694553 1
force V   0.013524705093365   0.003475785616775  -0.065271187593806 0
force V  -0.006915495587845   0.030220152092678  -0.230062976589340 0
force Co   0.086759755111949  -0.018303134600264  -0.334976225867916 0
force Co  -0.070870090685300   0.026947271228437  -0.280943192042445 0
force O  -0.002410133833443  -0.004399195077793   0.010068937226370 1
force O  -0.000453695476329  -0.002837170120693   0.006767356255482 1
force O   0.000033414630958  -0.004564125047168  -0.013206811805783 1
force O  -0.001489093484657  -0.004988123414713  -0.000705639686144 1
force O   0.003467831100567  -0.002278200398495   0.016169266644886 1
force O  -0.003152971083319   0.002634785697107  -0.019944232359871 1
force O  -0.000163840726571  -0.000328918753768  -0.008409203287535 1
force O   0.000568905727197  -0.002008760200855  -0.001577405012319 1
force O  -0.003300197298056  -0.000094659361011   0.241380625384557 0
force O   0.030493857303643   0.004810622582075   0.153305168878961 0
force O  -0.026275217935760  -0.010166797817413   0.453153374628486 0
force O   0.011534228370351   0.011409073250078   0.350746040876297 0
force O   0.035981109454624  -0.065976401391204  -0.033633282231181 0
force O  -0.045559330398666  -0.071691211157682   0.160328318156425 0
force O   0.032052329649974   0.057149439617659  -0.051755425772978 0
force O  -0.039265742768837   0.076166271795290   0.041158963110713 0
force O   0.044039994655478   0.011835457085971   0.109033974841460 1
force H  -0.045135812888963  -0.015510515267026  -0.135686561157019 1

# Energy components:
   Eewald =     5743.0097691556256905
       EH =     7738.9110400169320201
     Eloc =   -15834.9311443264741683
      Enl =     -612.5224233102680955
   Epulay =       -0.0004911042135150
      Exc =     -261.7559837542584091
       KE =     1010.9882551704047273
        U =        1.5524080759914152
-------------------------------------
     Etot =    -2214.7485700762599663
       TS =        0.0006504233189557
-------------------------------------
        F =    -2214.7492204995787688

IonicMinimize: Iter:  21  F: -2214.749220499578769  |grad|_K:  1.028e-03  alpha:  8.572e-01  linmin: -8.905e-03  t[s]:  90808.92
IonicMinimize: Converged (|Delta F|<1.000000e-04 for 3 iters).

#--- Lowdin population analysis ---
# oxidation-state Ni +3.805 +3.437 +3.472 +3.516 +3.559 +3.486 +3.880 +3.798
# magnetic-moments Ni -1.068 +0.690 +0.843 -0.908 +1.009 +0.941 -1.060 +1.008
# oxidation-state Cr +3.002
# magnetic-moments Cr +4.094
# oxidation-state V +1.302 +1.004 +1.254 +1.047 +1.076
# magnetic-moments V -2.087 +2.900 -2.067 -2.690 -2.562
# oxidation-state Co +1.291 +1.292
# magnetic-moments Co -2.779 +2.738
# oxidation-state O -0.802 -0.741 -0.744 -0.779 -0.781 -0.733 -0.810 -0.756 -0.867 -0.747 -0.827 -0.800 -0.908 -0.860 -0.909 -0.858 -0.749
# magnetic-moments O -0.117 +0.058 -0.153 +0.036 -0.055 +0.124 +0.058 +0.044 +0.155 +0.136 +0.135 +0.276 -0.002 +0.093 -0.001 +0.105 -0.291
# oxidation-state H +0.377
# magnetic-moments H +0.005


Dumping 'run.ionpos' ... done
Dumping 'run.lattice' ... done
Dumping 'run.Ecomponents' ... done
End date and time: Sat May 10 11:51:01 2025  (Duration: 1-1:13:32.15)
Done!
