/var/spool/slurmd/job44147/slurm_script: line 9: module: command not found
/var/spool/slurmd/job44147/slurm_script: line 10: module: command not found

*************** JDFTx 1.7.0  ***************

Start date and time: Thu May  8 19:53:06 2025
Executable /data2/jt577/jdftx_eat_withLibXC/build/jdftx with command-line: -i /data2/jt577/May_2025/Relax_Mag/rel13+1_6/OH/runs/calc_/run.in
Running on hosts (process indices):  node3406 (0-8)
Divided in process groups (process indices):  0 (0)  1 (1)  2 (2)  3 (3)  4 (4)  5 (5)  6 (6)  7 (7)  8 (8)
Resource initialization completed at t[s]:      0.00
Run totals: 9 processes, 90 threads, 0 GPUs


Input parsed successfully to the following command list (including defaults):

add-mix 
add-U 	Ni d 0.22 \
	V d 0.12 \
	Cr d 0.16 \
	Co d 0.2
basis kpoint-dependent
coords-type Lattice
core-overlap-check vector
coulomb-interaction Periodic
davidson-band-ratio 1.1
dump End IonicPositions Lattice Ecomponents
dump-name run.$VAR
elec-cutoff 30
elec-eigen-algo Davidson
elec-ex-corr gga-x-rpbe gga-c-pbe
elec-smearing Fermi 0.001
electronic-minimize  \
	dirUpdateScheme      FletcherReeves \
	linminMethod         DirUpdateRecommended \
	nIterations          1000 \
	history              15 \
	knormThreshold       0 \
	energyDiffThreshold  1e-06 \
	nEnergyDiff          5 \
	alphaTstart          1 \
	alphaTmin            1e-10 \
	updateTestStepSize   yes \
	alphaTreduceFactor   0.1 \
	alphaTincreaseFactor 3 \
	nAlphaAdjustMax      3 \
	wolfeEnergy          0.0001 \
	wolfeGradient        0.9 \
	fdTest               no
exchange-regularization WignerSeitzTruncated
fluid None
fluid-ex-corr (null) lda-PZ
fluid-gummel-loop 10 1.000000e-05
fluid-minimize  \
	dirUpdateScheme      PolakRibiere \
	linminMethod         DirUpdateRecommended \
	nIterations          100 \
	history              15 \
	knormThreshold       0 \
	energyDiffThreshold  0 \
	nEnergyDiff          2 \
	alphaTstart          1 \
	alphaTmin            1e-10 \
	updateTestStepSize   yes \
	alphaTreduceFactor   0.1 \
	alphaTincreaseFactor 3 \
	nAlphaAdjustMax      3 \
	wolfeEnergy          0.0001 \
	wolfeGradient        0.9 \
	fdTest               no
fluid-solvent H2O 55.338 ScalarEOS \
	epsBulk 78.4 \
	pMol 0.92466 \
	epsInf 1.77 \
	Pvap 1.06736e-10 \
	sigmaBulk 4.62e-05 \
	Rvdw 2.61727 \
	Res 1.42 \
	tauNuc 343133 \
	poleEl 15 7 1
forces-output-coords Positions
initial-magnetic-moments  \
	Ni 1 -1 -1 1 -1 1 \
	V -1 1 1 1 -1 -1 \
	Cr -1 \
	Co 1 -1 1
initial-state run.$VAR
ion Ni  0.000000000000000   0.000000000000000   0.150000000000000 1
ion Ni  0.000000000000000   0.000000000000000  -0.050000000000000 0
ion Ni  0.000000000000000   0.500000000000000  -0.050000000000000 0
ion Ni  0.500000000000000   0.500000000000000  -0.050000000000000 0
ion Ni  0.250000000000000   0.750000000000000  -0.150000000000000 0
ion Ni -0.250000000000000   0.250000000000000  -0.150000000000000 0
ion V  0.500000000000000   0.000000000000000   0.150000000000000 1
ion V  0.000000000000000   0.500000000000000   0.150000000000000 1
ion V  0.250000000000000   0.250000000000000   0.050000000000000 1
ion V  0.250000000000000   0.750000000000000   0.050000000000000 1
ion V -0.250000000000000   0.250000000000000   0.050000000000000 1
ion V -0.250000000000000   0.750000000000000   0.050000000000000 1
ion Cr  0.500000000000000   0.500000000000000   0.150000000000000 1
ion Co  0.500000000000000   0.000000000000000  -0.050000000000000 0
ion Co  0.250000000000000   0.250000000000000  -0.150000000000000 0
ion Co -0.250000000000000   0.750000000000000  -0.150000000000000 0
ion O  0.250000000000000   0.250000000000000   0.150000000000000 1
ion O  0.250000000000000   0.750000000000000   0.150000000000000 1
ion O -0.250000000000000   0.250000000000000   0.150000000000000 1
ion O -0.250000000000000   0.750000000000000   0.150000000000000 1
ion O  0.000000000000000   0.000000000000000   0.050000000000000 1
ion O  0.500000000000000   0.000000000000000   0.050000000000000 1
ion O  0.000000000000000   0.500000000000000   0.050000000000000 1
ion O  0.500000000000000   0.500000000000000   0.050000000000000 1
ion O  0.250000000000000   0.250000000000000  -0.050000000000000 0
ion O  0.250000000000000   0.750000000000000  -0.050000000000000 0
ion O -0.250000000000000   0.250000000000000  -0.050000000000000 0
ion O -0.250000000000000   0.750000000000000  -0.050000000000000 0
ion O  0.000000000000000   0.000000000000000  -0.150000000000000 0
ion O  0.500000000000000   0.000000000000000  -0.150000000000000 0
ion O  0.000000000000000   0.500000000000000  -0.150000000000000 0
ion O  0.500000000000000   0.500000000000000  -0.150000000000000 0
ion O -0.008040138212305  -0.008269777577920   0.235000196603227 1
ion H  0.095742872057713   0.094897636790041   0.252810710255288 1
ion-species SG15/$ID_ONCV_PBE.upf
ion-width 0
ionic-minimize  \
	dirUpdateScheme      L-BFGS \
	linminMethod         DirUpdateRecommended \
	nIterations          1000 \
	history              15 \
	knormThreshold       0.0001 \
	energyDiffThreshold  0.0001 \
	nEnergyDiff          3 \
	alphaTstart          1 \
	alphaTmin            1e-10 \
	updateTestStepSize   yes \
	alphaTreduceFactor   0.1 \
	alphaTincreaseFactor 3 \
	nAlphaAdjustMax      3 \
	wolfeEnergy          0.0001 \
	wolfeGradient        0.9 \
	fdTest               no
kpoint   0.500000000000   0.500000000000   0.500000000000  1.00000000000000
kpoint-folding 3 3 1 
latt-move-scale 1 1 1
latt-scale 1 1 1 
lattice  \
	   8.140000000000001    8.140000000000001    0.000000000000000  \
	   8.140000000000001   -8.140000000000001    0.000000000000000  \
	   0.000000000000000    0.000000000000000   40.700000000000003 
lattice-minimize  \
	dirUpdateScheme      L-BFGS \
	linminMethod         DirUpdateRecommended \
	nIterations          0 \
	history              15 \
	knormThreshold       0 \
	energyDiffThreshold  1e-06 \
	nEnergyDiff          2 \
	alphaTstart          1 \
	alphaTmin            1e-10 \
	updateTestStepSize   yes \
	alphaTreduceFactor   0.1 \
	alphaTincreaseFactor 3 \
	nAlphaAdjustMax      3 \
	wolfeEnergy          0.0001 \
	wolfeGradient        0.9 \
	fdTest               no
lcao-params -1 1e-06 0.001
pcm-variant GLSSA13
spintype z-spin
subspace-rotation-factor 1 yes
symmetries none
symmetry-threshold 0.0001


Applied RMS atom displacement 0 bohrs to make symmetries exact.

---------- Initializing the Grid ----------
R = 
[         8.14         8.14            0  ]
[         8.14        -8.14            0  ]
[            0            0         40.7  ]
unit cell volume = 5393.53
G =
[   0.385945   0.385945         -0  ]
[   0.385945  -0.385945         -0  ]
[         -0         -0   0.154378  ]
Minimum fftbox size, Smin = [  60  60  204  ]
Chosen fftbox size, S = [  60  60  210  ]

---------- Exchange Correlation functional ----------
Initialized LibXC exchange functional 'Hammer, Hansen, and Norskov'
Initialized LibXC correlation functional 'Perdew, Burke & Ernzerhof'

---------- Setting up pseudopotentials ----------
Width of ionic core gaussian charges (only for fluid interactions / plotting) set to 0

Reading pseudopotential file '/data2/jt577/jdftx_eat_withLibXC/build/pseudopotentials/SG15/Ni_ONCV_PBE.upf':
  'Ni' pseudopotential, 'PBE' functional
  Generated using ONCVPSP code by D. R. Hamann
  Author: Martin Schlipf and Francois Gygi  Date: 150915.
  18 valence electrons, 4 orbitals, 6 projectors, 1292 radial grid points, with lMax = 2
  Transforming local potential to a uniform radial grid of dG=0.02 with 1419 points.
  Transforming nonlocal projectors to a uniform radial grid of dG=0.02 with 528 points.
    3S    l: 0   occupation:  2.0   eigenvalue: -4.081355
    3P    l: 1   occupation:  6.0   eigenvalue: -2.623460
    4S    l: 0   occupation:  2.0   eigenvalue: -0.207378
    3D    l: 2   occupation:  8.0   eigenvalue: -0.326118
  Transforming atomic orbitals to a uniform radial grid of dG=0.02 with 528 points.
  WARNING: large normalization error in atomic orbital 1s (integral: 0.000006).
  Core radius for overlap checks: 1.99 bohrs.
  Reading pulay file /data2/jt577/jdftx_eat_withLibXC/build/pseudopotentials/SG15/Ni_ONCV_PBE.pulay ... using dE_dnG = -7.250568e-04 computed for Ecut = 30.

Reading pseudopotential file '/data2/jt577/jdftx_eat_withLibXC/build/pseudopotentials/SG15/V_ONCV_PBE.upf':
  'V' pseudopotential, 'PBE' functional
  Generated using ONCVPSP code by D. R. Hamann
  Author: Martin Schlipf and Francois Gygi  Date: 150915.
  13 valence electrons, 4 orbitals, 6 projectors, 1536 radial grid points, with lMax = 2
  Transforming local potential to a uniform radial grid of dG=0.02 with 1419 points.
  Transforming nonlocal projectors to a uniform radial grid of dG=0.02 with 528 points.
    3S    l: 0   occupation:  2.0   eigenvalue: -2.581105
    3P    l: 1   occupation:  6.0   eigenvalue: -1.618486
    4S    l: 0   occupation:  2.0   eigenvalue: -0.172804
    3D    l: 2   occupation:  3.0   eigenvalue: -0.189795
  Transforming atomic orbitals to a uniform radial grid of dG=0.02 with 528 points.
  Core radius for overlap checks: 1.80 bohrs.
  Reading pulay file /data2/jt577/jdftx_eat_withLibXC/build/pseudopotentials/SG15/V_ONCV_PBE.pulay ... using dE_dnG = -1.698632e-04 computed for Ecut = 30.

Reading pseudopotential file '/data2/jt577/jdftx_eat_withLibXC/build/pseudopotentials/SG15/Cr_ONCV_PBE.upf':
  'Cr' pseudopotential, 'PBE' functional
  Generated using ONCVPSP code by D. R. Hamann
  Author: Martin Schlipf and Francois Gygi  Date: 150915.
  14 valence electrons, 4 orbitals, 6 projectors, 1160 radial grid points, with lMax = 2
  Transforming local potential to a uniform radial grid of dG=0.02 with 1419 points.
  Transforming nonlocal projectors to a uniform radial grid of dG=0.02 with 528 points.
    3S    l: 0   occupation:  2.0   eigenvalue: -2.865131
    3P    l: 1   occupation:  6.0   eigenvalue: -1.810600
    4S    l: 0   occupation:  2.0   eigenvalue: -0.180525
    3D    l: 2   occupation:  4.0   eigenvalue: -0.220312
  Transforming atomic orbitals to a uniform radial grid of dG=0.02 with 528 points.
  WARNING: large normalization error in atomic orbital 1s (integral: 0.000001).
  Core radius for overlap checks: 2.10 bohrs.
  Reading pulay file /data2/jt577/jdftx_eat_withLibXC/build/pseudopotentials/SG15/Cr_ONCV_PBE.pulay ... using dE_dnG = -9.817895e-06 computed for Ecut = 30.

Reading pseudopotential file '/data2/jt577/jdftx_eat_withLibXC/build/pseudopotentials/SG15/Co_ONCV_PBE.upf':
  'Co' pseudopotential, 'PBE' functional
  Generated using ONCVPSP code by D. R. Hamann
  Author: Martin Schlipf and Francois Gygi  Date: 150915.
  17 valence electrons, 4 orbitals, 6 projectors, 1388 radial grid points, with lMax = 2
  Transforming local potential to a uniform radial grid of dG=0.02 with 1419 points.
  Transforming nonlocal projectors to a uniform radial grid of dG=0.02 with 528 points.
    3S    l: 0   occupation:  2.0   eigenvalue: -3.763303
    3P    l: 1   occupation:  6.0   eigenvalue: -2.412101
    4S    l: 0   occupation:  2.0   eigenvalue: -0.201022
    3D    l: 2   occupation:  7.0   eigenvalue: -0.301498
  Transforming atomic orbitals to a uniform radial grid of dG=0.02 with 528 points.
  Core radius for overlap checks: 1.94 bohrs.
  Reading pulay file /data2/jt577/jdftx_eat_withLibXC/build/pseudopotentials/SG15/Co_ONCV_PBE.pulay ... using dE_dnG = -9.787391e-05 computed for Ecut = 30.

Reading pseudopotential file '/data2/jt577/jdftx_eat_withLibXC/build/pseudopotentials/SG15/O_ONCV_PBE.upf':
  'O' pseudopotential, 'PBE' functional
  Generated using ONCVPSP code by D. R. Hamann
  Author: Martin Schlipf and Francois Gygi  Date: 150915.
  6 valence electrons, 2 orbitals, 4 projectors, 936 radial grid points, with lMax = 1
  Transforming local potential to a uniform radial grid of dG=0.02 with 1419 points.
  Transforming nonlocal projectors to a uniform radial grid of dG=0.02 with 528 points.
    2S    l: 0   occupation:  2.0   eigenvalue: -0.880572
    2P    l: 1   occupation:  4.0   eigenvalue: -0.331869
  Transforming atomic orbitals to a uniform radial grid of dG=0.02 with 528 points.
  Core radius for overlap checks: 1.29 bohrs.
  Reading pulay file /data2/jt577/jdftx_eat_withLibXC/build/pseudopotentials/SG15/O_ONCV_PBE.pulay ... using dE_dnG = -8.209514e-03 computed for Ecut = 30.

Reading pseudopotential file '/data2/jt577/jdftx_eat_withLibXC/build/pseudopotentials/SG15/H_ONCV_PBE.upf':
  'H' pseudopotential, 'PBE' functional
  Generated using ONCVPSP code by D. R. Hamann
  Author: Martin Schlipf and Francois Gygi  Date: 150915.
  1 valence electrons, 1 orbitals, 2 projectors, 1166 radial grid points, with lMax = 0
  Transforming local potential to a uniform radial grid of dG=0.02 with 1419 points.
  Transforming nonlocal projectors to a uniform radial grid of dG=0.02 with 528 points.
    1S    l: 0   occupation:  1.0   eigenvalue: -0.238602
  Transforming atomic orbitals to a uniform radial grid of dG=0.02 with 528 points.
  Core radius for overlap checks: 1.01 bohrs.
  Reading pulay file /data2/jt577/jdftx_eat_withLibXC/build/pseudopotentials/SG15/H_ONCV_PBE.pulay ... using dE_dnG = -8.245991e-05 computed for Ecut = 30.

Initialized 6 species with 34 total atoms.

Folded 1 k-points by 3x3x1 to 9 k-points.

---------- Setting up k-points, bands, fillings ----------
No reducable k-points. 
Computing the number of bands and number of electrons
Calculating initial fillings.
nElectrons: 354.000000   nBands: 229   nStates: 18

----- Setting up reduced wavefunction bases (one per k-point) -----
average nbasis = 42312.000 , ideal nbasis = 42330.081

---------- Setting up ewald sum ----------
Optimum gaussian width for ewald sums = 3.887061 bohr.
Real space sum over 605 unit cells with max indices [  5  5  2  ]
Reciprocal space sum over 5915 terms with max indices [  6  6  17  ]

---------- Allocating electronic variables ----------
Initializing wave functions:  linear combination of atomic orbitals
Ni (M=1) pseudo-atom majority spin occupations:   s ( 1 0.5 )  p ( 3 )  d ( 5 )
Ni (M=1) pseudo-atom minority spin occupations:   s ( 1 0 )  p ( 3 )  d ( 4.5 )
V (M=1) pseudo-atom majority spin occupations:   s ( 1 0 )  p ( 3 )  d ( 3 )
V (M=1) pseudo-atom minority spin occupations:   s ( 1 0 )  p ( 3 )  d ( 2 )
Cr (M=1) pseudo-atom majority spin occupations:   s ( 1 0 )  p ( 3 )  d ( 3.5 )
Cr (M=1) pseudo-atom minority spin occupations:   s ( 1 0 )  p ( 3 )  d ( 2.5 )
Co (M=1) pseudo-atom majority spin occupations:   s ( 1 0 )  p ( 3 )  d ( 5 )
Co (M=1) pseudo-atom minority spin occupations:   s ( 1 0 )  p ( 3 )  d ( 4 )
O pseudo-atom occupations:   s ( 2 )  p ( 4 )
H pseudo-atom occupations:   s ( 1 )
	FillingsUpdate:  mu: +0.642123309  nElectrons: 354.000000  magneticMoment: [ Abs: 0.81353  Tot: +0.00000 ]
LCAOMinimize: Iter:   0  F: -1950.7332581584767013  |grad|_K:  1.196e-02  alpha:  1.000e+00
	FillingsUpdate:  mu: +1.710824720  nElectrons: 354.000000  magneticMoment: [ Abs: 5.35665  Tot: -0.00000 ]
LCAOMinimize: Iter:   1  F: -1971.8596514657215266  |grad|_K:  6.533e-02  alpha:  9.524e-02  linmin:  1.565e-01  cgtest: -9.942e-03  t[s]:     43.32
LCAOMinimize: 	Bad step direction: g.d > 0.
LCAOMinimize: 	Undoing step.
LCAOMinimize: 	Step failed: resetting search direction.
	FillingsUpdate:  mu: +1.710824720  nElectrons: 354.000000  magneticMoment: [ Abs: 5.35665  Tot: -0.00000 ]
LCAOMinimize: Iter:   2  F: -1971.8596514657215266  |grad|_K:  6.533e-02  alpha:  0.000e+00
	FillingsUpdate:  mu: +0.404827697  nElectrons: 354.000000  magneticMoment: [ Abs: 2.31136  Tot: +0.00000 ]
LCAOMinimize: Iter:   3  F: -1985.1317600627553475  |grad|_K:  2.557e-02  alpha:  4.814e-02  linmin:  5.875e-02  cgtest: -9.069e-01  t[s]:     68.07
	FillingsUpdate:  mu: +0.526280026  nElectrons: 354.000000  magneticMoment: [ Abs: 4.67018  Tot: +0.00000 ]
LCAOMinimize: Iter:   4  F: -1990.9683615725061827  |grad|_K:  4.605e-02  alpha:  2.815e-02  linmin:  1.375e-04  cgtest:  6.304e-01  t[s]:     82.48
	FillingsUpdate:  mu: +0.240274740  nElectrons: 354.000000  magneticMoment: [ Abs: 11.61557  Tot: -0.00000 ]
LCAOMinimize: Iter:   5  F: -1994.4027425380061231  |grad|_K:  2.183e-02  alpha:  1.481e-02  linmin: -3.291e-03  cgtest:  1.037e+00  t[s]:     97.42
LCAOMinimize: Encountered beta<0, resetting CG.
LCAOMinimize: 	Wrong curvature in test step, increasing alphaT to 4.441809e-02.
	FillingsUpdate:  mu: -0.088270717  nElectrons: 354.000000  magneticMoment: [ Abs: 9.07398  Tot: -0.00000 ]
LCAOMinimize: Iter:   6  F: -2002.2175845607041538  |grad|_K:  2.324e-02  alpha: -4.526e-02  linmin: -1.164e-01  cgtest:  2.063e-01  t[s]:    111.16
LCAOMinimize: 	Step increased F by 1.692569e+02, reducing alpha to 3.672245e-02.
LCAOMinimize: 	Step increased F by 1.062545e+00, reducing alpha to 3.672245e-03.
	FillingsUpdate:  mu: -0.021031875  nElectrons: 354.000000  magneticMoment: [ Abs: 9.82029  Tot: +0.00000 ]
LCAOMinimize: Iter:   7  F: -2006.1038342648948856  |grad|_K:  1.884e-02  alpha:  3.672e-03  linmin: -6.929e-02  cgtest:  8.793e-01  t[s]:    147.00
LCAOMinimize: Encountered beta<0, resetting CG.
LCAOMinimize: 	Predicted alpha/alphaT>3.000000, increasing alphaT to 1.101673e-02.
LCAOMinimize: 	Predicted alpha/alphaT>3.000000, increasing alphaT to 3.305020e-02.
	FillingsUpdate:  mu: +0.155385181  nElectrons: 354.000000  magneticMoment: [ Abs: 10.54661  Tot: +0.00000 ]
LCAOMinimize: Iter:   8  F: -2010.2071357685072144  |grad|_K:  9.948e-03  alpha:  2.495e-02  linmin: -2.893e-02  cgtest: -2.941e-01  t[s]:    170.24
LCAOMinimize: 	Predicted alpha/alphaT>3.000000, increasing alphaT to 7.484203e-02.
LCAOMinimize: 	Step increased F by 3.447179e+00, reducing alpha to 9.167275e-03.
	FillingsUpdate:  mu: +0.147684444  nElectrons: 354.000000  magneticMoment: [ Abs: 10.56607  Tot: +0.00000 ]
LCAOMinimize: Iter:   9  F: -2011.1506781867708469  |grad|_K:  9.373e-03  alpha:  9.167e-03  linmin: -9.369e-02  cgtest:  9.852e-01  t[s]:    199.74
LCAOMinimize: Encountered beta<0, resetting CG.
LCAOMinimize: 	Predicted alpha/alphaT>3.000000, increasing alphaT to 2.750182e-02.
LCAOMinimize: 	Wrong curvature in test step, increasing alphaT to 8.250547e-02.
	FillingsUpdate:  mu: +0.024023613  nElectrons: 354.000000  magneticMoment: [ Abs: 10.11198  Tot: -0.00000 ]
LCAOMinimize: Iter:  10  F: -2013.4719400782216780  |grad|_K:  8.566e-03  alpha: -1.520e+00  linmin: -9.814e-02  cgtest:  7.369e-01  t[s]:    217.79
LCAOMinimize: 	Step increased F by 1.901167e+01, reducing alpha to 1.385515e-02.
	FillingsUpdate:  mu: +0.028273577  nElectrons: 354.000000  magneticMoment: [ Abs: 10.22167  Tot: -0.00000 ]
LCAOMinimize: Iter:  11  F: -2014.6515484042097341  |grad|_K:  8.476e-03  alpha:  1.386e-02  linmin: -1.130e-01  cgtest:  8.853e-01  t[s]:    243.30
LCAOMinimize: 	Wrong curvature in test step, increasing alphaT to 4.156545e-02.
	FillingsUpdate:  mu: +0.062753552  nElectrons: 354.000000  magneticMoment: [ Abs: 10.76081  Tot: +0.00000 ]
LCAOMinimize: Iter:  12  F: -2015.9568164221857387  |grad|_K:  8.342e-03  alpha: -3.293e-02  linmin: -1.048e-01  cgtest:  8.419e-01  t[s]:    256.96
LCAOMinimize: 	Step increased F by 1.752768e+01, reducing alpha to 1.310170e-02.
	FillingsUpdate:  mu: +0.087431528  nElectrons: 354.000000  magneticMoment: [ Abs: 10.86266  Tot: -0.00000 ]
LCAOMinimize: Iter:  13  F: -2016.9875809486786693  |grad|_K:  7.872e-03  alpha:  1.310e-02  linmin: -1.004e-01  cgtest:  8.769e-01  t[s]:    282.03
LCAOMinimize: 	Predicted alpha/alphaT>3.000000, increasing alphaT to 3.930509e-02.
LCAOMinimize: 	Step increased F by 4.476255e+00, reducing alpha to 1.099649e-02.
	FillingsUpdate:  mu: +0.091013643  nElectrons: 354.000000  magneticMoment: [ Abs: 10.73481  Tot: -0.00000 ]
LCAOMinimize: Iter:  14  F: -2017.6706479876122557  |grad|_K:  6.929e-03  alpha:  1.100e-02  linmin: -1.145e-01  cgtest:  9.691e-01  t[s]:    311.22
LCAOMinimize: Encountered beta<0, resetting CG.
LCAOMinimize: 	Predicted alpha/alphaT>3.000000, increasing alphaT to 3.298947e-02.
LCAOMinimize: 	Predicted alpha/alphaT>3.000000, increasing alphaT to 9.896840e-02.
	FillingsUpdate:  mu: +0.051257588  nElectrons: 354.000000  magneticMoment: [ Abs: 10.38382  Tot: -0.00000 ]
LCAOMinimize: Iter:  15  F: -2018.9641985546791147  |grad|_K:  5.370e-03  alpha:  3.131e-02  linmin: -1.530e-01  cgtest:  8.847e-01  t[s]:    334.45
LCAOMinimize: Encountered beta<0, resetting CG.
LCAOMinimize: 	Predicted alpha/alphaT>3.000000, increasing alphaT to 9.394304e-02.
	FillingsUpdate:  mu: +0.040860161  nElectrons: 354.000000  magneticMoment: [ Abs: 10.63486  Tot: +0.00000 ]
LCAOMinimize: Iter:  16  F: -2019.9696033724094377  |grad|_K:  3.728e-03  alpha:  3.920e-02  linmin: -8.344e-02  cgtest:  6.663e-01  t[s]:    353.34
	FillingsUpdate:  mu: +0.147629369  nElectrons: 354.000000  magneticMoment: [ Abs: 10.69790  Tot: -0.00000 ]
LCAOMinimize: Iter:  17  F: -2020.1903527520755688  |grad|_K:  8.343e-03  alpha:  4.268e-02  linmin:  3.970e-02  cgtest: -4.793e-02  t[s]:    367.94
LCAOMinimize: 	Bad step direction: g.d > 0.
LCAOMinimize: 	Undoing step.
LCAOMinimize: 	Step failed: resetting search direction.
	FillingsUpdate:  mu: +0.147629369  nElectrons: 354.000000  magneticMoment: [ Abs: 10.69790  Tot: -0.00000 ]
LCAOMinimize: Iter:  18  F: -2020.1903527520737498  |grad|_K:  8.343e-03  alpha:  0.000e+00
	FillingsUpdate:  mu: +0.103987973  nElectrons: 354.000000  magneticMoment: [ Abs: 11.25862  Tot: -0.00000 ]
LCAOMinimize: Iter:  19  F: -2020.4233984136285471  |grad|_K:  3.870e-03  alpha:  1.307e-02  linmin:  5.494e-02  cgtest: -8.265e-01  t[s]:    392.99
LCAOMinimize: 	Predicted alpha/alphaT>3.000000, increasing alphaT to 3.922396e-02.
	FillingsUpdate:  mu: +0.077803487  nElectrons: 354.000000  magneticMoment: [ Abs: 12.00518  Tot: +0.00000 ]
LCAOMinimize: Iter:  20  F: -2020.5774717863021124  |grad|_K:  5.578e-03  alpha:  7.763e-02  linmin:  5.603e-03  cgtest:  9.963e-01  t[s]:    411.83
	FillingsUpdate:  mu: +0.016742905  nElectrons: 354.000000  magneticMoment: [ Abs: 11.86170  Tot: -0.00000 ]
LCAOMinimize: Iter:  21  F: -2020.7568159115448907  |grad|_K:  2.516e-03  alpha:  9.503e-03  linmin: -5.904e-02  cgtest:  7.595e-01  t[s]:    426.42
LCAOMinimize: Encountered beta<0, resetting CG.
LCAOMinimize: 	Predicted alpha/alphaT>3.000000, increasing alphaT to 2.851003e-02.
	FillingsUpdate:  mu: +0.048187839  nElectrons: 354.000000  magneticMoment: [ Abs: 12.00146  Tot: +0.00000 ]
LCAOMinimize: Iter:  22  F: -2020.8299921631903544  |grad|_K:  1.443e-03  alpha:  1.547e-02  linmin: -5.176e-02  cgtest:  3.747e-01  t[s]:    445.07
	FillingsUpdate:  mu: +0.075567512  nElectrons: 354.000000  magneticMoment: [ Abs: 12.45045  Tot: +0.00000 ]
LCAOMinimize: Iter:  23  F: -2020.8551915740563345  |grad|_K:  1.487e-03  alpha:  2.445e-02  linmin:  7.333e-03  cgtest:  8.124e-02  t[s]:    459.68
	FillingsUpdate:  mu: +0.080798502  nElectrons: 354.000000  magneticMoment: [ Abs: 13.29725  Tot: -0.00000 ]
LCAOMinimize: Iter:  24  F: -2020.8956154563070413  |grad|_K:  2.142e-03  alpha:  4.772e-02  linmin:  4.771e-04  cgtest:  4.009e-01  t[s]:    474.30
	FillingsUpdate:  mu: +0.049249627  nElectrons: 354.000000  magneticMoment: [ Abs: 13.87591  Tot: -0.00000 ]
LCAOMinimize: Iter:  25  F: -2020.9497441416310721  |grad|_K:  1.461e-03  alpha:  2.592e-02  linmin:  6.612e-04  cgtest: -1.680e-01  t[s]:    488.85
LCAOMinimize: 	Predicted alpha/alphaT>3.000000, increasing alphaT to 7.776851e-02.
	FillingsUpdate:  mu: +0.076749303  nElectrons: 354.000000  magneticMoment: [ Abs: 15.20937  Tot: +0.00000 ]
LCAOMinimize: Iter:  26  F: -2021.0055592064568373  |grad|_K:  1.317e-03  alpha:  5.029e-02  linmin:  9.869e-04  cgtest: -7.920e-02  t[s]:    507.55
	FillingsUpdate:  mu: +0.075343473  nElectrons: 354.000000  magneticMoment: [ Abs: 15.68825  Tot: +0.00000 ]
LCAOMinimize: Iter:  27  F: -2021.0271024614764883  |grad|_K:  1.365e-03  alpha:  2.895e-02  linmin:  6.240e-05  cgtest: -6.778e-02  t[s]:    522.06
	FillingsUpdate:  mu: +0.060986867  nElectrons: 354.000000  magneticMoment: [ Abs: 16.68334  Tot: -0.00000 ]
LCAOMinimize: Iter:  28  F: -2021.0627329588362500  |grad|_K:  1.168e-03  alpha:  4.017e-02  linmin: -2.394e-04  cgtest: -1.712e-01  t[s]:    536.48
	FillingsUpdate:  mu: +0.067096277  nElectrons: 354.000000  magneticMoment: [ Abs: 17.33288  Tot: -0.00000 ]
LCAOMinimize: Iter:  29  F: -2021.0819125640218772  |grad|_K:  1.205e-03  alpha:  2.846e-02  linmin:  3.498e-05  cgtest:  1.129e-01  t[s]:    551.04
	FillingsUpdate:  mu: +0.063572644  nElectrons: 354.000000  magneticMoment: [ Abs: 18.54998  Tot: -0.00000 ]
LCAOMinimize: Iter:  30  F: -2021.1140757797497827  |grad|_K:  1.015e-03  alpha:  4.400e-02  linmin: -2.650e-03  cgtest:  4.256e-01  t[s]:    565.39
LCAOMinimize: None of the convergence criteria satisfied after 30 iterations.


---- Citations for features of the code used in this run ----

   Software package:
      R. Sundararaman, K. Letchworth-Weaver, K.A. Schwarz, D. Gunceler, Y. Ozhabes and T.A. Arias, 'JDFTx: software for joint density-functional theory', SoftwareX 6, 278 (2017)

   Simplified rotationally-invariant DFT+U:
      S. L. Dudarev et al., Phys. Rev. B 57, 1505 (1998)

   LibXC library of exchange-correlation functions:
      M. A. L. Marques, M. J. T. Oliveira and T. Burnus, Comput. Phys. Commun. 183, 2272 (2012)

   Hammer, Hansen, and Norskov exchange functional:
      B. Hammer, L. B. Hansen, and J. K. Nørskov, Phys. Rev. B 59, 7413 (1999)

   Perdew, Burke & Ernzerhof correlation functional:
      J. P. Perdew, K. Burke, and M. Ernzerhof, Phys. Rev. Lett. 77, 3865 (1996)

   Pseudopotentials:
      M Schlipf and F Gygi, Comput. Phys. Commun. 196, 36 (2015)

   Total energy minimization with Auxiliary Hamiltonian:
      C. Freysoldt, S. Boeck, and J. Neugebauer, Phys. Rev. B 79, 241103(R) (2009)

This list may not be complete. Please suggest additional citations or
report any other bugs at https://github.com/shankar1729/jdftx/issues

Initialization completed successfully at t[s]:    571.74


-------- Electronic minimization -----------
	FillingsUpdate:  mu: +0.063572655  nElectrons: 354.000000  magneticMoment: [ Abs: 18.54998  Tot: -0.00000 ]
ElecMinimize: Iter:   0  F: -2021.114075779752966  |grad|_K:  1.045e-03  alpha:  1.000e+00
	FillingsUpdate:  mu: +0.584266153  nElectrons: 354.000000  magneticMoment: [ Abs: 18.69125  Tot: -0.00000 ]
	SubspaceRotationAdjust: set factor to 0.993
ElecMinimize: Iter:   1  F: -2071.148114178409742  |grad|_K:  1.320e-03  alpha:  4.761e-01  linmin:  9.070e-03  t[s]:    663.24
	FillingsUpdate:  mu: +0.885883521  nElectrons: 354.000000  magneticMoment: [ Abs: 20.94950  Tot: -0.00000 ]
	SubspaceRotationAdjust: set factor to 0.619
ElecMinimize: Iter:   2  F: -2073.941041401662915  |grad|_K:  1.724e-03  alpha:  6.797e-02  linmin:  5.360e-03  t[s]:    738.37
	FillingsUpdate:  mu: +0.186717180  nElectrons: 354.000000  magneticMoment: [ Abs: 20.15503  Tot: +0.00000 ]
	SubspaceRotationAdjust: set factor to 0.515
ElecMinimize: Iter:   3  F: -2082.077721155897507  |grad|_K:  7.296e-04  alpha:  3.602e-02  linmin:  3.125e-04  t[s]:    812.66
	FillingsUpdate:  mu: +0.687886332  nElectrons: 354.000000  magneticMoment: [ Abs: 21.97241  Tot: +0.00000 ]
	SubspaceRotationAdjust: set factor to 0.372
ElecMinimize: Iter:   4  F: -2093.400990268542500  |grad|_K:  8.459e-04  alpha:  1.072e-01  linmin: -1.670e-03  t[s]:    887.09
	FillingsUpdate:  mu: +0.401529274  nElectrons: 354.000000  magneticMoment: [ Abs: 23.58757  Tot: -0.00000 ]
	SubspaceRotationAdjust: set factor to 0.338
ElecMinimize: Iter:   5  F: -2100.845523796321231  |grad|_K:  4.251e-04  alpha:  2.842e-02  linmin: -2.577e-03  t[s]:    960.50
ElecMinimize: 	Predicted alpha/alphaT>3.000000, increasing alphaT to 8.526276e-02.
	FillingsUpdate:  mu: +0.498625524  nElectrons: 354.000000  magneticMoment: [ Abs: 23.85862  Tot: -0.00000 ]
	SubspaceRotationAdjust: set factor to 0.226
ElecMinimize: Iter:   6  F: -2105.461209554474408  |grad|_K:  5.650e-04  alpha:  1.045e-01  linmin:  1.963e-04  t[s]:   1068.31
	FillingsUpdate:  mu: +0.496429889  nElectrons: 354.000000  magneticMoment: [ Abs: 24.11461  Tot: +0.00000 ]
	SubspaceRotationAdjust: set factor to 0.189
ElecMinimize: Iter:   7  F: -2106.804758615669925  |grad|_K:  4.172e-04  alpha:  1.686e-02  linmin: -2.283e-03  t[s]:   1139.66
	FillingsUpdate:  mu: +0.344889444  nElectrons: 354.000000  magneticMoment: [ Abs: 24.60874  Tot: +0.00000 ]
	SubspaceRotationAdjust: set factor to 0.288
ElecMinimize: Iter:   8  F: -2108.436792970238002  |grad|_K:  2.912e-04  alpha:  3.609e-02  linmin: -5.218e-04  t[s]:   1218.79
	FillingsUpdate:  mu: +0.304772775  nElectrons: 354.000000  magneticMoment: [ Abs: 24.30974  Tot: -0.00000 ]
	SubspaceRotationAdjust: set factor to 0.307
ElecMinimize: Iter:   9  F: -2109.102669171616071  |grad|_K:  2.853e-04  alpha:  4.221e-02  linmin:  1.177e-03  t[s]:   1297.50
	FillingsUpdate:  mu: +0.337120675  nElectrons: 354.000000  magneticMoment: [ Abs: 24.28020  Tot: +0.00000 ]
	SubspaceRotationAdjust: set factor to 0.234
ElecMinimize: Iter:  10  F: -2109.412184049047482  |grad|_K:  3.147e-04  alpha:  3.240e-02  linmin: -2.201e-04  t[s]:   1373.02
	FillingsUpdate:  mu: +0.256233341  nElectrons: 354.000000  magneticMoment: [ Abs: 24.19251  Tot: -0.00000 ]
	SubspaceRotationAdjust: set factor to 0.238
ElecMinimize: Iter:  11  F: -2110.064799372878042  |grad|_K:  2.398e-04  alpha:  3.594e-02  linmin:  3.192e-04  t[s]:   1451.79
	FillingsUpdate:  mu: +0.185828254  nElectrons: 354.000000  magneticMoment: [ Abs: 24.43085  Tot: +0.00000 ]
	SubspaceRotationAdjust: set factor to 0.322
ElecMinimize: Iter:  12  F: -2110.336468827955741  |grad|_K:  1.967e-04  alpha:  3.039e-02  linmin: -7.385e-05  t[s]:   1528.31
	FillingsUpdate:  mu: +0.187723818  nElectrons: 354.000000  magneticMoment: [ Abs: 24.66693  Tot: +0.00000 ]
	SubspaceRotationAdjust: set factor to 0.359
ElecMinimize: Iter:  13  F: -2110.653468270067606  |grad|_K:  2.096e-04  alpha:  4.596e-02  linmin:  8.069e-05  t[s]:   1604.68
	FillingsUpdate:  mu: +0.242998427  nElectrons: 354.000000  magneticMoment: [ Abs: 25.11672  Tot: +0.00000 ]
	SubspaceRotationAdjust: set factor to 0.258
ElecMinimize: Iter:  14  F: -2110.895218328004376  |grad|_K:  2.589e-04  alpha:  3.322e-02  linmin:  3.126e-05  t[s]:   1679.88
	FillingsUpdate:  mu: +0.189105790  nElectrons: 354.000000  magneticMoment: [ Abs: 25.30587  Tot: -0.00000 ]
	SubspaceRotationAdjust: set factor to 0.29
ElecMinimize: Iter:  15  F: -2111.219054685351693  |grad|_K:  1.875e-04  alpha:  2.777e-02  linmin:  2.176e-05  t[s]:   1754.84
	FillingsUpdate:  mu: +0.148134746  nElectrons: 354.000000  magneticMoment: [ Abs: 25.15318  Tot: -0.00000 ]
	SubspaceRotationAdjust: set factor to 0.348
ElecMinimize: Iter:  16  F: -2111.385469065877714  |grad|_K:  1.573e-04  alpha:  2.732e-02  linmin:  1.213e-04  t[s]:   1832.85
	FillingsUpdate:  mu: +0.146863999  nElectrons: 354.000000  magneticMoment: [ Abs: 25.11004  Tot: +0.00000 ]
	SubspaceRotationAdjust: set factor to 0.378
ElecMinimize: Iter:  17  F: -2111.493963456580786  |grad|_K:  1.764e-04  alpha:  2.720e-02  linmin: -2.429e-05  t[s]:   1910.88
	FillingsUpdate:  mu: +0.169361745  nElectrons: 354.000000  magneticMoment: [ Abs: 25.25837  Tot: -0.00000 ]
	SubspaceRotationAdjust: set factor to 0.276
ElecMinimize: Iter:  18  F: -2111.675153526302438  |grad|_K:  2.035e-04  alpha:  3.255e-02  linmin: -3.219e-05  t[s]:   1987.86
	FillingsUpdate:  mu: +0.142918101  nElectrons: 354.000000  magneticMoment: [ Abs: 25.60863  Tot: -0.00000 ]
	SubspaceRotationAdjust: set factor to 0.278
ElecMinimize: Iter:  19  F: -2111.856788164504451  |grad|_K:  1.568e-04  alpha:  2.395e-02  linmin:  1.987e-05  t[s]:   2062.91
	FillingsUpdate:  mu: +0.133582049  nElectrons: 354.000000  magneticMoment: [ Abs: 25.86600  Tot: +0.00000 ]
	SubspaceRotationAdjust: set factor to 0.372
ElecMinimize: Iter:  20  F: -2111.956408360484147  |grad|_K:  1.276e-04  alpha:  2.351e-02  linmin:  1.384e-05  t[s]:   2136.82
	FillingsUpdate:  mu: +0.102635662  nElectrons: 354.000000  magneticMoment: [ Abs: 26.20834  Tot: -0.00000 ]
	SubspaceRotationAdjust: set factor to 0.404
ElecMinimize: Iter:  21  F: -2112.035271165969334  |grad|_K:  1.367e-04  alpha:  2.805e-02  linmin:  6.817e-06  t[s]:   2212.97
	FillingsUpdate:  mu: +0.138366184  nElectrons: 354.000000  magneticMoment: [ Abs: 26.83434  Tot: -0.00000 ]
	SubspaceRotationAdjust: set factor to 0.299
ElecMinimize: Iter:  22  F: -2112.131780399570289  |grad|_K:  1.723e-04  alpha:  2.984e-02  linmin:  3.841e-05  t[s]:   2288.10
	FillingsUpdate:  mu: +0.170094852  nElectrons: 354.000000  magneticMoment: [ Abs: 27.58739  Tot: -0.00000 ]
	SubspaceRotationAdjust: set factor to 0.266
ElecMinimize: Iter:  23  F: -2112.251443817776817  |grad|_K:  1.411e-04  alpha:  2.410e-02  linmin: -1.057e-05  t[s]:   2364.64
	FillingsUpdate:  mu: +0.137345421  nElectrons: 354.000000  magneticMoment: [ Abs: 27.85296  Tot: +0.00000 ]
	SubspaceRotationAdjust: set factor to 0.418
ElecMinimize: Iter:  24  F: -2112.351241364439375  |grad|_K:  1.121e-04  alpha:  2.809e-02  linmin: -3.990e-05  t[s]:   2442.70
	FillingsUpdate:  mu: +0.152882308  nElectrons: 354.000000  magneticMoment: [ Abs: 27.90283  Tot: -0.00000 ]
	SubspaceRotationAdjust: set factor to 0.451
ElecMinimize: Iter:  25  F: -2112.430231403483504  |grad|_K:  1.075e-04  alpha:  3.442e-02  linmin: -1.179e-05  t[s]:   2520.94
	FillingsUpdate:  mu: +0.175572343  nElectrons: 354.000000  magneticMoment: [ Abs: 27.80920  Tot: -0.00000 ]
	SubspaceRotationAdjust: set factor to 0.447
ElecMinimize: Iter:  26  F: -2112.511956826401274  |grad|_K:  1.236e-04  alpha:  4.050e-02  linmin:  5.344e-05  t[s]:   2598.72
	FillingsUpdate:  mu: +0.152828112  nElectrons: 354.000000  magneticMoment: [ Abs: 27.85070  Tot: -0.00000 ]
	SubspaceRotationAdjust: set factor to 0.526
ElecMinimize: Iter:  27  F: -2112.592679153136487  |grad|_K:  1.118e-04  alpha:  3.275e-02  linmin: -2.550e-05  t[s]:   2676.83
	FillingsUpdate:  mu: +0.115437795  nElectrons: 354.000000  magneticMoment: [ Abs: 28.05971  Tot: -0.00000 ]
	SubspaceRotationAdjust: set factor to 0.604
ElecMinimize: Iter:  28  F: -2112.653876855207272  |grad|_K:  9.976e-05  alpha:  2.650e-02  linmin:  3.352e-05  t[s]:   2756.03
	FillingsUpdate:  mu: +0.129703116  nElectrons: 354.000000  magneticMoment: [ Abs: 28.33377  Tot: -0.00000 ]
	SubspaceRotationAdjust: set factor to 0.494
ElecMinimize: Iter:  29  F: -2112.695479178236837  |grad|_K:  1.230e-04  alpha:  2.447e-02  linmin:  6.454e-05  t[s]:   2833.05
	FillingsUpdate:  mu: +0.136502327  nElectrons: 354.000000  magneticMoment: [ Abs: 28.70875  Tot: +0.00000 ]
	SubspaceRotationAdjust: set factor to 0.34
ElecMinimize: Iter:  30  F: -2112.738234651951643  |grad|_K:  1.352e-04  alpha:  1.713e-02  linmin:  6.475e-06  t[s]:   2910.75
	FillingsUpdate:  mu: +0.131885460  nElectrons: 354.000000  magneticMoment: [ Abs: 29.10110  Tot: +0.00000 ]
	SubspaceRotationAdjust: set factor to 0.294
ElecMinimize: Iter:  31  F: -2112.783198096097749  |grad|_K:  1.049e-04  alpha:  1.378e-02  linmin:  1.823e-05  t[s]:   2985.99
	FillingsUpdate:  mu: +0.113329231  nElectrons: 354.000000  magneticMoment: [ Abs: 29.23356  Tot: +0.00000 ]
	SubspaceRotationAdjust: set factor to 0.384
ElecMinimize: Iter:  32  F: -2112.804996212165406  |grad|_K:  8.464e-05  alpha:  1.112e-02  linmin:  3.017e-05  t[s]:   3064.39
	FillingsUpdate:  mu: +0.097571026  nElectrons: 354.000000  magneticMoment: [ Abs: 29.25922  Tot: +0.00000 ]
	SubspaceRotationAdjust: set factor to 0.519
ElecMinimize: Iter:  33  F: -2112.815335313833202  |grad|_K:  7.745e-05  alpha:  8.073e-03  linmin:  9.972e-06  t[s]:   3142.86
	FillingsUpdate:  mu: +0.092871061  nElectrons: 354.000000  magneticMoment: [ Abs: 29.25165  Tot: +0.00000 ]
	SubspaceRotationAdjust: set factor to 0.662
ElecMinimize: Iter:  34  F: -2112.821323262431179  |grad|_K:  7.310e-05  alpha:  5.506e-03  linmin: -7.455e-07  t[s]:   3220.83
	FillingsUpdate:  mu: +0.093778413  nElectrons: 354.000000  magneticMoment: [ Abs: 29.23384  Tot: +0.00000 ]
	SubspaceRotationAdjust: set factor to 0.84
ElecMinimize: Iter:  35  F: -2112.825388752515664  |grad|_K:  7.161e-05  alpha:  4.256e-03  linmin:  1.584e-05  t[s]:   3299.49
	FillingsUpdate:  mu: +0.098247566  nElectrons: 354.000000  magneticMoment: [ Abs: 29.21569  Tot: +0.00000 ]
	SubspaceRotationAdjust: set factor to 0.994
ElecMinimize: Iter:  36  F: -2112.828492370419099  |grad|_K:  7.445e-05  alpha:  3.460e-03  linmin:  1.913e-05  t[s]:   3375.97
	FillingsUpdate:  mu: +0.102891391  nElectrons: 354.000000  magneticMoment: [ Abs: 29.20258  Tot: +0.00000 ]
	SubspaceRotationAdjust: set factor to 0.916
ElecMinimize: Iter:  37  F: -2112.831220794547789  |grad|_K:  7.930e-05  alpha:  2.821e-03  linmin:  2.054e-05  t[s]:   3454.49
	FillingsUpdate:  mu: +0.103825981  nElectrons: 354.000000  magneticMoment: [ Abs: 29.19832  Tot: -0.00000 ]
	SubspaceRotationAdjust: set factor to 0.787
ElecMinimize: Iter:  38  F: -2112.833681017729759  |grad|_K:  7.822e-05  alpha:  2.237e-03  linmin:  1.927e-05  t[s]:   3530.56
	FillingsUpdate:  mu: +0.101718812  nElectrons: 354.000000  magneticMoment: [ Abs: 29.20265  Tot: -0.00000 ]
	SubspaceRotationAdjust: set factor to 0.677
ElecMinimize: Iter:  39  F: -2112.835810160260735  |grad|_K:  7.339e-05  alpha:  2.004e-03  linmin:  3.137e-05  t[s]:   3606.80
	FillingsUpdate:  mu: +0.097609878  nElectrons: 354.000000  magneticMoment: [ Abs: 29.21286  Tot: -0.00000 ]
	SubspaceRotationAdjust: set factor to 0.602
ElecMinimize: Iter:  40  F: -2112.837573217282625  |grad|_K:  6.761e-05  alpha:  1.905e-03  linmin:  3.068e-05  t[s]:   3682.83
	FillingsUpdate:  mu: +0.092343438  nElectrons: 354.000000  magneticMoment: [ Abs: 29.22670  Tot: -0.00000 ]
	SubspaceRotationAdjust: set factor to 0.551
ElecMinimize: Iter:  41  F: -2112.839069672891128  |grad|_K:  6.239e-05  alpha:  1.905e-03  linmin:  2.675e-05  t[s]:   3759.58
	FillingsUpdate:  mu: +0.087251994  nElectrons: 354.000000  magneticMoment: [ Abs: 29.24276  Tot: +0.00000 ]
	SubspaceRotationAdjust: set factor to 0.511
ElecMinimize: Iter:  42  F: -2112.840376600220225  |grad|_K:  5.813e-05  alpha:  1.948e-03  linmin:  2.074e-05  t[s]:   3838.86
	FillingsUpdate:  mu: +0.084259590  nElectrons: 354.000000  magneticMoment: [ Abs: 29.26025  Tot: -0.00000 ]
	SubspaceRotationAdjust: set factor to 0.471
ElecMinimize: Iter:  43  F: -2112.841558196554615  |grad|_K:  5.473e-05  alpha:  2.021e-03  linmin:  1.524e-05  t[s]:   3916.11
	FillingsUpdate:  mu: +0.083727480  nElectrons: 354.000000  magneticMoment: [ Abs: 29.27873  Tot: +0.00000 ]
	SubspaceRotationAdjust: set factor to 0.422
ElecMinimize: Iter:  44  F: -2112.842663918627295  |grad|_K:  5.193e-05  alpha:  2.126e-03  linmin:  1.074e-05  t[s]:   3992.85
	FillingsUpdate:  mu: +0.081903090  nElectrons: 354.000000  magneticMoment: [ Abs: 29.29791  Tot: +0.00000 ]
	SubspaceRotationAdjust: set factor to 0.363
ElecMinimize: Iter:  45  F: -2112.843732853854362  |grad|_K:  4.941e-05  alpha:  2.277e-03  linmin:  7.200e-06  t[s]:   4068.30
	FillingsUpdate:  mu: +0.081831592  nElectrons: 354.000000  magneticMoment: [ Abs: 29.31751  Tot: +0.00000 ]
	SubspaceRotationAdjust: set factor to 0.3
ElecMinimize: Iter:  46  F: -2112.844793576683514  |grad|_K:  4.683e-05  alpha:  2.492e-03  linmin:  4.351e-06  t[s]:   4147.16
	FillingsUpdate:  mu: +0.082009403  nElectrons: 354.000000  magneticMoment: [ Abs: 29.33730  Tot: +0.00000 ]
	SubspaceRotationAdjust: set factor to 0.24
ElecMinimize: Iter:  47  F: -2112.845862560779096  |grad|_K:  4.396e-05  alpha:  2.792e-03  linmin:  1.868e-06  t[s]:   4223.58
	FillingsUpdate:  mu: +0.081893223  nElectrons: 354.000000  magneticMoment: [ Abs: 29.35675  Tot: -0.00000 ]
	SubspaceRotationAdjust: set factor to 0.186
ElecMinimize: Iter:  48  F: -2112.846943361737885  |grad|_K:  4.072e-05  alpha:  3.201e-03  linmin: -5.735e-07  t[s]:   4297.11
	FillingsUpdate:  mu: +0.082661421  nElectrons: 354.000000  magneticMoment: [ Abs: 29.37564  Tot: +0.00000 ]
	SubspaceRotationAdjust: set factor to 0.143
ElecMinimize: Iter:  49  F: -2112.848028676054128  |grad|_K:  3.722e-05  alpha:  3.743e-03  linmin: -3.254e-06  t[s]:   4373.34
	FillingsUpdate:  mu: +0.083468800  nElectrons: 354.000000  magneticMoment: [ Abs: 29.39374  Tot: -0.00000 ]
	SubspaceRotationAdjust: set factor to 0.11
	SubspaceRotationAdjust: resetting CG because factor has changed by 0.110448
ElecMinimize: 	State modified externally: resetting search direction.
ElecMinimize: Iter:  50  F: -2112.849105859480460  |grad|_K:  3.113e-05  alpha:  4.444e-03
ElecMinimize: 	Predicted alpha/alphaT>3.000000, increasing alphaT to 1.333295e-02.
ElecMinimize: 	Predicted alpha/alphaT>3.000000, increasing alphaT to 3.999885e-02.
ElecMinimize: 	Predicted alpha/alphaT>3.000000, increasing alphaT to 1.199965e-01.
	FillingsUpdate:  mu: +0.124090324  nElectrons: 354.000000  magneticMoment: [ Abs: 29.37686  Tot: -0.00000 ]
	SubspaceRotationAdjust: set factor to 0.0767
ElecMinimize: Iter:  51  F: -2112.916461351573162  |grad|_K:  3.044e-05  alpha:  3.858e-01  linmin: -3.727e-03  t[s]:   4599.28
	FillingsUpdate:  mu: +0.111849491  nElectrons: 354.000000  magneticMoment: [ Abs: 29.73028  Tot: -0.00000 ]
	SubspaceRotationAdjust: set factor to 0.0713
ElecMinimize: Iter:  52  F: -2112.979177499594243  |grad|_K:  2.314e-05  alpha:  3.722e-01  linmin: -2.697e-03  t[s]:   4674.67
	FillingsUpdate:  mu: +0.097754015  nElectrons: 354.000000  magneticMoment: [ Abs: 29.76243  Tot: -0.00000 ]
	SubspaceRotationAdjust: set factor to 0.0802
ElecMinimize: Iter:  53  F: -2113.027925886126468  |grad|_K:  1.766e-05  alpha:  4.879e-01  linmin: -1.388e-03  t[s]:   4750.18
	FillingsUpdate:  mu: +0.098523664  nElectrons: 354.000000  magneticMoment: [ Abs: 29.87700  Tot: -0.00000 ]
	SubspaceRotationAdjust: set factor to 0.0946
ElecMinimize: Iter:  54  F: -2113.053751922234369  |grad|_K:  1.550e-05  alpha:  4.571e-01  linmin: -3.148e-04  t[s]:   4828.82
	FillingsUpdate:  mu: +0.100101715  nElectrons: 354.000000  magneticMoment: [ Abs: 30.00829  Tot: -0.00000 ]
	SubspaceRotationAdjust: set factor to 0.111
ElecMinimize: Iter:  55  F: -2113.072166401449067  |grad|_K:  1.312e-05  alpha:  4.339e-01  linmin: -3.357e-04  t[s]:   4909.79
	FillingsUpdate:  mu: +0.099774927  nElectrons: 354.000000  magneticMoment: [ Abs: 30.05845  Tot: -0.00000 ]
	SubspaceRotationAdjust: set factor to 0.123
ElecMinimize: Iter:  56  F: -2113.085876133510737  |grad|_K:  1.234e-05  alpha:  4.488e-01  linmin: -3.024e-04  t[s]:   4987.72
	FillingsUpdate:  mu: +0.102279401  nElectrons: 354.000000  magneticMoment: [ Abs: 30.19266  Tot: +0.00000 ]
	SubspaceRotationAdjust: set factor to 0.13
ElecMinimize: Iter:  57  F: -2113.096430171048269  |grad|_K:  1.086e-05  alpha:  3.910e-01  linmin: -1.815e-04  t[s]:   5064.51
	FillingsUpdate:  mu: +0.103003864  nElectrons: 354.000000  magneticMoment: [ Abs: 30.26786  Tot: +0.00000 ]
	SubspaceRotationAdjust: set factor to 0.136
ElecMinimize: Iter:  58  F: -2113.104838626064065  |grad|_K:  9.260e-06  alpha:  4.022e-01  linmin: -1.723e-04  t[s]:   5141.49
	FillingsUpdate:  mu: +0.099382743  nElectrons: 354.000000  magneticMoment: [ Abs: 30.39994  Tot: +0.00000 ]
	SubspaceRotationAdjust: set factor to 0.142
ElecMinimize: Iter:  59  F: -2113.109987875100614  |grad|_K:  6.932e-06  alpha:  3.396e-01  linmin: -9.018e-05  t[s]:   5212.20
	FillingsUpdate:  mu: +0.099854066  nElectrons: 354.000000  magneticMoment: [ Abs: 30.45631  Tot: +0.00000 ]
	SubspaceRotationAdjust: set factor to 0.146
ElecMinimize: Iter:  60  F: -2113.113378773705790  |grad|_K:  6.246e-06  alpha:  4.005e-01  linmin: -6.906e-05  t[s]:   5289.98
	FillingsUpdate:  mu: +0.101483473  nElectrons: 354.000000  magneticMoment: [ Abs: 30.57570  Tot: -0.00000 ]
	SubspaceRotationAdjust: set factor to 0.135
ElecMinimize: Iter:  61  F: -2113.115825632753513  |grad|_K:  5.318e-06  alpha:  3.573e-01  linmin: -8.549e-05  t[s]:   5368.08
	FillingsUpdate:  mu: +0.101256843  nElectrons: 354.000000  magneticMoment: [ Abs: 30.62220  Tot: +0.00000 ]
	SubspaceRotationAdjust: set factor to 0.109
ElecMinimize: Iter:  62  F: -2113.117506250579936  |grad|_K:  4.723e-06  alpha:  3.374e-01  linmin:  7.125e-06  t[s]:   5445.57
	FillingsUpdate:  mu: +0.101041721  nElectrons: 354.000000  magneticMoment: [ Abs: 30.74918  Tot: +0.00000 ]
	SubspaceRotationAdjust: set factor to 0.091
ElecMinimize: Iter:  63  F: -2113.118859351508490  |grad|_K:  4.027e-06  alpha:  3.468e-01  linmin: -1.035e-04  t[s]:   5523.09
	FillingsUpdate:  mu: +0.101329630  nElectrons: 354.000000  magneticMoment: [ Abs: 30.83653  Tot: +0.00000 ]
	SubspaceRotationAdjust: set factor to 0.102
ElecMinimize: Iter:  64  F: -2113.120004777270424  |grad|_K:  3.523e-06  alpha:  3.999e-01  linmin: -5.844e-07  t[s]:   5598.29
	FillingsUpdate:  mu: +0.101169009  nElectrons: 354.000000  magneticMoment: [ Abs: 30.92234  Tot: +0.00000 ]
	SubspaceRotationAdjust: set factor to 0.112
ElecMinimize: Iter:  65  F: -2113.120851308939564  |grad|_K:  3.481e-06  alpha:  3.899e-01  linmin:  4.746e-06  t[s]:   5675.87
	FillingsUpdate:  mu: +0.101194107  nElectrons: 354.000000  magneticMoment: [ Abs: 31.07454  Tot: +0.00000 ]
	SubspaceRotationAdjust: set factor to 0.112
ElecMinimize: Iter:  66  F: -2113.121775015596086  |grad|_K:  3.509e-06  alpha:  4.358e-01  linmin: -4.209e-05  t[s]:   5753.99
	FillingsUpdate:  mu: +0.100900868  nElectrons: 354.000000  magneticMoment: [ Abs: 31.26010  Tot: +0.00000 ]
	SubspaceRotationAdjust: set factor to 0.118
ElecMinimize: Iter:  67  F: -2113.122861843137798  |grad|_K:  3.923e-06  alpha:  5.030e-01  linmin:  2.793e-05  t[s]:   5831.08
	FillingsUpdate:  mu: +0.100404050  nElectrons: 354.000000  magneticMoment: [ Abs: 31.60894  Tot: -0.00000 ]
	SubspaceRotationAdjust: set factor to 0.129
ElecMinimize: Iter:  68  F: -2113.124375129835698  |grad|_K:  4.882e-06  alpha:  5.652e-01  linmin:  2.255e-05  t[s]:   5907.69
	FillingsUpdate:  mu: +0.099516365  nElectrons: 354.000000  magneticMoment: [ Abs: 32.21703  Tot: -0.00000 ]
	SubspaceRotationAdjust: set factor to 0.141
ElecMinimize: Iter:  69  F: -2113.126696139480828  |grad|_K:  6.300e-06  alpha:  5.587e-01  linmin:  8.130e-05  t[s]:   5986.91
	FillingsUpdate:  mu: +0.099596495  nElectrons: 354.000000  magneticMoment: [ Abs: 32.92152  Tot: +0.00000 ]
	SubspaceRotationAdjust: set factor to 0.158
ElecMinimize: Iter:  70  F: -2113.129549270147891  |grad|_K:  6.698e-06  alpha:  3.954e-01  linmin: -1.064e-04  t[s]:   6065.55
	FillingsUpdate:  mu: +0.100194133  nElectrons: 354.000000  magneticMoment: [ Abs: 33.61688  Tot: +0.00000 ]
	SubspaceRotationAdjust: set factor to 0.199
ElecMinimize: Iter:  71  F: -2113.132271899420630  |grad|_K:  6.711e-06  alpha:  3.331e-01  linmin: -1.206e-04  t[s]:   6140.94
	FillingsUpdate:  mu: +0.100904998  nElectrons: 354.000000  magneticMoment: [ Abs: 34.19686  Tot: -0.00000 ]
	SubspaceRotationAdjust: set factor to 0.183
ElecMinimize: Iter:  72  F: -2113.134604802941340  |grad|_K:  7.544e-06  alpha:  2.828e-01  linmin: -1.099e-04  t[s]:   6215.62
	FillingsUpdate:  mu: +0.100833227  nElectrons: 354.000000  magneticMoment: [ Abs: 34.75994  Tot: +0.00000 ]
	SubspaceRotationAdjust: set factor to 0.178
ElecMinimize: Iter:  73  F: -2113.136971018038366  |grad|_K:  8.495e-06  alpha:  2.264e-01  linmin: -3.204e-04  t[s]:   6291.26
	FillingsUpdate:  mu: +0.102507008  nElectrons: 354.000000  magneticMoment: [ Abs: 35.32781  Tot: -0.00000 ]
	SubspaceRotationAdjust: set factor to 0.134
ElecMinimize: Iter:  74  F: -2113.139490915725219  |grad|_K:  1.030e-05  alpha:  1.749e-01  linmin: -1.765e-04  t[s]:   6364.68
	FillingsUpdate:  mu: +0.104820123  nElectrons: 354.000000  magneticMoment: [ Abs: 35.79028  Tot: -0.00000 ]
	SubspaceRotationAdjust: set factor to 0.1
ElecMinimize: Iter:  75  F: -2113.141651877519507  |grad|_K:  1.128e-05  alpha:  1.023e-01  linmin: -7.217e-04  t[s]:   6441.29
	FillingsUpdate:  mu: +0.104024219  nElectrons: 354.000000  magneticMoment: [ Abs: 36.25001  Tot: +0.00000 ]
	SubspaceRotationAdjust: set factor to 0.0896
ElecMinimize: Iter:  76  F: -2113.143983231058883  |grad|_K:  1.074e-05  alpha:  9.450e-02  linmin: -3.999e-04  t[s]:   6516.57
	FillingsUpdate:  mu: +0.104505097  nElectrons: 354.000000  magneticMoment: [ Abs: 36.61955  Tot: +0.00000 ]
	SubspaceRotationAdjust: set factor to 0.114
ElecMinimize: Iter:  77  F: -2113.146257890309698  |grad|_K:  9.054e-06  alpha:  1.045e-01  linmin: -8.172e-04  t[s]:   6593.08
	FillingsUpdate:  mu: +0.105502391  nElectrons: 354.000000  magneticMoment: [ Abs: 36.89582  Tot: -0.00000 ]
	SubspaceRotationAdjust: set factor to 0.123
ElecMinimize: Iter:  78  F: -2113.148555353269785  |grad|_K:  8.808e-06  alpha:  1.387e-01  linmin: -7.414e-04  t[s]:   6671.67
	FillingsUpdate:  mu: +0.108490813  nElectrons: 354.000000  magneticMoment: [ Abs: 37.16453  Tot: +0.00000 ]
	SubspaceRotationAdjust: set factor to 0.17
ElecMinimize: Iter:  79  F: -2113.150835630453003  |grad|_K:  8.171e-06  alpha:  1.507e-01  linmin: -3.395e-04  t[s]:   6747.93
	FillingsUpdate:  mu: +0.109921143  nElectrons: 354.000000  magneticMoment: [ Abs: 37.35892  Tot: +0.00000 ]
	SubspaceRotationAdjust: set factor to 0.167
ElecMinimize: Iter:  80  F: -2113.152683445729053  |grad|_K:  8.972e-06  alpha:  1.498e-01  linmin: -1.778e-04  t[s]:   6822.70
	FillingsUpdate:  mu: +0.108944031  nElectrons: 354.000000  magneticMoment: [ Abs: 37.46772  Tot: +0.00000 ]
	SubspaceRotationAdjust: set factor to 0.238
ElecMinimize: Iter:  81  F: -2113.154426858436182  |grad|_K:  7.867e-06  alpha:  1.215e-01  linmin: -1.815e-04  t[s]:   6900.67
	FillingsUpdate:  mu: +0.106870324  nElectrons: 354.000000  magneticMoment: [ Abs: 37.53682  Tot: -0.00000 ]
	SubspaceRotationAdjust: set factor to 0.238
ElecMinimize: Iter:  82  F: -2113.156103346406780  |grad|_K:  9.187e-06  alpha:  1.482e-01  linmin: -2.046e-04  t[s]:   6977.28
	FillingsUpdate:  mu: +0.110358496  nElectrons: 354.000000  magneticMoment: [ Abs: 37.66605  Tot: -0.00000 ]
	SubspaceRotationAdjust: set factor to 0.283
ElecMinimize: Iter:  83  F: -2113.157892119234020  |grad|_K:  8.303e-06  alpha:  1.161e-01  linmin: -4.177e-05  t[s]:   7051.56
	FillingsUpdate:  mu: +0.112083795  nElectrons: 354.000000  magneticMoment: [ Abs: 37.75762  Tot: -0.00000 ]
	SubspaceRotationAdjust: set factor to 0.338
ElecMinimize: Iter:  84  F: -2113.159980930049187  |grad|_K:  9.561e-06  alpha:  1.703e-01  linmin: -5.057e-05  t[s]:   7128.15
	FillingsUpdate:  mu: +0.110006256  nElectrons: 354.000000  magneticMoment: [ Abs: 37.74006  Tot: +0.00000 ]
	SubspaceRotationAdjust: set factor to 0.342
ElecMinimize: Iter:  85  F: -2113.161768157596725  |grad|_K:  1.002e-05  alpha:  1.126e-01  linmin: -7.806e-06  t[s]:   7205.11
	FillingsUpdate:  mu: +0.110099913  nElectrons: 354.000000  magneticMoment: [ Abs: 37.76702  Tot: -0.00000 ]
	SubspaceRotationAdjust: set factor to 0.382
ElecMinimize: Iter:  86  F: -2113.163850532991091  |grad|_K:  8.880e-06  alpha:  1.182e-01  linmin:  2.171e-05  t[s]:   7280.97
	FillingsUpdate:  mu: +0.110077034  nElectrons: 354.000000  magneticMoment: [ Abs: 37.71535  Tot: +0.00000 ]
	SubspaceRotationAdjust: set factor to 0.466
ElecMinimize: Iter:  87  F: -2113.165896977705415  |grad|_K:  8.416e-06  alpha:  1.499e-01  linmin:  2.565e-05  t[s]:   7358.29
	FillingsUpdate:  mu: +0.110255217  nElectrons: 354.000000  magneticMoment: [ Abs: 37.63601  Tot: -0.00000 ]
	SubspaceRotationAdjust: set factor to 0.569
ElecMinimize: Iter:  88  F: -2113.167743176601562  |grad|_K:  9.001e-06  alpha:  1.506e-01  linmin:  9.961e-05  t[s]:   7434.81
	FillingsUpdate:  mu: +0.110354454  nElectrons: 354.000000  magneticMoment: [ Abs: 37.58754  Tot: -0.00000 ]
	SubspaceRotationAdjust: set factor to 0.617
ElecMinimize: Iter:  89  F: -2113.169066452278457  |grad|_K:  9.059e-06  alpha:  9.579e-02  linmin: -6.893e-05  t[s]:   7512.33
	FillingsUpdate:  mu: +0.108551317  nElectrons: 354.000000  magneticMoment: [ Abs: 37.47067  Tot: +0.00000 ]
	SubspaceRotationAdjust: set factor to 0.457
ElecMinimize: Iter:  90  F: -2113.170222267924146  |grad|_K:  1.102e-05  alpha:  7.228e-02  linmin:  6.771e-05  t[s]:   7592.29
	FillingsUpdate:  mu: +0.107027242  nElectrons: 354.000000  magneticMoment: [ Abs: 37.39860  Tot: -0.00000 ]
	SubspaceRotationAdjust: set factor to 0.352
ElecMinimize: Iter:  91  F: -2113.171186230575586  |grad|_K:  1.064e-05  alpha:  3.763e-02  linmin: -4.126e-04  t[s]:   7668.75
	FillingsUpdate:  mu: +0.106311082  nElectrons: 354.000000  magneticMoment: [ Abs: 37.33675  Tot: +0.00000 ]
	SubspaceRotationAdjust: set factor to 0.341
ElecMinimize: Iter:  92  F: -2113.172029243371071  |grad|_K:  9.419e-06  alpha:  3.750e-02  linmin: -8.401e-05  t[s]:   7745.33
	FillingsUpdate:  mu: +0.106584425  nElectrons: 354.000000  magneticMoment: [ Abs: 37.29986  Tot: +0.00000 ]
	SubspaceRotationAdjust: set factor to 0.351
ElecMinimize: Iter:  93  F: -2113.172811918915158  |grad|_K:  9.412e-06  alpha:  4.856e-02  linmin: -6.128e-05  t[s]:   7819.90
	FillingsUpdate:  mu: +0.108378347  nElectrons: 354.000000  magneticMoment: [ Abs: 37.24750  Tot: +0.00000 ]
	SubspaceRotationAdjust: set factor to 0.268
ElecMinimize: Iter:  94  F: -2113.173631304598075  |grad|_K:  1.153e-05  alpha:  5.229e-02  linmin:  2.190e-04  t[s]:   7894.75
	FillingsUpdate:  mu: +0.107828318  nElectrons: 354.000000  magneticMoment: [ Abs: 37.17045  Tot: +0.00000 ]
	SubspaceRotationAdjust: set factor to 0.24
ElecMinimize: Iter:  95  F: -2113.174242206030613  |grad|_K:  1.039e-05  alpha:  2.784e-02  linmin: -2.865e-05  t[s]:   7969.39
	FillingsUpdate:  mu: +0.105454999  nElectrons: 354.000000  magneticMoment: [ Abs: 37.07601  Tot: -0.00000 ]
	SubspaceRotationAdjust: set factor to 0.307
ElecMinimize: Iter:  96  F: -2113.174787365183874  |grad|_K:  8.961e-06  alpha:  2.860e-02  linmin:  7.534e-05  t[s]:   8046.39
	FillingsUpdate:  mu: +0.104070649  nElectrons: 354.000000  magneticMoment: [ Abs: 36.99565  Tot: -0.00000 ]
	SubspaceRotationAdjust: set factor to 0.314
ElecMinimize: Iter:  97  F: -2113.175165997723525  |grad|_K:  9.532e-06  alpha:  2.768e-02  linmin:  7.060e-05  t[s]:   8123.47
	FillingsUpdate:  mu: +0.104293124  nElectrons: 354.000000  magneticMoment: [ Abs: 36.91738  Tot: -0.00000 ]
	SubspaceRotationAdjust: set factor to 0.244
ElecMinimize: Iter:  98  F: -2113.175555467213599  |grad|_K:  1.075e-05  alpha:  2.500e-02  linmin:  5.898e-05  t[s]:   8200.97
	FillingsUpdate:  mu: +0.106310489  nElectrons: 354.000000  magneticMoment: [ Abs: 36.84764  Tot: +0.00000 ]
	SubspaceRotationAdjust: set factor to 0.185
ElecMinimize: Iter:  99  F: -2113.175972294953681  |grad|_K:  1.032e-05  alpha:  2.091e-02  linmin:  2.794e-05  t[s]:   8277.52
	FillingsUpdate:  mu: +0.109371324  nElectrons: 354.000000  magneticMoment: [ Abs: 36.79652  Tot: +0.00000 ]
	SubspaceRotationAdjust: set factor to 0.161
ElecMinimize: Iter: 100  F: -2113.176360669674978  |grad|_K:  8.815e-06  alpha:  2.105e-02  linmin: -2.220e-05  t[s]:   8354.97
	FillingsUpdate:  mu: +0.111666403  nElectrons: 354.000000  magneticMoment: [ Abs: 36.76343  Tot: +0.00000 ]
	SubspaceRotationAdjust: set factor to 0.18
ElecMinimize: Iter: 101  F: -2113.176708657049858  |grad|_K:  7.475e-06  alpha:  2.522e-02  linmin: -1.013e-04  t[s]:   8432.72
	FillingsUpdate:  mu: +0.112107113  nElectrons: 354.000000  magneticMoment: [ Abs: 36.74237  Tot: +0.00000 ]
	SubspaceRotationAdjust: set factor to 0.241
ElecMinimize: Iter: 102  F: -2113.177033320506780  |grad|_K:  6.740e-06  alpha:  3.181e-02  linmin: -1.346e-04  t[s]:   8510.88
	FillingsUpdate:  mu: +0.111759657  nElectrons: 354.000000  magneticMoment: [ Abs: 36.72543  Tot: -0.00000 ]
	SubspaceRotationAdjust: set factor to 0.251
ElecMinimize: Iter: 103  F: -2113.177353984946421  |grad|_K:  6.883e-06  alpha:  3.844e-02  linmin: -1.064e-04  t[s]:   8587.80
	FillingsUpdate:  mu: +0.111914584  nElectrons: 354.000000  magneticMoment: [ Abs: 36.69546  Tot: +0.00000 ]
	SubspaceRotationAdjust: set factor to 0.214
ElecMinimize: Iter: 104  F: -2113.177722091370015  |grad|_K:  7.265e-06  alpha:  4.294e-02  linmin: -4.617e-05  t[s]:   8665.17
	FillingsUpdate:  mu: +0.110747151  nElectrons: 354.000000  magneticMoment: [ Abs: 36.64271  Tot: -0.00000 ]
	SubspaceRotationAdjust: set factor to 0.233
ElecMinimize: Iter: 105  F: -2113.178093563222774  |grad|_K:  6.544e-06  alpha:  3.963e-02  linmin:  1.886e-05  t[s]:   8742.79
	FillingsUpdate:  mu: +0.110094395  nElectrons: 354.000000  magneticMoment: [ Abs: 36.58775  Tot: +0.00000 ]
	SubspaceRotationAdjust: set factor to 0.319
ElecMinimize: Iter: 106  F: -2113.178372213406419  |grad|_K:  6.051e-06  alpha:  3.738e-02  linmin:  3.172e-05  t[s]:   8820.05
	FillingsUpdate:  mu: +0.108482771  nElectrons: 354.000000  magneticMoment: [ Abs: 36.53832  Tot: -0.00000 ]
	SubspaceRotationAdjust: set factor to 0.362
ElecMinimize: Iter: 107  F: -2113.178610784151715  |grad|_K:  6.724e-06  alpha:  3.770e-02  linmin:  1.964e-05  t[s]:   8898.98
	FillingsUpdate:  mu: +0.107175246  nElectrons: 354.000000  magneticMoment: [ Abs: 36.49295  Tot: -0.00000 ]
	SubspaceRotationAdjust: set factor to 0.286
ElecMinimize: Iter: 108  F: -2113.178923796306208  |grad|_K:  8.206e-06  alpha:  3.990e-02  linmin:  2.791e-06  t[s]:   8971.31
	FillingsUpdate:  mu: +0.107401955  nElectrons: 354.000000  magneticMoment: [ Abs: 36.46947  Tot: -0.00000 ]
	SubspaceRotationAdjust: set factor to 0.277
ElecMinimize: Iter: 109  F: -2113.179304726564624  |grad|_K:  7.538e-06  alpha:  3.238e-02  linmin:  2.246e-06  t[s]:   9049.15
	FillingsUpdate:  mu: +0.109036533  nElectrons: 354.000000  magneticMoment: [ Abs: 36.46917  Tot: +0.00000 ]
	SubspaceRotationAdjust: set factor to 0.403
ElecMinimize: Iter: 110  F: -2113.179622946892778  |grad|_K:  6.786e-06  alpha:  3.206e-02  linmin: -1.200e-05  t[s]:   9125.90
	FillingsUpdate:  mu: +0.110548839  nElectrons: 354.000000  magneticMoment: [ Abs: 36.47415  Tot: +0.00000 ]
	SubspaceRotationAdjust: set factor to 0.49
ElecMinimize: Iter: 111  F: -2113.179924841045249  |grad|_K:  7.249e-06  alpha:  3.710e-02  linmin: -3.368e-05  t[s]:   9201.91
	FillingsUpdate:  mu: +0.111738172  nElectrons: 354.000000  magneticMoment: [ Abs: 36.46367  Tot: +0.00000 ]
	SubspaceRotationAdjust: set factor to 0.537
ElecMinimize: Iter: 112  F: -2113.180297246485679  |grad|_K:  7.845e-06  alpha:  3.975e-02  linmin: -1.025e-05  t[s]:   9278.21
	FillingsUpdate:  mu: +0.112552694  nElectrons: 354.000000  magneticMoment: [ Abs: 36.43061  Tot: -0.00000 ]
	SubspaceRotationAdjust: set factor to 0.713
ElecMinimize: Iter: 113  F: -2113.180628182329656  |grad|_K:  7.430e-06  alpha:  3.021e-02  linmin:  1.157e-05  t[s]:   9354.42
	FillingsUpdate:  mu: +0.112394675  nElectrons: 354.000000  magneticMoment: [ Abs: 36.39572  Tot: +0.00000 ]
	SubspaceRotationAdjust: set factor to 0.657
ElecMinimize: Iter: 114  F: -2113.180903951781147  |grad|_K:  8.665e-06  alpha:  2.868e-02  linmin:  3.627e-05  t[s]:   9433.37
	FillingsUpdate:  mu: +0.111068306  nElectrons: 354.000000  magneticMoment: [ Abs: 36.37109  Tot: -0.00000 ]
	SubspaceRotationAdjust: set factor to 0.517
ElecMinimize: Iter: 115  F: -2113.181226620985399  |grad|_K:  9.756e-06  alpha:  2.491e-02  linmin:  2.963e-05  t[s]:   9510.60
	FillingsUpdate:  mu: +0.109501324  nElectrons: 354.000000  magneticMoment: [ Abs: 36.36420  Tot: -0.00000 ]
	SubspaceRotationAdjust: set factor to 0.474
ElecMinimize: Iter: 116  F: -2113.181545188127529  |grad|_K:  8.935e-06  alpha:  1.928e-02  linmin:  5.484e-06  t[s]:   9588.83
	FillingsUpdate:  mu: +0.108385225  nElectrons: 354.000000  magneticMoment: [ Abs: 36.36827  Tot: -0.00000 ]
	SubspaceRotationAdjust: set factor to 0.548
ElecMinimize: Iter: 117  F: -2113.181813417648755  |grad|_K:  8.130e-06  alpha:  1.928e-02  linmin:  7.661e-06  t[s]:   9665.43
	FillingsUpdate:  mu: +0.107859094  nElectrons: 354.000000  magneticMoment: [ Abs: 36.37699  Tot: -0.00000 ]
	SubspaceRotationAdjust: set factor to 0.633
ElecMinimize: Iter: 118  F: -2113.182043212947065  |grad|_K:  8.114e-06  alpha:  1.998e-02  linmin: -3.673e-06  t[s]:   9744.87
	FillingsUpdate:  mu: +0.107255555  nElectrons: 354.000000  magneticMoment: [ Abs: 36.38833  Tot: -0.00000 ]
	SubspaceRotationAdjust: set factor to 0.603
ElecMinimize: Iter: 119  F: -2113.182282182905965  |grad|_K:  8.685e-06  alpha:  2.069e-02  linmin: -1.856e-05  t[s]:   9821.57
	FillingsUpdate:  mu: +0.106483707  nElectrons: 354.000000  magneticMoment: [ Abs: 36.39905  Tot: -0.00000 ]
	SubspaceRotationAdjust: set factor to 0.514
ElecMinimize: Iter: 120  F: -2113.182573834925734  |grad|_K:  9.048e-06  alpha:  2.183e-02  linmin: -1.810e-05  t[s]:   9900.73
	FillingsUpdate:  mu: +0.106295898  nElectrons: 354.000000  magneticMoment: [ Abs: 36.40685  Tot: +0.00000 ]
	SubspaceRotationAdjust: set factor to 0.468
ElecMinimize: Iter: 121  F: -2113.182894161517197  |grad|_K:  8.554e-06  alpha:  2.213e-02  linmin: -6.267e-06  t[s]:   9979.14
	FillingsUpdate:  mu: +0.107157602  nElectrons: 354.000000  magneticMoment: [ Abs: 36.41699  Tot: +0.00000 ]
	SubspaceRotationAdjust: set factor to 0.537
ElecMinimize: Iter: 122  F: -2113.183183822267893  |grad|_K:  7.649e-06  alpha:  2.255e-02  linmin: -1.539e-05  t[s]:  10056.18
	FillingsUpdate:  mu: +0.109033605  nElectrons: 354.000000  magneticMoment: [ Abs: 36.43312  Tot: +0.00000 ]
	SubspaceRotationAdjust: set factor to 0.745
ElecMinimize: Iter: 123  F: -2113.183433301701825  |grad|_K:  7.140e-06  alpha:  2.414e-02  linmin: -2.464e-05  t[s]:  10135.42
	FillingsUpdate:  mu: +0.109946082  nElectrons: 354.000000  magneticMoment: [ Abs: 36.45569  Tot: -0.00000 ]
	SubspaceRotationAdjust: set factor to 0.805
ElecMinimize: Iter: 124  F: -2113.183672341366218  |grad|_K:  7.717e-06  alpha:  2.640e-02  linmin: -2.679e-05  t[s]:  10216.49
	FillingsUpdate:  mu: +0.111160160  nElectrons: 354.000000  magneticMoment: [ Abs: 36.48551  Tot: -0.00000 ]
	SubspaceRotationAdjust: set factor to 0.666
ElecMinimize: Iter: 125  F: -2113.183974741926704  |grad|_K:  8.930e-06  alpha:  2.861e-02  linmin: -1.814e-05  t[s]:  10294.93
	FillingsUpdate:  mu: +0.109886176  nElectrons: 354.000000  magneticMoment: [ Abs: 36.51638  Tot: -0.00000 ]
	SubspaceRotationAdjust: set factor to 0.588
ElecMinimize: Iter: 126  F: -2113.184348110685278  |grad|_K:  8.852e-06  alpha:  2.650e-02  linmin:  2.787e-06  t[s]:  10372.37
	FillingsUpdate:  mu: +0.107717492  nElectrons: 354.000000  magneticMoment: [ Abs: 36.54444  Tot: -0.00000 ]
	SubspaceRotationAdjust: set factor to 0.646
ElecMinimize: Iter: 127  F: -2113.184691431216834  |grad|_K:  8.373e-06  alpha:  2.504e-02  linmin:  1.823e-05  t[s]:  10449.51
	FillingsUpdate:  mu: +0.105478665  nElectrons: 354.000000  magneticMoment: [ Abs: 36.57709  Tot: -0.00000 ]
	SubspaceRotationAdjust: set factor to 0.759
ElecMinimize: Iter: 128  F: -2113.184994559464940  |grad|_K:  8.563e-06  alpha:  2.496e-02  linmin:  5.207e-07  t[s]:  10526.56
	FillingsUpdate:  mu: +0.104559792  nElectrons: 354.000000  magneticMoment: [ Abs: 36.62479  Tot: +0.00000 ]
	SubspaceRotationAdjust: set factor to 0.839
	SubspaceRotationAdjust: resetting CG because factor has changed by 7.59324
ElecMinimize: 	State modified externally: resetting search direction.
ElecMinimize: Iter: 129  F: -2113.185315206385894  |grad|_K:  9.311e-06  alpha:  2.501e-02
ElecMinimize: 	Predicted alpha/alphaT>3.000000, increasing alphaT to 7.503342e-02.
	FillingsUpdate:  mu: +0.113518816  nElectrons: 354.000000  magneticMoment: [ Abs: 36.73921  Tot: +0.00000 ]
	SubspaceRotationAdjust: set factor to 0.464
ElecMinimize: Iter: 130  F: -2113.187402179603851  |grad|_K:  1.545e-05  alpha:  1.338e-01  linmin: -8.730e-04  t[s]:  10728.84
	FillingsUpdate:  mu: +0.110256505  nElectrons: 354.000000  magneticMoment: [ Abs: 36.71417  Tot: -0.00000 ]
	SubspaceRotationAdjust: set factor to 0.266
ElecMinimize: Iter: 131  F: -2113.190100352056106  |grad|_K:  7.797e-06  alpha:  6.197e-02  linmin:  8.134e-05  t[s]:  10805.69
ElecMinimize: 	Predicted alpha/alphaT>3.000000, increasing alphaT to 1.858982e-01.
	FillingsUpdate:  mu: +0.112261531  nElectrons: 354.000000  magneticMoment: [ Abs: 36.83388  Tot: -0.00000 ]
	SubspaceRotationAdjust: set factor to 0.201
ElecMinimize: Iter: 132  F: -2113.192651728804321  |grad|_K:  5.718e-06  alpha:  2.342e-01  linmin: -9.446e-04  t[s]:  10913.66
	FillingsUpdate:  mu: +0.106056794  nElectrons: 354.000000  magneticMoment: [ Abs: 36.82026  Tot: +0.00000 ]
	SubspaceRotationAdjust: set factor to 0.155
ElecMinimize: Iter: 133  F: -2113.194168159251149  |grad|_K:  5.760e-06  alpha:  2.399e-01  linmin: -3.854e-05  t[s]:  10991.61
	FillingsUpdate:  mu: +0.111688990  nElectrons: 354.000000  magneticMoment: [ Abs: 36.90846  Tot: +0.00000 ]
	SubspaceRotationAdjust: set factor to 0.129
ElecMinimize: Iter: 134  F: -2113.195497787870863  |grad|_K:  4.291e-06  alpha:  2.283e-01  linmin: -2.753e-05  t[s]:  11068.91
	FillingsUpdate:  mu: +0.111943457  nElectrons: 354.000000  magneticMoment: [ Abs: 36.95796  Tot: -0.00000 ]
	SubspaceRotationAdjust: set factor to 0.158
ElecMinimize: Iter: 135  F: -2113.196682802944451  |grad|_K:  3.599e-06  alpha:  3.657e-01  linmin: -4.079e-05  t[s]:  11147.25
	FillingsUpdate:  mu: +0.108431859  nElectrons: 354.000000  magneticMoment: [ Abs: 36.96116  Tot: +0.00000 ]
	SubspaceRotationAdjust: set factor to 0.145
ElecMinimize: Iter: 136  F: -2113.197341387229244  |grad|_K:  3.097e-06  alpha:  2.889e-01  linmin:  1.718e-05  t[s]:  11226.69
	FillingsUpdate:  mu: +0.111491906  nElectrons: 354.000000  magneticMoment: [ Abs: 37.01166  Tot: -0.00000 ]
	SubspaceRotationAdjust: set factor to 0.142
ElecMinimize: Iter: 137  F: -2113.197820295682959  |grad|_K:  2.521e-06  alpha:  2.861e-01  linmin: -3.833e-05  t[s]:  11302.05
	FillingsUpdate:  mu: +0.111205998  nElectrons: 354.000000  magneticMoment: [ Abs: 37.03936  Tot: +0.00000 ]
	SubspaceRotationAdjust: set factor to 0.165
ElecMinimize: Iter: 138  F: -2113.198260254250272  |grad|_K:  2.605e-06  alpha:  3.946e-01  linmin:  2.493e-06  t[s]:  11380.83
	FillingsUpdate:  mu: +0.109480897  nElectrons: 354.000000  magneticMoment: [ Abs: 37.06700  Tot: +0.00000 ]
	SubspaceRotationAdjust: set factor to 0.18
ElecMinimize: Iter: 139  F: -2113.198768960657162  |grad|_K:  3.043e-06  alpha:  4.290e-01  linmin:  1.487e-05  t[s]:  11458.67
	FillingsUpdate:  mu: +0.113101881  nElectrons: 354.000000  magneticMoment: [ Abs: 37.13957  Tot: -0.00000 ]
	SubspaceRotationAdjust: set factor to 0.164
ElecMinimize: Iter: 140  F: -2113.199364019616496  |grad|_K:  3.346e-06  alpha:  3.697e-01  linmin: -1.013e-04  t[s]:  11536.45
	FillingsUpdate:  mu: +0.109644837  nElectrons: 354.000000  magneticMoment: [ Abs: 37.16472  Tot: -0.00000 ]
	SubspaceRotationAdjust: set factor to 0.15
ElecMinimize: Iter: 141  F: -2113.200024061425211  |grad|_K:  3.287e-06  alpha:  3.331e-01  linmin:  7.285e-05  t[s]:  11610.24
	FillingsUpdate:  mu: +0.110635547  nElectrons: 354.000000  magneticMoment: [ Abs: 37.23177  Tot: +0.00000 ]
	SubspaceRotationAdjust: set factor to 0.173
ElecMinimize: Iter: 142  F: -2113.200736829261587  |grad|_K:  3.094e-06  alpha:  3.805e-01  linmin:  3.287e-06  t[s]:  11685.71
	FillingsUpdate:  mu: +0.112162375  nElectrons: 354.000000  magneticMoment: [ Abs: 37.29814  Tot: -0.00000 ]
	SubspaceRotationAdjust: set factor to 0.182
ElecMinimize: Iter: 143  F: -2113.201350148334768  |grad|_K:  2.915e-06  alpha:  3.668e-01  linmin: -4.317e-05  t[s]:  11760.68
	FillingsUpdate:  mu: +0.109100850  nElectrons: 354.000000  magneticMoment: [ Abs: 37.31019  Tot: -0.00000 ]
	SubspaceRotationAdjust: set factor to 0.166
ElecMinimize: Iter: 144  F: -2113.201815696958874  |grad|_K:  2.839e-06  alpha:  3.103e-01  linmin:  6.368e-05  t[s]:  11840.57
	FillingsUpdate:  mu: +0.111723584  nElectrons: 354.000000  magneticMoment: [ Abs: 37.35869  Tot: -0.00000 ]
	SubspaceRotationAdjust: set factor to 0.171
ElecMinimize: Iter: 145  F: -2113.202262273105589  |grad|_K:  2.505e-06  alpha:  3.193e-01  linmin: -7.576e-05  t[s]:  11915.98
	FillingsUpdate:  mu: +0.111938790  nElectrons: 354.000000  magneticMoment: [ Abs: 37.38200  Tot: -0.00000 ]
	SubspaceRotationAdjust: set factor to 0.196
ElecMinimize: Iter: 146  F: -2113.202676266264461  |grad|_K:  2.352e-06  alpha:  3.734e-01  linmin: -1.000e-06  t[s]:  11996.30
	FillingsUpdate:  mu: +0.110847190  nElectrons: 354.000000  magneticMoment: [ Abs: 37.38525  Tot: -0.00000 ]
	SubspaceRotationAdjust: set factor to 0.211
ElecMinimize: Iter: 147  F: -2113.202987926479636  |grad|_K:  2.167e-06  alpha:  3.219e-01  linmin:  2.387e-05  t[s]:  12076.69
	FillingsUpdate:  mu: +0.112971526  nElectrons: 354.000000  magneticMoment: [ Abs: 37.40627  Tot: -0.00000 ]
	SubspaceRotationAdjust: set factor to 0.194
ElecMinimize: Iter: 148  F: -2113.203232703756839  |grad|_K:  2.104e-06  alpha:  2.994e-01  linmin: -5.519e-05  t[s]:  12157.27
	FillingsUpdate:  mu: +0.111332939  nElectrons: 354.000000  magneticMoment: [ Abs: 37.38589  Tot: -0.00000 ]
	SubspaceRotationAdjust: set factor to 0.182
ElecMinimize: Iter: 149  F: -2113.203455957608185  |grad|_K:  1.891e-06  alpha:  2.863e-01  linmin:  4.967e-05  t[s]:  12232.81
	FillingsUpdate:  mu: +0.111869789  nElectrons: 354.000000  magneticMoment: [ Abs: 37.38152  Tot: +0.00000 ]
	SubspaceRotationAdjust: set factor to 0.207
ElecMinimize: Iter: 150  F: -2113.203666648533726  |grad|_K:  1.629e-06  alpha:  3.387e-01  linmin: -5.829e-06  t[s]:  12301.65
	FillingsUpdate:  mu: +0.112031882  nElectrons: 354.000000  magneticMoment: [ Abs: 37.37460  Tot: +0.00000 ]
	SubspaceRotationAdjust: set factor to 0.234
ElecMinimize: Iter: 151  F: -2113.203837427401140  |grad|_K:  1.437e-06  alpha:  3.677e-01  linmin: -2.283e-06  t[s]:  12378.56
	FillingsUpdate:  mu: +0.110828688  nElectrons: 354.000000  magneticMoment: [ Abs: 37.35481  Tot: -0.00000 ]
	SubspaceRotationAdjust: set factor to 0.224
ElecMinimize: Iter: 152  F: -2113.203941802993540  |grad|_K:  1.427e-06  alpha:  2.885e-01  linmin:  1.350e-05  t[s]:  12457.10
	FillingsUpdate:  mu: +0.112192883  nElectrons: 354.000000  magneticMoment: [ Abs: 37.35772  Tot: -0.00000 ]
	SubspaceRotationAdjust: set factor to 0.192
ElecMinimize: Iter: 153  F: -2113.204029486504169  |grad|_K:  1.314e-06  alpha:  2.469e-01  linmin: -1.481e-05  t[s]:  12537.89
	FillingsUpdate:  mu: +0.111608324  nElectrons: 354.000000  magneticMoment: [ Abs: 37.33828  Tot: -0.00000 ]
	SubspaceRotationAdjust: set factor to 0.202
ElecMinimize: Iter: 154  F: -2113.204123605891255  |grad|_K:  1.165e-06  alpha:  3.113e-01  linmin:  7.503e-06  t[s]:  12613.91
	FillingsUpdate:  mu: +0.111554872  nElectrons: 354.000000  magneticMoment: [ Abs: 37.32515  Tot: -0.00000 ]
	SubspaceRotationAdjust: set factor to 0.232
ElecMinimize: Iter: 155  F: -2113.204208075339466  |grad|_K:  1.054e-06  alpha:  3.562e-01  linmin:  5.750e-06  t[s]:  12691.55
	FillingsUpdate:  mu: +0.111997942  nElectrons: 354.000000  magneticMoment: [ Abs: 37.31902  Tot: +0.00000 ]
	SubspaceRotationAdjust: set factor to 0.244
ElecMinimize: Iter: 156  F: -2113.204271381760464  |grad|_K:  9.993e-07  alpha:  3.263e-01  linmin:  3.386e-06  t[s]:  12770.28
	FillingsUpdate:  mu: +0.111118473  nElectrons: 354.000000  magneticMoment: [ Abs: 37.30132  Tot: +0.00000 ]
	SubspaceRotationAdjust: set factor to 0.207
ElecMinimize: Iter: 157  F: -2113.204313796263250  |grad|_K:  9.801e-07  alpha:  2.424e-01  linmin:  9.469e-06  t[s]:  12849.62
	FillingsUpdate:  mu: +0.111800587  nElectrons: 354.000000  magneticMoment: [ Abs: 37.29946  Tot: +0.00000 ]
	SubspaceRotationAdjust: set factor to 0.198
ElecMinimize: Iter: 158  F: -2113.204354656769283  |grad|_K:  7.903e-07  alpha:  2.435e-01  linmin: -3.666e-06  t[s]:  12930.94
	FillingsUpdate:  mu: +0.111578333  nElectrons: 354.000000  magneticMoment: [ Abs: 37.28875  Tot: -0.00000 ]
	SubspaceRotationAdjust: set factor to 0.232
ElecMinimize: Iter: 159  F: -2113.204396224778066  |grad|_K:  7.721e-07  alpha:  3.804e-01  linmin:  3.759e-06  t[s]:  13006.90
	FillingsUpdate:  mu: +0.111249806  nElectrons: 354.000000  magneticMoment: [ Abs: 37.27699  Tot: +0.00000 ]
	SubspaceRotationAdjust: set factor to 0.254
ElecMinimize: Iter: 160  F: -2113.204434981706981  |grad|_K:  7.937e-07  alpha:  3.720e-01  linmin:  5.246e-06  t[s]:  13084.51
	FillingsUpdate:  mu: +0.111937377  nElectrons: 354.000000  magneticMoment: [ Abs: 37.27711  Tot: +0.00000 ]
	SubspaceRotationAdjust: set factor to 0.229
ElecMinimize: Iter: 161  F: -2113.204467413362636  |grad|_K:  8.963e-07  alpha:  2.949e-01  linmin: -6.539e-06  t[s]:  13161.86
	FillingsUpdate:  mu: +0.111269198  nElectrons: 354.000000  magneticMoment: [ Abs: 37.26331  Tot: -0.00000 ]
	SubspaceRotationAdjust: set factor to 0.192
ElecMinimize: Iter: 162  F: -2113.204499038159156  |grad|_K:  7.931e-07  alpha:  2.243e-01  linmin:  1.163e-05  t[s]:  13239.93
	FillingsUpdate:  mu: +0.111436713  nElectrons: 354.000000  magneticMoment: [ Abs: 37.25963  Tot: -0.00000 ]
	SubspaceRotationAdjust: set factor to 0.219
ElecMinimize: Iter: 163  F: -2113.204538179557858  |grad|_K:  7.365e-07  alpha:  3.562e-01  linmin: -7.929e-06  t[s]:  13317.03
	FillingsUpdate:  mu: +0.111470332  nElectrons: 354.000000  magneticMoment: [ Abs: 37.25714  Tot: +0.00000 ]
	SubspaceRotationAdjust: set factor to 0.248
ElecMinimize: Iter: 164  F: -2113.204572798619211  |grad|_K:  7.450e-07  alpha:  3.645e-01  linmin: -2.938e-06  t[s]:  13397.20
	FillingsUpdate:  mu: +0.110871050  nElectrons: 354.000000  magneticMoment: [ Abs: 37.24873  Tot: -0.00000 ]
	SubspaceRotationAdjust: set factor to 0.238
ElecMinimize: Iter: 165  F: -2113.204604893912347  |grad|_K:  8.408e-07  alpha:  3.304e-01  linmin:  1.878e-05  t[s]:  13473.92
	FillingsUpdate:  mu: +0.111618338  nElectrons: 354.000000  magneticMoment: [ Abs: 37.25532  Tot: +0.00000 ]
	SubspaceRotationAdjust: set factor to 0.2
ElecMinimize: Iter: 166  F: -2113.204632245334324  |grad|_K:  8.066e-07  alpha:  2.223e-01  linmin: -1.090e-06  t[s]:  13551.95
	FillingsUpdate:  mu: +0.111338894  nElectrons: 354.000000  magneticMoment: [ Abs: 37.25204  Tot: -0.00000 ]
	SubspaceRotationAdjust: set factor to 0.215
ElecMinimize: Iter: 167  F: -2113.204670506669572  |grad|_K:  7.450e-07  alpha:  3.365e-01  linmin:  1.517e-05  t[s]:  13626.24
	FillingsUpdate:  mu: +0.111296910  nElectrons: 354.000000  magneticMoment: [ Abs: 37.25383  Tot: -0.00000 ]
	SubspaceRotationAdjust: set factor to 0.248
ElecMinimize: Iter: 168  F: -2113.204708387746450  |grad|_K:  7.388e-07  alpha:  3.911e-01  linmin:  1.554e-06  t[s]:  13702.82
	FillingsUpdate:  mu: +0.111759205  nElectrons: 354.000000  magneticMoment: [ Abs: 37.26172  Tot: +0.00000 ]
	SubspaceRotationAdjust: set factor to 0.248
ElecMinimize: Iter: 169  F: -2113.204739124861590  |grad|_K:  7.938e-07  alpha:  3.223e-01  linmin: -5.228e-06  t[s]:  13781.61
	FillingsUpdate:  mu: +0.111100346  nElectrons: 354.000000  magneticMoment: [ Abs: 37.25710  Tot: +0.00000 ]
	SubspaceRotationAdjust: set factor to 0.207
ElecMinimize: Iter: 170  F: -2113.204764557376166  |grad|_K:  7.989e-07  alpha:  2.302e-01  linmin:  4.065e-06  t[s]:  13858.66
	FillingsUpdate:  mu: +0.111613666  nElectrons: 354.000000  magneticMoment: [ Abs: 37.26589  Tot: -0.00000 ]
	SubspaceRotationAdjust: set factor to 0.213
ElecMinimize: Iter: 171  F: -2113.204796593736319  |grad|_K:  7.360e-07  alpha:  2.871e-01  linmin: -8.674e-06  t[s]:  13935.76
	FillingsUpdate:  mu: +0.111660174  nElectrons: 354.000000  magneticMoment: [ Abs: 37.27102  Tot: +0.00000 ]
	SubspaceRotationAdjust: set factor to 0.246
ElecMinimize: Iter: 172  F: -2113.204835104146696  |grad|_K:  7.482e-07  alpha:  4.060e-01  linmin:  1.867e-06  t[s]:  14012.26
	FillingsUpdate:  mu: +0.111287698  nElectrons: 354.000000  magneticMoment: [ Abs: 37.27165  Tot: -0.00000 ]
	SubspaceRotationAdjust: set factor to 0.258
ElecMinimize: Iter: 173  F: -2113.204871452080170  |grad|_K:  8.433e-07  alpha:  3.714e-01  linmin:  3.702e-06  t[s]:  14088.83
	FillingsUpdate:  mu: +0.112073564  nElectrons: 354.000000  magneticMoment: [ Abs: 37.28350  Tot: -0.00000 ]
	SubspaceRotationAdjust: set factor to 0.221
ElecMinimize: Iter: 174  F: -2113.204902552518433  |grad|_K:  9.265e-07  alpha:  2.512e-01  linmin: -9.083e-07  t[s]:  14166.44
	FillingsUpdate:  mu: +0.111518905  nElectrons: 354.000000  magneticMoment: [ Abs: 37.28098  Tot: -0.00000 ]
	SubspaceRotationAdjust: set factor to 0.207
ElecMinimize: Iter: 175  F: -2113.204942534565816  |grad|_K:  8.595e-07  alpha:  2.663e-01  linmin:  1.224e-05  t[s]:  14246.18
	FillingsUpdate:  mu: +0.111728267  nElectrons: 354.000000  magneticMoment: [ Abs: 37.28749  Tot: +0.00000 ]
	SubspaceRotationAdjust: set factor to 0.239
ElecMinimize: Iter: 176  F: -2113.204996443450455  |grad|_K:  9.057e-07  alpha:  4.184e-01  linmin:  6.240e-06  t[s]:  14322.53
	FillingsUpdate:  mu: +0.112064207  nElectrons: 354.000000  magneticMoment: [ Abs: 37.29552  Tot: +0.00000 ]
	SubspaceRotationAdjust: set factor to 0.259
ElecMinimize: Iter: 177  F: -2113.205050355979893  |grad|_K:  9.712e-07  alpha:  3.762e-01  linmin: -5.046e-07  t[s]:  14399.05
	FillingsUpdate:  mu: +0.111150754  nElectrons: 354.000000  magneticMoment: [ Abs: 37.28907  Tot: +0.00000 ]
	SubspaceRotationAdjust: set factor to 0.236
ElecMinimize: Iter: 178  F: -2113.205099632014026  |grad|_K:  1.126e-06  alpha:  2.981e-01  linmin:  1.057e-05  t[s]:  14476.54
	FillingsUpdate:  mu: +0.112078305  nElectrons: 354.000000  magneticMoment: [ Abs: 37.29930  Tot: +0.00000 ]
	SubspaceRotationAdjust: set factor to 0.212
ElecMinimize: Iter: 179  F: -2113.205150913083344  |grad|_K:  1.034e-06  alpha:  2.324e-01  linmin: -1.211e-05  t[s]:  14555.42
	FillingsUpdate:  mu: +0.111832466  nElectrons: 354.000000  magneticMoment: [ Abs: 37.29585  Tot: -0.00000 ]
	SubspaceRotationAdjust: set factor to 0.242
ElecMinimize: Iter: 180  F: -2113.205218013441026  |grad|_K:  9.945e-07  alpha:  3.589e-01  linmin:  2.452e-05  t[s]:  14634.87
	FillingsUpdate:  mu: +0.111530261  nElectrons: 354.000000  magneticMoment: [ Abs: 37.29192  Tot: +0.00000 ]
	SubspaceRotationAdjust: set factor to 0.277
ElecMinimize: Iter: 181  F: -2113.205282753907795  |grad|_K:  1.027e-06  alpha:  3.761e-01  linmin:  1.502e-05  t[s]:  14713.02
	FillingsUpdate:  mu: +0.112297048  nElectrons: 354.000000  magneticMoment: [ Abs: 37.29865  Tot: -0.00000 ]
	SubspaceRotationAdjust: set factor to 0.262
ElecMinimize: Iter: 182  F: -2113.205334529783613  |grad|_K:  1.120e-06  alpha:  2.821e-01  linmin: -8.499e-06  t[s]:  14788.12
	FillingsUpdate:  mu: +0.111426031  nElectrons: 354.000000  magneticMoment: [ Abs: 37.28675  Tot: +0.00000 ]
	SubspaceRotationAdjust: set factor to 0.231
ElecMinimize: Iter: 183  F: -2113.205381367262817  |grad|_K:  1.020e-06  alpha:  2.127e-01  linmin:  6.240e-06  t[s]:  14865.22
	FillingsUpdate:  mu: +0.111913787  nElectrons: 354.000000  magneticMoment: [ Abs: 37.28642  Tot: +0.00000 ]
	SubspaceRotationAdjust: set factor to 0.268
ElecMinimize: Iter: 184  F: -2113.205439670249689  |grad|_K:  9.417e-07  alpha:  3.206e-01  linmin:  1.867e-06  t[s]:  14939.03
	FillingsUpdate:  mu: +0.112032717  nElectrons: 354.000000  magneticMoment: [ Abs: 37.28162  Tot: +0.00000 ]
	SubspaceRotationAdjust: set factor to 0.32
ElecMinimize: Iter: 185  F: -2113.205497610175371  |grad|_K:  9.593e-07  alpha:  3.739e-01  linmin:  7.970e-06  t[s]:  15016.77
	FillingsUpdate:  mu: +0.111273096  nElectrons: 354.000000  magneticMoment: [ Abs: 37.26760  Tot: -0.00000 ]
	SubspaceRotationAdjust: set factor to 0.31
ElecMinimize: Iter: 186  F: -2113.205548687072678  |grad|_K:  1.127e-06  alpha:  3.177e-01  linmin:  7.308e-06  t[s]:  15091.43
	FillingsUpdate:  mu: +0.112224464  nElectrons: 354.000000  magneticMoment: [ Abs: 37.27103  Tot: +0.00000 ]
	SubspaceRotationAdjust: set factor to 0.265
ElecMinimize: Iter: 187  F: -2113.205590421422130  |grad|_K:  1.132e-06  alpha:  1.893e-01  linmin:  8.144e-06  t[s]:  15166.90
	FillingsUpdate:  mu: +0.111679075  nElectrons: 354.000000  magneticMoment: [ Abs: 37.25489  Tot: -0.00000 ]
	SubspaceRotationAdjust: set factor to 0.296
ElecMinimize: Iter: 188  F: -2113.205653097688355  |grad|_K:  1.018e-06  alpha:  2.807e-01  linmin:  1.914e-05  t[s]:  15245.96
[...]
	FillingsUpdate:  mu: +0.115810188  nElectrons: 354.000000  magneticMoment: [ Abs: 37.52121  Tot: +0.00000 ]
	SubspaceRotationAdjust: set factor to 0.467
ElecMinimize: Iter:  10  F: -2113.255476543566147  |grad|_K:  1.648e-07  alpha:  3.073e-01  linmin: -1.568e-05  t[s]: 111453.59
	FillingsUpdate:  mu: +0.115648160  nElectrons: 354.000000  magneticMoment: [ Abs: 37.52013  Tot: -0.00000 ]
	SubspaceRotationAdjust: set factor to 0.501
ElecMinimize: Iter:  11  F: -2113.255478173418396  |grad|_K:  1.189e-07  alpha:  3.428e-01  linmin:  3.511e-06  t[s]: 111531.02
	FillingsUpdate:  mu: +0.115678585  nElectrons: 354.000000  magneticMoment: [ Abs: 37.52015  Tot: -0.00000 ]
	SubspaceRotationAdjust: set factor to 0.582
ElecMinimize: Iter:  12  F: -2113.255479104605456  |grad|_K:  9.422e-08  alpha:  3.765e-01  linmin: -1.065e-06  t[s]: 111607.85
	FillingsUpdate:  mu: +0.115722609  nElectrons: 354.000000  magneticMoment: [ Abs: 37.52015  Tot: +0.00000 ]
	SubspaceRotationAdjust: set factor to 0.674
ElecMinimize: Iter:  13  F: -2113.255479629385263  |grad|_K:  7.518e-08  alpha:  3.379e-01  linmin: -2.179e-06  t[s]: 111685.17
	FillingsUpdate:  mu: +0.115636950  nElectrons: 354.000000  magneticMoment: [ Abs: 37.51946  Tot: -0.00000 ]
	SubspaceRotationAdjust: set factor to 0.722
ElecMinimize: Iter:  14  F: -2113.255480002753302  |grad|_K:  7.059e-08  alpha:  3.775e-01  linmin:  7.193e-07  t[s]: 111760.07
	FillingsUpdate:  mu: +0.115749168  nElectrons: 354.000000  magneticMoment: [ Abs: 37.51995  Tot: +0.00000 ]
	SubspaceRotationAdjust: set factor to 0.691
ElecMinimize: Iter:  15  F: -2113.255480281710334  |grad|_K:  6.888e-08  alpha:  3.200e-01  linmin: -6.543e-06  t[s]: 111840.57
	FillingsUpdate:  mu: +0.115641777  nElectrons: 354.000000  magneticMoment: [ Abs: 37.51910  Tot: -0.00000 ]
	SubspaceRotationAdjust: set factor to 0.664
ElecMinimize: Iter:  16  F: -2113.255480556283146  |grad|_K:  6.639e-08  alpha:  3.310e-01  linmin:  3.355e-06  t[s]: 111916.34
ElecMinimize: Converged (|Delta F|<1.000000e-06 for 5 iters).
Setting wave functions to eigenvectors of Hamiltonian

# Ionic positions in lattice coordinates:
ion Ni  -0.030096874613548   0.083084580420529   0.186965928965600 1
ion Ni   0.000000000000000   0.000000000000000  -0.050000000000000 0
ion Ni   0.000000000000000   0.500000000000000  -0.050000000000000 0
ion Ni   0.500000000000000   0.500000000000000  -0.050000000000000 0
ion Ni   0.250000000000000   0.750000000000000  -0.150000000000000 0
ion Ni  -0.250000000000000   0.250000000000000  -0.150000000000000 0
ion V   0.472906278930234   0.001307543376538   0.160804812186709 1
ion V  -0.024414526875131   0.529642612866827   0.161268800996242 1
ion V   0.242326666249752   0.249667448994899   0.052474875681063 1
ion V   0.244742607732418   0.750771352766622   0.051973997464230 1
ion V  -0.251481080996878   0.248449442016287   0.053164063996462 1
ion V  -0.256265321493739   0.750598174189121   0.053514885391739 1
ion Cr   0.474763664361526   0.502511006970598   0.168213159942709 1
ion Co   0.500000000000000   0.000000000000000  -0.050000000000000 0
ion Co   0.250000000000000   0.250000000000000  -0.150000000000000 0
ion Co  -0.250000000000000   0.750000000000000  -0.150000000000000 0
ion O   0.227996688909917   0.258108487751020   0.156719816135229 1
ion O   0.243076279627673   0.740285158663690   0.149646162880619 1
ion O  -0.279833078289560   0.256899096509062   0.155170327653114 1
ion O  -0.292545094724018   0.741307830758502   0.154307479024058 1
ion O   0.002517645648338  -0.010044779614109   0.045169772442359 1
ion O   0.485045294492325  -0.008090427631268   0.059073482634738 1
ion O   0.002214076903342   0.509441819698314   0.051473241575282 1
ion O   0.483735840255011   0.508574491530239   0.044308892502120 1
ion O   0.250000000000000   0.250000000000000  -0.050000000000000 0
ion O   0.250000000000000   0.750000000000000  -0.050000000000000 0
ion O  -0.250000000000000   0.250000000000000  -0.050000000000000 0
ion O  -0.250000000000000   0.750000000000000  -0.050000000000000 0
ion O   0.000000000000000   0.000000000000000  -0.150000000000000 0
ion O   0.500000000000000   0.000000000000000  -0.150000000000000 0
ion O   0.000000000000000   0.500000000000000  -0.150000000000000 0
ion O   0.500000000000000   0.500000000000000  -0.150000000000000 0
ion O  -0.007336824802620  -0.046306812930407   0.263821944346202 1
ion H   0.028062329001093   0.051125489950998   0.297836939106656 1

# Forces in Lattice coordinates:
force Ni  -0.001590243263638   0.004448960238228   0.005740442451103 1
force Ni  -0.002641367633430  -0.008749870340641  -0.660239398125434 0
force Ni  -0.019530953748221   0.005354065982215  -0.663742010142145 0
force Ni  -0.007354298654746   0.008512460653894  -0.701009542309563 0
force Ni   0.003748372442248   0.008356742382961   0.545954194704949 0
force Ni   0.000011484824669  -0.004640978622834   0.554193297032569 0
force V   0.003595409584232   0.001264932073275   0.007724214595994 1
force V   0.005113894198879  -0.003928143147406  -0.002910508507087 1
force V  -0.001604654322362  -0.000196570475961  -0.005055693169347 1
force V   0.002508845808312   0.000269606950439  -0.003599728430273 1
force V  -0.000161302530928   0.000691594028490   0.015742340033266 1
force V   0.002562378884059  -0.000717850068331   0.003771392339107 1
force Cr   0.004848169936278  -0.001160313923933   0.007895395825333 1
force Co  -0.003477173464044   0.009436672642132  -0.463418215132927 0
force Co   0.024520796165510  -0.007861110655791  -0.159923126046854 0
force Co  -0.003902183391068  -0.019592158616172  -0.148278924679780 0
force O   0.001826300624320  -0.003228987000488   0.001723015170072 1
force O   0.004308458207018  -0.001615328725135  -0.013178452740907 1
force O   0.003323309169392   0.002803264761224  -0.003907328295411 1
force O   0.005414680763492   0.004071275972458  -0.002686144491437 1
force O  -0.001163891617622  -0.001433509140027   0.013744188799738 1
force O   0.001915034141720   0.000590502636784  -0.002305179709829 1
force O   0.000673553039811   0.001225625922510  -0.007686602012250 1
force O  -0.002141733640552   0.001923286112277  -0.008574909466844 1
force O  -0.021158074562577   0.011670440720406   0.406509763688926 0
force O  -0.039190616283691  -0.026551165611486   0.105400091862132 0
force O   0.050065148052776   0.045459156205918   0.111214628340810 0
force O   0.032340833612946  -0.020300356657960   0.420906659597989 0
force O   0.000232145776133  -0.000866892784565   0.317875851821440 0
force O  -0.014161215047904  -0.000312008479254  -0.357517875540553 0
force O  -0.000385765352406   0.004202212451522   0.321613294317638 0
force O  -0.006109916535457   0.007370532300973   0.264504172041636 0
force O  -0.000811819791154  -0.005605731505176   0.016894489433538 1
force H  -0.004757750510618  -0.002954988333225   0.009043350916582 1

# Energy components:
   Eewald =     5284.8233657686123479
       EH =     7191.5325607844742990
     Eloc =   -14739.8965284177502326
      Enl =     -566.6997553621138195
   Epulay =       -0.0004871405826656
      Exc =     -254.0285743525391240
       KE =      969.6427015747718769
        U =        1.3718054792406515
-------------------------------------
     Etot =    -2113.2549116658879029
       TS =        0.0005688903953341
-------------------------------------
        F =    -2113.2554805562831461

IonicMinimize: Iter:  33  F: -2113.255480556283146  |grad|_K:  2.391e-04  alpha:  1.000e+00  linmin: -1.116e-02  t[s]: 111927.81

#--- Lowdin population analysis ---
# oxidation-state Ni +3.709 +3.508 +3.569 +3.519 +3.870 +3.856
# magnetic-moments Ni +0.909 +0.901 +0.970 -0.904 -1.021 +1.012
# oxidation-state V +1.136 +1.118 +1.033 +1.260 +1.059 +1.040
# magnetic-moments V -2.829 +2.876 +2.828 +2.101 -2.882 -2.838
# oxidation-state Cr +2.886
# magnetic-moments Cr -4.008
# oxidation-state Co +1.129 +1.299 +1.298
# magnetic-moments Co +1.205 -2.794 +2.794
# oxidation-state O -0.873 -0.869 -0.860 -0.888 -0.839 -0.914 -0.868 -0.854 -0.821 -0.761 -0.764 -0.821 -0.844 -0.930 -0.838 -0.845 -0.763
# magnetic-moments O +0.162 +0.044 +0.201 +0.092 +0.098 +0.015 +0.051 -0.138 +0.001 -0.020 +0.162 +0.099 +0.113 +0.041 +0.166 -0.114 +0.299
# oxidation-state H +0.389
# magnetic-moments H -0.003


-------- Electronic minimization -----------
	FillingsUpdate:  mu: +0.125015447  nElectrons: 354.000000  magneticMoment: [ Abs: 37.52285  Tot: +0.00000 ]
ElecMinimize: Iter:   0  F: -2113.107343870032309  |grad|_K:  6.585e-05  alpha:  1.000e+00
	FillingsUpdate:  mu: +0.112188029  nElectrons: 354.000000  magneticMoment: [ Abs: 37.50696  Tot: +0.00000 ]
	SubspaceRotationAdjust: set factor to 0.697
ElecMinimize: Iter:   1  F: -2113.248297691427069  |grad|_K:  1.074e-05  alpha:  1.930e-01  linmin:  6.783e-03  t[s]: 112031.28
	FillingsUpdate:  mu: +0.119666938  nElectrons: 354.000000  magneticMoment: [ Abs: 37.54896  Tot: -0.00000 ]
	SubspaceRotationAdjust: set factor to 0.601
ElecMinimize: Iter:   2  F: -2113.253069401996527  |grad|_K:  5.711e-06  alpha:  2.405e-01  linmin: -2.216e-03  t[s]: 112111.97
	FillingsUpdate:  mu: +0.113757313  nElectrons: 354.000000  magneticMoment: [ Abs: 37.49900  Tot: +0.00000 ]
	SubspaceRotationAdjust: set factor to 0.441
ElecMinimize: Iter:   3  F: -2113.254219320154789  |grad|_K:  3.535e-06  alpha:  1.891e-01  linmin: -3.340e-04  t[s]: 112190.15
	FillingsUpdate:  mu: +0.116269653  nElectrons: 354.000000  magneticMoment: [ Abs: 37.52486  Tot: -0.00000 ]
	SubspaceRotationAdjust: set factor to 0.537
ElecMinimize: Iter:   4  F: -2113.254968290037141  |grad|_K:  2.289e-06  alpha:  3.352e-01  linmin:  4.414e-05  t[s]: 112269.87
	FillingsUpdate:  mu: +0.116828722  nElectrons: 354.000000  magneticMoment: [ Abs: 37.52264  Tot: -0.00000 ]
	SubspaceRotationAdjust: set factor to 0.646
ElecMinimize: Iter:   5  F: -2113.255274947262478  |grad|_K:  1.583e-06  alpha:  3.368e-01  linmin: -3.711e-06  t[s]: 112347.96
	FillingsUpdate:  mu: +0.114692482  nElectrons: 354.000000  magneticMoment: [ Abs: 37.50859  Tot: -0.00000 ]
	SubspaceRotationAdjust: set factor to 0.544
ElecMinimize: Iter:   6  F: -2113.255406345507708  |grad|_K:  1.211e-06  alpha:  2.998e-01  linmin: -2.229e-05  t[s]: 112423.36
	FillingsUpdate:  mu: +0.116378321  nElectrons: 354.000000  magneticMoment: [ Abs: 37.51977  Tot: +0.00000 ]
	SubspaceRotationAdjust: set factor to 0.392
ElecMinimize: Iter:   7  F: -2113.255456352299461  |grad|_K:  6.803e-07  alpha:  1.970e-01  linmin: -5.510e-06  t[s]: 112501.44
	FillingsUpdate:  mu: +0.115981009  nElectrons: 354.000000  magneticMoment: [ Abs: 37.51648  Tot: -0.00000 ]
	SubspaceRotationAdjust: set factor to 0.464
ElecMinimize: Iter:   8  F: -2113.255481558027441  |grad|_K:  4.035e-07  alpha:  3.115e-01  linmin:  1.542e-05  t[s]: 112579.14
	FillingsUpdate:  mu: +0.115666629  nElectrons: 354.000000  magneticMoment: [ Abs: 37.51427  Tot: -0.00000 ]
	SubspaceRotationAdjust: set factor to 0.482
ElecMinimize: Iter:   9  F: -2113.255489759935244  |grad|_K:  2.638e-07  alpha:  2.886e-01  linmin: -2.588e-06  t[s]: 112657.90
	FillingsUpdate:  mu: +0.116007119  nElectrons: 354.000000  magneticMoment: [ Abs: 37.51560  Tot: -0.00000 ]
	SubspaceRotationAdjust: set factor to 0.446
ElecMinimize: Iter:  10  F: -2113.255493261068295  |grad|_K:  1.803e-07  alpha:  2.875e-01  linmin: -2.776e-05  t[s]: 112735.55
	FillingsUpdate:  mu: +0.115823791  nElectrons: 354.000000  magneticMoment: [ Abs: 37.51411  Tot: -0.00000 ]
	SubspaceRotationAdjust: set factor to 0.481
ElecMinimize: Iter:  11  F: -2113.255495223861999  |grad|_K:  1.294e-07  alpha:  3.444e-01  linmin:  3.643e-06  t[s]: 112809.93
	FillingsUpdate:  mu: +0.115848535  nElectrons: 354.000000  magneticMoment: [ Abs: 37.51385  Tot: -0.00000 ]
	SubspaceRotationAdjust: set factor to 0.565
ElecMinimize: Iter:  12  F: -2113.255496274520738  |grad|_K:  1.076e-07  alpha:  3.591e-01  linmin: -1.438e-06  t[s]: 112887.48
	FillingsUpdate:  mu: +0.115908956  nElectrons: 354.000000  magneticMoment: [ Abs: 37.51365  Tot: +0.00000 ]
	SubspaceRotationAdjust: set factor to 0.653
ElecMinimize: Iter:  13  F: -2113.255496999747720  |grad|_K:  9.055e-08  alpha:  3.583e-01  linmin:  4.048e-08  t[s]: 112964.73
	FillingsUpdate:  mu: +0.115791353  nElectrons: 354.000000  magneticMoment: [ Abs: 37.51244  Tot: +0.00000 ]
	SubspaceRotationAdjust: set factor to 0.679
ElecMinimize: Iter:  14  F: -2113.255497540756096  |grad|_K:  8.886e-08  alpha:  3.773e-01  linmin: -5.177e-07  t[s]: 113043.58
	FillingsUpdate:  mu: +0.115929203  nElectrons: 354.000000  magneticMoment: [ Abs: 37.51276  Tot: -0.00000 ]
	SubspaceRotationAdjust: set factor to 0.64
ElecMinimize: Iter:  15  F: -2113.255497993993686  |grad|_K:  8.503e-08  alpha:  3.281e-01  linmin: -6.282e-06  t[s]: 113120.97
	FillingsUpdate:  mu: +0.115812193  nElectrons: 354.000000  magneticMoment: [ Abs: 37.51156  Tot: +0.00000 ]
	SubspaceRotationAdjust: set factor to 0.637
ElecMinimize: Iter:  16  F: -2113.255498419443484  |grad|_K:  7.704e-08  alpha:  3.362e-01  linmin: -3.100e-06  t[s]: 113199.00
	FillingsUpdate:  mu: +0.115877864  nElectrons: 354.000000  magneticMoment: [ Abs: 37.51133  Tot: +0.00000 ]
	SubspaceRotationAdjust: set factor to 0.695
ElecMinimize: Iter:  17  F: -2113.255498833585534  |grad|_K:  7.102e-08  alpha:  3.991e-01  linmin: -4.456e-07  t[s]: 113275.63
ElecMinimize: Converged (|Delta F|<1.000000e-06 for 5 iters).
Setting wave functions to eigenvectors of Hamiltonian

# Ionic positions in lattice coordinates:
ion Ni  -0.029917929260937   0.084951816983220   0.187445721225770 1
ion Ni   0.000000000000000   0.000000000000000  -0.050000000000000 0
ion Ni   0.000000000000000   0.500000000000000  -0.050000000000000 0
ion Ni   0.500000000000000   0.500000000000000  -0.050000000000000 0
ion Ni   0.250000000000000   0.750000000000000  -0.150000000000000 0
ion Ni  -0.250000000000000   0.250000000000000  -0.150000000000000 0
ion V   0.472982782730797   0.001413402335371   0.160812462919073 1
ion V  -0.024612399002454   0.530416346465729   0.161291278917758 1
ion V   0.242008870739048   0.249686696129516   0.052478617379787 1
ion V   0.244561345748243   0.750856486233092   0.051965637529691 1
ion V  -0.251639951773860   0.248493966908840   0.053194148840236 1
ion V  -0.256448820367745   0.750634559798848   0.053503744502606 1
ion Cr   0.474689681511752   0.502593893640710   0.168241964181105 1
ion Co   0.500000000000000   0.000000000000000  -0.050000000000000 0
ion Co   0.250000000000000   0.250000000000000  -0.150000000000000 0
ion Co  -0.250000000000000   0.750000000000000  -0.150000000000000 0
ion O   0.228178223574535   0.258262659297789   0.156769722465538 1
ion O   0.243158765193958   0.740415712980514   0.149564525206086 1
ion O  -0.280126576738739   0.257229703240664   0.155175101139690 1
ion O  -0.292976625493429   0.741314040133673   0.154223002922154 1
ion O   0.002306478125881  -0.010074361134791   0.045189497637975 1
ion O   0.484848396553462  -0.008006786646574   0.059076564600804 1
ion O   0.002014252564495   0.509548981878304   0.051471583950349 1
ion O   0.483414859364292   0.508657544234716   0.044303744911611 1
ion O   0.250000000000000   0.250000000000000  -0.050000000000000 0
ion O   0.250000000000000   0.750000000000000  -0.050000000000000 0
ion O  -0.250000000000000   0.250000000000000  -0.050000000000000 0
ion O  -0.250000000000000   0.750000000000000  -0.050000000000000 0
ion O   0.000000000000000   0.000000000000000  -0.150000000000000 0
ion O   0.500000000000000   0.000000000000000  -0.150000000000000 0
ion O   0.000000000000000   0.500000000000000  -0.150000000000000 0
ion O   0.500000000000000   0.500000000000000  -0.150000000000000 0
ion O  -0.007593250049808  -0.047239230102418   0.263866341611865 1
ion H   0.025779119919986   0.049163722998447   0.298383335040228 1

# Forces in Lattice coordinates:
force Ni  -0.002113893725669  -0.004795173679704  -0.044909944555286 1
force Ni  -0.003439034232216  -0.009789853541359  -0.627482609852669 0
force Ni  -0.020159819428806   0.006563193836986  -0.634159118109567 0
force Ni  -0.007529367515987   0.009693545918463  -0.670712514607986 0
force Ni   0.004118253894329   0.008640246277892   0.563714829091101 0
force Ni  -0.000384712052802  -0.004902115661835   0.570425640934110 0
force V  -0.000405696497938   0.000265802859609  -0.002305473635231 1
force V   0.007035679964582  -0.005452164049005  -0.016763751576478 1
force V   0.001240165802700  -0.000781031834970   0.008092418527177 1
force V   0.003092124280349   0.000142640033143   0.001921266358922 1
force V   0.001153808940756   0.000105105492446   0.010205153431235 1
force V   0.001899029229250  -0.000013271487699   0.006940672616228 1
force Cr   0.003719584570440  -0.001122094890947   0.000706870869548 1
force Co  -0.003526163884140   0.008394783379170  -0.436784275698370 0
force Co   0.024693654145150  -0.008082567908011  -0.145008477724176 0
force Co  -0.004145781256937  -0.019359898712971  -0.132263545553635 0
force O   0.002112356035778  -0.001422453606259   0.008868232796755 1
force O   0.004283224403086  -0.000580131805933  -0.004497825629901 1
force O   0.005646240773293   0.000089997897723   0.008593568303411 1
force O   0.005319246062418   0.006486330598874   0.000109849584164 1
force O  -0.002792165343085  -0.000488369554829   0.008884771909321 1
force O   0.000607110653813   0.000879987384581   0.002845344172612 1
force O  -0.001144224598990   0.000271568308760  -0.006909959759824 1
force O  -0.003275254079528   0.001308720485917  -0.007626439831624 1
force O  -0.021486485481894   0.011583399865386   0.407163294413701 0
force O  -0.039226644163999  -0.026039327746453   0.101419487168620 0
force O   0.049606834721930   0.045323251710326   0.109610034846158 0
force O   0.032378672690358  -0.020541257040748   0.418616964688330 0
force O   0.000308901228063  -0.000841267852697   0.313571276312178 0
force O  -0.014065242009333  -0.000308928634215  -0.359390805727479 0
force O  -0.000358586313694   0.004145887055331   0.318247443742317 0
force O  -0.006016736559550   0.007377137180345   0.260922200343927 0
force O   0.001158942858003   0.002630683166579   0.074966359271826 1
force H  -0.008220608485551  -0.014211221726888  -0.043092718825491 1

# Energy components:
   Eewald =     5282.0887062343545040
       EH =     7188.8587850929607157
     Eloc =   -14734.4871208032527647
      Enl =     -566.6959923919348512
   Epulay =       -0.0004871405826656
      Exc =     -254.0270623489008130
       KE =      969.6363716340759993
        U =        1.3718717965585145
-------------------------------------
     Etot =    -2113.2549279267213933
       TS =        0.0005709068643407
-------------------------------------
        F =    -2113.2554988335855342

IonicMinimize: Iter:  34  F: -2113.255498833585534  |grad|_K:  4.417e-04  alpha:  1.000e+00  linmin:  6.574e-03  t[s]: 113286.94
IonicMinimize: Converged (|Delta F|<1.000000e-04 for 3 iters).

#--- Lowdin population analysis ---
# oxidation-state Ni +3.706 +3.508 +3.568 +3.519 +3.870 +3.856
# magnetic-moments Ni +0.906 +0.900 +0.970 -0.904 -1.021 +1.012
# oxidation-state V +1.137 +1.117 +1.033 +1.261 +1.059 +1.041
# magnetic-moments V -2.826 +2.876 +2.829 +2.100 -2.882 -2.838
# oxidation-state Cr +2.885
# magnetic-moments Cr -4.008
# oxidation-state Co +1.129 +1.299 +1.298
# magnetic-moments Co +1.206 -2.794 +2.794
# oxidation-state O -0.873 -0.868 -0.860 -0.888 -0.839 -0.914 -0.868 -0.854 -0.821 -0.761 -0.764 -0.821 -0.844 -0.930 -0.838 -0.845 -0.762
# magnetic-moments O +0.163 +0.044 +0.201 +0.092 +0.098 +0.015 +0.052 -0.139 +0.001 -0.020 +0.162 +0.099 +0.113 +0.041 +0.166 -0.114 +0.299
# oxidation-state H +0.389
# magnetic-moments H -0.003


Dumping 'run.ionpos' ... done
Dumping 'run.lattice' ... done
Dumping 'run.Ecomponents' ... done
End date and time: Sat May 10 03:21:16 2025  (Duration: 1-7:28:10.15)
Done!
