/var/spool/slurmd/job44411/slurm_script: line 9: module: command not found
/var/spool/slurmd/job44411/slurm_script: line 10: module: command not found

*************** JDFTx 1.7.0  ***************

Start date and time: Sat May 17 19:02:22 2025
Executable /data2/jt577/jdftx_eat_withLibXC/build/jdftx with command-line: -i /data2/jt577/May_2025/Relax_Mag_litU/rel13+1_6/OH/runs/calc_/run.in
Running on hosts (process indices):  node3405 (0-8)
Divided in process groups (process indices):  0 (0)  1 (1)  2 (2)  3 (3)  4 (4)  5 (5)  6 (6)  7 (7)  8 (8)
Resource initialization completed at t[s]:      0.00
Run totals: 9 processes, 90 threads, 0 GPUs


Input parsed successfully to the following command list (including defaults):

add-mix 
add-U 	Ni d 0.235196 \
	V d 0.113923 \
	Cr d 0.128623 \
	Co d 0.121273
basis kpoint-dependent
coords-type Lattice
core-overlap-check vector
coulomb-interaction Periodic
davidson-band-ratio 1.1
dump End IonicPositions Lattice Ecomponents
dump-name run.$VAR
elec-cutoff 30
elec-eigen-algo Davidson
elec-ex-corr gga-x-rpbe gga-c-pbe
elec-smearing Fermi 0.001
electronic-minimize  \
	dirUpdateScheme      FletcherReeves \
	linminMethod         DirUpdateRecommended \
	nIterations          1000 \
	history              15 \
	knormThreshold       0 \
	energyDiffThreshold  1e-06 \
	nEnergyDiff          5 \
	alphaTstart          1 \
	alphaTmin            1e-10 \
	updateTestStepSize   yes \
	alphaTreduceFactor   0.1 \
	alphaTincreaseFactor 3 \
	nAlphaAdjustMax      3 \
	wolfeEnergy          0.0001 \
	wolfeGradient        0.9 \
	fdTest               no
exchange-regularization WignerSeitzTruncated
fluid None
fluid-ex-corr (null) lda-PZ
fluid-gummel-loop 10 1.000000e-05
fluid-minimize  \
	dirUpdateScheme      PolakRibiere \
	linminMethod         DirUpdateRecommended \
	nIterations          100 \
	history              15 \
	knormThreshold       0 \
	energyDiffThreshold  0 \
	nEnergyDiff          2 \
	alphaTstart          1 \
	alphaTmin            1e-10 \
	updateTestStepSize   yes \
	alphaTreduceFactor   0.1 \
	alphaTincreaseFactor 3 \
	nAlphaAdjustMax      3 \
	wolfeEnergy          0.0001 \
	wolfeGradient        0.9 \
	fdTest               no
fluid-solvent H2O 55.338 ScalarEOS \
	epsBulk 78.4 \
	pMol 0.92466 \
	epsInf 1.77 \
	Pvap 1.06736e-10 \
	sigmaBulk 4.62e-05 \
	Rvdw 2.61727 \
	Res 1.42 \
	tauNuc 343133 \
	poleEl 15 7 1
forces-output-coords Positions
initial-magnetic-moments  \
	Ni 1 -1 -1 1 -1 1 \
	V -1 1 1 1 -1 -1 \
	Cr -1 \
	Co 1 -1 1
initial-state run.$VAR
ion Ni  0.000000000000000   0.000000000000000   0.150000000000000 1
ion Ni  0.000000000000000   0.000000000000000  -0.050000000000000 0
ion Ni  0.000000000000000   0.500000000000000  -0.050000000000000 0
ion Ni  0.500000000000000   0.500000000000000  -0.050000000000000 0
ion Ni  0.250000000000000   0.750000000000000  -0.150000000000000 0
ion Ni -0.250000000000000   0.250000000000000  -0.150000000000000 0
ion V  0.500000000000000   0.000000000000000   0.150000000000000 1
ion V  0.000000000000000   0.500000000000000   0.150000000000000 1
ion V  0.250000000000000   0.250000000000000   0.050000000000000 1
ion V  0.250000000000000   0.750000000000000   0.050000000000000 1
ion V -0.250000000000000   0.250000000000000   0.050000000000000 1
ion V -0.250000000000000   0.750000000000000   0.050000000000000 1
ion Cr  0.500000000000000   0.500000000000000   0.150000000000000 1
ion Co  0.500000000000000   0.000000000000000  -0.050000000000000 0
ion Co  0.250000000000000   0.250000000000000  -0.150000000000000 0
ion Co -0.250000000000000   0.750000000000000  -0.150000000000000 0
ion O  0.250000000000000   0.250000000000000   0.150000000000000 1
ion O  0.250000000000000   0.750000000000000   0.150000000000000 1
ion O -0.250000000000000   0.250000000000000   0.150000000000000 1
ion O -0.250000000000000   0.750000000000000   0.150000000000000 1
ion O  0.000000000000000   0.000000000000000   0.050000000000000 1
ion O  0.500000000000000   0.000000000000000   0.050000000000000 1
ion O  0.000000000000000   0.500000000000000   0.050000000000000 1
ion O  0.500000000000000   0.500000000000000   0.050000000000000 1
ion O  0.250000000000000   0.250000000000000  -0.050000000000000 0
ion O  0.250000000000000   0.750000000000000  -0.050000000000000 0
ion O -0.250000000000000   0.250000000000000  -0.050000000000000 0
ion O -0.250000000000000   0.750000000000000  -0.050000000000000 0
ion O  0.000000000000000   0.000000000000000  -0.150000000000000 0
ion O  0.500000000000000   0.000000000000000  -0.150000000000000 0
ion O  0.000000000000000   0.500000000000000  -0.150000000000000 0
ion O  0.500000000000000   0.500000000000000  -0.150000000000000 0
ion O -0.008040138212305  -0.008269777577920   0.235000196603227 1
ion H  0.095742872057713   0.094897636790041   0.252810710255288 1
ion-species SG15/$ID_ONCV_PBE.upf
ion-width 0
ionic-minimize  \
	dirUpdateScheme      L-BFGS \
	linminMethod         DirUpdateRecommended \
	nIterations          1000 \
	history              15 \
	knormThreshold       0.0001 \
	energyDiffThreshold  0.0001 \
	nEnergyDiff          3 \
	alphaTstart          1 \
	alphaTmin            1e-10 \
	updateTestStepSize   yes \
	alphaTreduceFactor   0.1 \
	alphaTincreaseFactor 3 \
	nAlphaAdjustMax      3 \
	wolfeEnergy          0.0001 \
	wolfeGradient        0.9 \
	fdTest               no
kpoint   0.500000000000   0.500000000000   0.500000000000  1.00000000000000
kpoint-folding 3 3 1 
latt-move-scale 1 1 1
latt-scale 1 1 1 
lattice  \
	   8.140000000000001    8.140000000000001    0.000000000000000  \
	   8.140000000000001   -8.140000000000001    0.000000000000000  \
	   0.000000000000000    0.000000000000000   40.700000000000003 
lattice-minimize  \
	dirUpdateScheme      L-BFGS \
	linminMethod         DirUpdateRecommended \
	nIterations          0 \
	history              15 \
	knormThreshold       0 \
	energyDiffThreshold  1e-06 \
	nEnergyDiff          2 \
	alphaTstart          1 \
	alphaTmin            1e-10 \
	updateTestStepSize   yes \
	alphaTreduceFactor   0.1 \
	alphaTincreaseFactor 3 \
	nAlphaAdjustMax      3 \
	wolfeEnergy          0.0001 \
	wolfeGradient        0.9 \
	fdTest               no
lcao-params -1 1e-06 0.001
pcm-variant GLSSA13
spintype z-spin
subspace-rotation-factor 1 yes
symmetries none
symmetry-threshold 0.0001


Applied RMS atom displacement 0 bohrs to make symmetries exact.

---------- Initializing the Grid ----------
R = 
[         8.14         8.14            0  ]
[         8.14        -8.14            0  ]
[            0            0         40.7  ]
unit cell volume = 5393.53
G =
[   0.385945   0.385945         -0  ]
[   0.385945  -0.385945         -0  ]
[         -0         -0   0.154378  ]
Minimum fftbox size, Smin = [  60  60  204  ]
Chosen fftbox size, S = [  60  60  210  ]

---------- Exchange Correlation functional ----------
Initialized LibXC exchange functional 'Hammer, Hansen, and Norskov'
Initialized LibXC correlation functional 'Perdew, Burke & Ernzerhof'

---------- Setting up pseudopotentials ----------
Width of ionic core gaussian charges (only for fluid interactions / plotting) set to 0

Reading pseudopotential file '/data2/jt577/jdftx_eat_withLibXC/build/pseudopotentials/SG15/Ni_ONCV_PBE.upf':
  'Ni' pseudopotential, 'PBE' functional
  Generated using ONCVPSP code by D. R. Hamann
  Author: Martin Schlipf and Francois Gygi  Date: 150915.
  18 valence electrons, 4 orbitals, 6 projectors, 1292 radial grid points, with lMax = 2
  Transforming local potential to a uniform radial grid of dG=0.02 with 1419 points.
  Transforming nonlocal projectors to a uniform radial grid of dG=0.02 with 528 points.
    3S    l: 0   occupation:  2.0   eigenvalue: -4.081355
    3P    l: 1   occupation:  6.0   eigenvalue: -2.623460
    4S    l: 0   occupation:  2.0   eigenvalue: -0.207378
    3D    l: 2   occupation:  8.0   eigenvalue: -0.326118
  Transforming atomic orbitals to a uniform radial grid of dG=0.02 with 528 points.
  WARNING: large normalization error in atomic orbital 1s (integral: 0.000006).
  Core radius for overlap checks: 1.99 bohrs.
  Reading pulay file /data2/jt577/jdftx_eat_withLibXC/build/pseudopotentials/SG15/Ni_ONCV_PBE.pulay ... using dE_dnG = -7.250568e-04 computed for Ecut = 30.

Reading pseudopotential file '/data2/jt577/jdftx_eat_withLibXC/build/pseudopotentials/SG15/V_ONCV_PBE.upf':
  'V' pseudopotential, 'PBE' functional
  Generated using ONCVPSP code by D. R. Hamann
  Author: Martin Schlipf and Francois Gygi  Date: 150915.
  13 valence electrons, 4 orbitals, 6 projectors, 1536 radial grid points, with lMax = 2
  Transforming local potential to a uniform radial grid of dG=0.02 with 1419 points.
  Transforming nonlocal projectors to a uniform radial grid of dG=0.02 with 528 points.
    3S    l: 0   occupation:  2.0   eigenvalue: -2.581105
    3P    l: 1   occupation:  6.0   eigenvalue: -1.618486
    4S    l: 0   occupation:  2.0   eigenvalue: -0.172804
    3D    l: 2   occupation:  3.0   eigenvalue: -0.189795
  Transforming atomic orbitals to a uniform radial grid of dG=0.02 with 528 points.
  Core radius for overlap checks: 1.80 bohrs.
  Reading pulay file /data2/jt577/jdftx_eat_withLibXC/build/pseudopotentials/SG15/V_ONCV_PBE.pulay ... using dE_dnG = -1.698632e-04 computed for Ecut = 30.

Reading pseudopotential file '/data2/jt577/jdftx_eat_withLibXC/build/pseudopotentials/SG15/Cr_ONCV_PBE.upf':
  'Cr' pseudopotential, 'PBE' functional
  Generated using ONCVPSP code by D. R. Hamann
  Author: Martin Schlipf and Francois Gygi  Date: 150915.
  14 valence electrons, 4 orbitals, 6 projectors, 1160 radial grid points, with lMax = 2
  Transforming local potential to a uniform radial grid of dG=0.02 with 1419 points.
  Transforming nonlocal projectors to a uniform radial grid of dG=0.02 with 528 points.
    3S    l: 0   occupation:  2.0   eigenvalue: -2.865131
    3P    l: 1   occupation:  6.0   eigenvalue: -1.810600
    4S    l: 0   occupation:  2.0   eigenvalue: -0.180525
    3D    l: 2   occupation:  4.0   eigenvalue: -0.220312
  Transforming atomic orbitals to a uniform radial grid of dG=0.02 with 528 points.
  WARNING: large normalization error in atomic orbital 1s (integral: 0.000001).
  Core radius for overlap checks: 2.10 bohrs.
  Reading pulay file /data2/jt577/jdftx_eat_withLibXC/build/pseudopotentials/SG15/Cr_ONCV_PBE.pulay ... using dE_dnG = -9.817895e-06 computed for Ecut = 30.

Reading pseudopotential file '/data2/jt577/jdftx_eat_withLibXC/build/pseudopotentials/SG15/Co_ONCV_PBE.upf':
  'Co' pseudopotential, 'PBE' functional
  Generated using ONCVPSP code by D. R. Hamann
  Author: Martin Schlipf and Francois Gygi  Date: 150915.
  17 valence electrons, 4 orbitals, 6 projectors, 1388 radial grid points, with lMax = 2
  Transforming local potential to a uniform radial grid of dG=0.02 with 1419 points.
  Transforming nonlocal projectors to a uniform radial grid of dG=0.02 with 528 points.
    3S    l: 0   occupation:  2.0   eigenvalue: -3.763303
    3P    l: 1   occupation:  6.0   eigenvalue: -2.412101
    4S    l: 0   occupation:  2.0   eigenvalue: -0.201022
    3D    l: 2   occupation:  7.0   eigenvalue: -0.301498
  Transforming atomic orbitals to a uniform radial grid of dG=0.02 with 528 points.
  Core radius for overlap checks: 1.94 bohrs.
  Reading pulay file /data2/jt577/jdftx_eat_withLibXC/build/pseudopotentials/SG15/Co_ONCV_PBE.pulay ... using dE_dnG = -9.787391e-05 computed for Ecut = 30.

Reading pseudopotential file '/data2/jt577/jdftx_eat_withLibXC/build/pseudopotentials/SG15/O_ONCV_PBE.upf':
  'O' pseudopotential, 'PBE' functional
  Generated using ONCVPSP code by D. R. Hamann
  Author: Martin Schlipf and Francois Gygi  Date: 150915.
  6 valence electrons, 2 orbitals, 4 projectors, 936 radial grid points, with lMax = 1
  Transforming local potential to a uniform radial grid of dG=0.02 with 1419 points.
  Transforming nonlocal projectors to a uniform radial grid of dG=0.02 with 528 points.
    2S    l: 0   occupation:  2.0   eigenvalue: -0.880572
    2P    l: 1   occupation:  4.0   eigenvalue: -0.331869
  Transforming atomic orbitals to a uniform radial grid of dG=0.02 with 528 points.
  Core radius for overlap checks: 1.29 bohrs.
  Reading pulay file /data2/jt577/jdftx_eat_withLibXC/build/pseudopotentials/SG15/O_ONCV_PBE.pulay ... using dE_dnG = -8.209514e-03 computed for Ecut = 30.

Reading pseudopotential file '/data2/jt577/jdftx_eat_withLibXC/build/pseudopotentials/SG15/H_ONCV_PBE.upf':
  'H' pseudopotential, 'PBE' functional
  Generated using ONCVPSP code by D. R. Hamann
  Author: Martin Schlipf and Francois Gygi  Date: 150915.
  1 valence electrons, 1 orbitals, 2 projectors, 1166 radial grid points, with lMax = 0
  Transforming local potential to a uniform radial grid of dG=0.02 with 1419 points.
  Transforming nonlocal projectors to a uniform radial grid of dG=0.02 with 528 points.
    1S    l: 0   occupation:  1.0   eigenvalue: -0.238602
  Transforming atomic orbitals to a uniform radial grid of dG=0.02 with 528 points.
  Core radius for overlap checks: 1.01 bohrs.
  Reading pulay file /data2/jt577/jdftx_eat_withLibXC/build/pseudopotentials/SG15/H_ONCV_PBE.pulay ... using dE_dnG = -8.245991e-05 computed for Ecut = 30.

Initialized 6 species with 34 total atoms.

Folded 1 k-points by 3x3x1 to 9 k-points.

---------- Setting up k-points, bands, fillings ----------
No reducable k-points. 
Computing the number of bands and number of electrons
Calculating initial fillings.
nElectrons: 354.000000   nBands: 229   nStates: 18

----- Setting up reduced wavefunction bases (one per k-point) -----
average nbasis = 42312.000 , ideal nbasis = 42330.081

---------- Setting up ewald sum ----------
Optimum gaussian width for ewald sums = 3.887061 bohr.
Real space sum over 605 unit cells with max indices [  5  5  2  ]
Reciprocal space sum over 5915 terms with max indices [  6  6  17  ]

---------- Allocating electronic variables ----------
Initializing wave functions:  linear combination of atomic orbitals
Ni (M=1) pseudo-atom majority spin occupations:   s ( 1 0.5 )  p ( 3 )  d ( 5 )
Ni (M=1) pseudo-atom minority spin occupations:   s ( 1 0 )  p ( 3 )  d ( 4.5 )
V (M=1) pseudo-atom majority spin occupations:   s ( 1 0 )  p ( 3 )  d ( 3 )
V (M=1) pseudo-atom minority spin occupations:   s ( 1 0 )  p ( 3 )  d ( 2 )
Cr (M=1) pseudo-atom majority spin occupations:   s ( 1 0 )  p ( 3 )  d ( 3.5 )
Cr (M=1) pseudo-atom minority spin occupations:   s ( 1 0 )  p ( 3 )  d ( 2.5 )
Co (M=1) pseudo-atom majority spin occupations:   s ( 1 0 )  p ( 3 )  d ( 5 )
Co (M=1) pseudo-atom minority spin occupations:   s ( 1 0 )  p ( 3 )  d ( 4 )
O pseudo-atom occupations:   s ( 2 )  p ( 4 )
H pseudo-atom occupations:   s ( 1 )
	FillingsUpdate:  mu: +0.636011859  nElectrons: 354.000000  magneticMoment: [ Abs: 0.81353  Tot: +0.00000 ]
LCAOMinimize: Iter:   0  F: -1950.7925627170236567  |grad|_K:  1.200e-02  alpha:  1.000e+00
	FillingsUpdate:  mu: +2.115339657  nElectrons: 354.000000  magneticMoment: [ Abs: 5.58117  Tot: +0.00000 ]
LCAOMinimize: Iter:   1  F: -1966.1664769118833647  |grad|_K:  6.475e-02  alpha:  9.581e-02  linmin:  1.646e-01  cgtest: -2.871e-02  t[s]:     43.62
LCAOMinimize: 	Bad step direction: g.d > 0.
LCAOMinimize: 	Undoing step.
LCAOMinimize: 	Step failed: resetting search direction.
	FillingsUpdate:  mu: +2.115339657  nElectrons: 354.000000  magneticMoment: [ Abs: 5.58117  Tot: +0.00000 ]
LCAOMinimize: Iter:   2  F: -1966.1664769118833647  |grad|_K:  6.475e-02  alpha:  0.000e+00
	FillingsUpdate:  mu: +0.428467435  nElectrons: 354.000000  magneticMoment: [ Abs: 1.85061  Tot: +0.00000 ]
LCAOMinimize: Iter:   3  F: -1983.8921686143294210  |grad|_K:  2.548e-02  alpha:  4.690e-02  linmin:  3.814e-02  cgtest: -3.140e-01  t[s]:     69.08
	FillingsUpdate:  mu: -0.082734605  nElectrons: 354.000000  magneticMoment: [ Abs: 6.70185  Tot: -0.00000 ]
LCAOMinimize: Iter:   4  F: -1994.2917711693662568  |grad|_K:  4.324e-02  alpha:  4.653e-02  linmin:  3.762e-02  cgtest: -1.390e-01  t[s]:     83.78
LCAOMinimize: 	Bad step direction: g.d > 0.
LCAOMinimize: 	Undoing step.
LCAOMinimize: 	Step failed: resetting search direction.
	FillingsUpdate:  mu: -0.082734605  nElectrons: 354.000000  magneticMoment: [ Abs: 6.70185  Tot: -0.00000 ]
LCAOMinimize: Iter:   5  F: -1994.2917711693662568  |grad|_K:  4.324e-02  alpha:  0.000e+00
	FillingsUpdate:  mu: +0.190163601  nElectrons: 354.000000  magneticMoment: [ Abs: 9.11882  Tot: -0.00000 ]
LCAOMinimize: Iter:   6  F: -2001.0863004496029589  |grad|_K:  2.923e-02  alpha:  2.041e-02  linmin:  9.345e-02  cgtest: -7.698e-01  t[s]:    108.85
LCAOMinimize: 	Bad step direction: g.d > 0.
LCAOMinimize: 	Undoing step.
LCAOMinimize: 	Step failed: resetting search direction.
	FillingsUpdate:  mu: +0.190163601  nElectrons: 354.000000  magneticMoment: [ Abs: 9.11882  Tot: -0.00000 ]
LCAOMinimize: Iter:   7  F: -2001.0863004496029589  |grad|_K:  2.923e-02  alpha:  0.000e+00
	FillingsUpdate:  mu: +0.136983726  nElectrons: 354.000000  magneticMoment: [ Abs: 9.84873  Tot: +0.00000 ]
LCAOMinimize: Iter:   8  F: -2005.4352766359736506  |grad|_K:  9.574e-03  alpha:  1.315e-02  linmin: -4.905e-02  cgtest:  6.157e-01  t[s]:    133.68
LCAOMinimize: Encountered beta<0, resetting CG.
LCAOMinimize: 	Wrong curvature in test step, increasing alphaT to 3.944176e-02.
	FillingsUpdate:  mu: +0.091358353  nElectrons: 354.000000  magneticMoment: [ Abs: 10.02168  Tot: +0.00000 ]
LCAOMinimize: Iter:   9  F: -2006.7653160406641746  |grad|_K:  9.987e-03  alpha: -4.132e-02  linmin: -7.359e-02  cgtest:  8.322e-01  t[s]:    147.23
LCAOMinimize: 	Step increased F by 3.158811e+01, reducing alpha to 1.607231e-02.
	FillingsUpdate:  mu: +0.016455909  nElectrons: 354.000000  magneticMoment: [ Abs: 10.15220  Tot: -0.00000 ]
LCAOMinimize: Iter:  10  F: -2008.3617026812953554  |grad|_K:  8.507e-03  alpha:  1.607e-02  linmin: -8.338e-02  cgtest:  1.015e+00  t[s]:    172.04
LCAOMinimize: Encountered beta<0, resetting CG.
LCAOMinimize: 	Wrong curvature in test step, increasing alphaT to 4.821694e-02.
	FillingsUpdate:  mu: +0.060126702  nElectrons: 354.000000  magneticMoment: [ Abs: 10.51387  Tot: -0.00000 ]
LCAOMinimize: Iter:  11  F: -2009.5508149472227615  |grad|_K:  8.587e-03  alpha: -1.093e-01  linmin: -8.188e-02  cgtest:  8.687e-01  t[s]:    185.72
LCAOMinimize: 	Step increased F by 1.776986e+00, reducing alpha to 1.199662e-02.
	FillingsUpdate:  mu: +0.069683436  nElectrons: 354.000000  magneticMoment: [ Abs: 10.61678  Tot: +0.00000 ]
LCAOMinimize: Iter:  12  F: -2010.5154028091849341  |grad|_K:  8.278e-03  alpha:  1.200e-02  linmin: -9.800e-02  cgtest:  9.754e-01  t[s]:    210.81
LCAOMinimize: Encountered beta<0, resetting CG.
LCAOMinimize: 	Wrong curvature in test step, increasing alphaT to 3.598985e-02.
	FillingsUpdate:  mu: +0.055459101  nElectrons: 354.000000  magneticMoment: [ Abs: 10.59450  Tot: -0.00000 ]
LCAOMinimize: Iter:  13  F: -2011.3160050282092470  |grad|_K:  8.279e-03  alpha: -2.623e-01  linmin: -1.073e-01  cgtest:  9.456e-01  t[s]:    224.36
LCAOMinimize: 	Step increased F by 1.970589e+00, reducing alpha to 1.210989e-02.
	FillingsUpdate:  mu: +0.049703142  nElectrons: 354.000000  magneticMoment: [ Abs: 10.55691  Tot: +0.00000 ]
LCAOMinimize: Iter:  14  F: -2012.1884369540632633  |grad|_K:  8.462e-03  alpha:  1.211e-02  linmin: -1.118e-01  cgtest:  9.159e-01  t[s]:    249.05
LCAOMinimize: 	Wrong curvature in test step, increasing alphaT to 3.632966e-02.
	FillingsUpdate:  mu: +0.043498891  nElectrons: 354.000000  magneticMoment: [ Abs: 10.55568  Tot: -0.00000 ]
LCAOMinimize: Iter:  15  F: -2013.1862733669172485  |grad|_K:  8.522e-03  alpha: -7.909e-02  linmin: -1.190e-01  cgtest:  9.123e-01  t[s]:    262.52
LCAOMinimize: 	Step increased F by 1.165879e+01, reducing alpha to 1.306864e-02.
	FillingsUpdate:  mu: +0.035190461  nElectrons: 354.000000  magneticMoment: [ Abs: 10.53001  Tot: -0.00000 ]
LCAOMinimize: Iter:  16  F: -2014.2737189395968471  |grad|_K:  8.741e-03  alpha:  1.307e-02  linmin: -1.127e-01  cgtest:  8.750e-01  t[s]:    287.28
LCAOMinimize: 	Wrong curvature in test step, increasing alphaT to 3.920593e-02.
	FillingsUpdate:  mu: +0.055206723  nElectrons: 354.000000  magneticMoment: [ Abs: 10.98036  Tot: -0.00000 ]
LCAOMinimize: Iter:  17  F: -2015.6289186464839531  |grad|_K:  8.663e-03  alpha: -3.344e-02  linmin: -1.060e-01  cgtest:  8.436e-01  t[s]:    301.05
LCAOMinimize: 	Step increased F by 1.920620e+01, reducing alpha to 1.270522e-02.
	FillingsUpdate:  mu: +0.082118300  nElectrons: 354.000000  magneticMoment: [ Abs: 11.12281  Tot: +0.00000 ]
LCAOMinimize: Iter:  18  F: -2016.7223319247850668  |grad|_K:  8.158e-03  alpha:  1.271e-02  linmin: -1.037e-01  cgtest:  8.862e-01  t[s]:    326.07
LCAOMinimize: 	Predicted alpha/alphaT>3.000000, increasing alphaT to 3.811565e-02.
LCAOMinimize: 	Predicted alpha/alphaT>3.000000, increasing alphaT to 1.143470e-01.
	FillingsUpdate:  mu: +0.104071478  nElectrons: 354.000000  magneticMoment: [ Abs: 10.74199  Tot: +0.00000 ]
LCAOMinimize: Iter:  19  F: -2018.3434152401541724  |grad|_K:  6.437e-03  alpha:  2.607e-02  linmin: -1.539e-01  cgtest:  8.806e-01  t[s]:    349.05
LCAOMinimize: Encountered beta<0, resetting CG.
LCAOMinimize: 	Predicted alpha/alphaT>3.000000, increasing alphaT to 7.820173e-02.
	FillingsUpdate:  mu: +0.061371815  nElectrons: 354.000000  magneticMoment: [ Abs: 10.54276  Tot: +0.00000 ]
LCAOMinimize: Iter:  20  F: -2019.3910314024381023  |grad|_K:  5.383e-03  alpha:  2.672e-02  linmin: -1.214e-01  cgtest:  7.950e-01  t[s]:    367.89
LCAOMinimize: 	Predicted alpha/alphaT>3.000000, increasing alphaT to 8.015056e-02.
	FillingsUpdate:  mu: +0.078661292  nElectrons: 354.000000  magneticMoment: [ Abs: 10.89682  Tot: -0.00000 ]
LCAOMinimize: Iter:  21  F: -2020.3502693490329420  |grad|_K:  3.077e-03  alpha:  3.957e-02  linmin: -8.049e-02  cgtest:  6.277e-01  t[s]:    386.57
LCAOMinimize: Encountered beta<0, resetting CG.
	FillingsUpdate:  mu: +0.102192754  nElectrons: 354.000000  magneticMoment: [ Abs: 10.76871  Tot: +0.00000 ]
LCAOMinimize: Iter:  22  F: -2020.5363409563501591  |grad|_K:  5.796e-03  alpha:  4.185e-02  linmin:  3.641e-03  cgtest: -2.310e-03  t[s]:    401.25
	FillingsUpdate:  mu: +0.078741405  nElectrons: 354.000000  magneticMoment: [ Abs: 11.17184  Tot: -0.00000 ]
LCAOMinimize: Iter:  23  F: -2020.8338687322843725  |grad|_K:  4.298e-03  alpha:  1.478e-02  linmin: -8.630e-03  cgtest:  9.131e-01  t[s]:    416.07
LCAOMinimize: Encountered beta<0, resetting CG.
	FillingsUpdate:  mu: +0.058139751  nElectrons: 354.000000  magneticMoment: [ Abs: 11.51944  Tot: +0.00000 ]
LCAOMinimize: Iter:  24  F: -2020.9087616043809703  |grad|_K:  1.702e-03  alpha:  9.609e-03  linmin:  7.689e-04  cgtest: -6.084e-02  t[s]:    430.97
LCAOMinimize: 	Predicted alpha/alphaT>3.000000, increasing alphaT to 2.882676e-02.
	FillingsUpdate:  mu: +0.066231620  nElectrons: 354.000000  magneticMoment: [ Abs: 12.06616  Tot: -0.00000 ]
LCAOMinimize: Iter:  25  F: -2020.9997662387791024  |grad|_K:  1.358e-03  alpha:  6.205e-02  linmin: -8.635e-03  cgtest: -1.192e-02  t[s]:    449.95
	FillingsUpdate:  mu: +0.049237316  nElectrons: 354.000000  magneticMoment: [ Abs: 13.08323  Tot: +0.00000 ]
LCAOMinimize: Iter:  26  F: -2021.0876189555069686  |grad|_K:  1.828e-03  alpha:  9.072e-02  linmin:  7.176e-04  cgtest: -1.854e-01  t[s]:    464.69
	FillingsUpdate:  mu: +0.052861025  nElectrons: 354.000000  magneticMoment: [ Abs: 13.59379  Tot: -0.00000 ]
LCAOMinimize: Iter:  27  F: -2021.1155764786556119  |grad|_K:  1.223e-03  alpha:  1.592e-02  linmin: -2.332e-03  cgtest:  5.978e-01  t[s]:    479.55
	FillingsUpdate:  mu: +0.075078381  nElectrons: 354.000000  magneticMoment: [ Abs: 14.23290  Tot: -0.00000 ]
LCAOMinimize: Iter:  28  F: -2021.1448513377288236  |grad|_K:  1.092e-03  alpha:  3.983e-02  linmin: -1.601e-03  cgtest:  2.092e-02  t[s]:    494.16
	FillingsUpdate:  mu: +0.064405156  nElectrons: 354.000000  magneticMoment: [ Abs: 14.83464  Tot: -0.00000 ]
LCAOMinimize: Iter:  29  F: -2021.1753301726439531  |grad|_K:  9.702e-04  alpha:  5.090e-02  linmin: -1.346e-03  cgtest:  3.798e-01  t[s]:    509.00
	FillingsUpdate:  mu: +0.069600725  nElectrons: 354.000000  magneticMoment: [ Abs: 15.14714  Tot: -0.00000 ]
LCAOMinimize: Iter:  30  F: -2021.1927142701440516  |grad|_K:  1.302e-03  alpha:  3.739e-02  linmin:  4.232e-05  cgtest: -7.728e-02  t[s]:    523.71
LCAOMinimize: None of the convergence criteria satisfied after 30 iterations.


---- Citations for features of the code used in this run ----

   Software package:
      R. Sundararaman, K. Letchworth-Weaver, K.A. Schwarz, D. Gunceler, Y. Ozhabes and T.A. Arias, 'JDFTx: software for joint density-functional theory', SoftwareX 6, 278 (2017)

   Simplified rotationally-invariant DFT+U:
      S. L. Dudarev et al., Phys. Rev. B 57, 1505 (1998)

   LibXC library of exchange-correlation functions:
      M. A. L. Marques, M. J. T. Oliveira and T. Burnus, Comput. Phys. Commun. 183, 2272 (2012)

   Hammer, Hansen, and Norskov exchange functional:
      B. Hammer, L. B. Hansen, and J. K. Nørskov, Phys. Rev. B 59, 7413 (1999)

   Perdew, Burke & Ernzerhof correlation functional:
      J. P. Perdew, K. Burke, and M. Ernzerhof, Phys. Rev. Lett. 77, 3865 (1996)

   Pseudopotentials:
      M Schlipf and F Gygi, Comput. Phys. Commun. 196, 36 (2015)

   Total energy minimization with Auxiliary Hamiltonian:
      C. Freysoldt, S. Boeck, and J. Neugebauer, Phys. Rev. B 79, 241103(R) (2009)

This list may not be complete. Please suggest additional citations or
report any other bugs at https://github.com/shankar1729/jdftx/issues

Initialization completed successfully at t[s]:    530.61


-------- Electronic minimization -----------
	FillingsUpdate:  mu: +0.069601228  nElectrons: 354.000000  magneticMoment: [ Abs: 15.14714  Tot: -0.00000 ]
ElecMinimize: Iter:   0  F: -2021.192714270137230  |grad|_K:  1.045e-03  alpha:  1.000e+00
	FillingsUpdate:  mu: +0.948739559  nElectrons: 354.000000  magneticMoment: [ Abs: 19.95752  Tot: +0.00000 ]
	SubspaceRotationAdjust: set factor to 0.635
ElecMinimize: Iter:   1  F: -2067.921023714153307  |grad|_K:  2.374e-03  alpha:  4.393e-01  linmin:  1.210e-02  t[s]:    621.47
ElecMinimize: 	Step increased F by 1.437972e+02, reducing alpha to 1.112910e-02.
	FillingsUpdate:  mu: +0.327424274  nElectrons: 354.000000  magneticMoment: [ Abs: 18.16747  Tot: +0.00000 ]
	SubspaceRotationAdjust: set factor to 1.07
ElecMinimize: Iter:   2  F: -2074.157623663853883  |grad|_K:  8.473e-04  alpha:  1.113e-02  linmin:  2.555e-03  t[s]:    737.05
	FillingsUpdate:  mu: +0.360040752  nElectrons: 354.000000  magneticMoment: [ Abs: 17.26961  Tot: -0.00000 ]
	SubspaceRotationAdjust: set factor to 1.05
ElecMinimize: Iter:   3  F: -2076.894886910616151  |grad|_K:  8.919e-04  alpha:  1.932e-02  linmin: -2.940e-03  t[s]:    811.34
ElecMinimize: 	Predicted alpha/alphaT>3.000000, increasing alphaT to 5.796463e-02.
	FillingsUpdate:  mu: +0.698714121  nElectrons: 354.000000  magneticMoment: [ Abs: 18.93976  Tot: +0.00000 ]
	SubspaceRotationAdjust: set factor to 0.643
ElecMinimize: Iter:   4  F: -2093.354916147638960  |grad|_K:  1.154e-03  alpha:  8.154e-02  linmin: -1.460e-03  t[s]:    908.92
	FillingsUpdate:  mu: +0.350846584  nElectrons: 354.000000  magneticMoment: [ Abs: 20.34132  Tot: +0.00000 ]
	SubspaceRotationAdjust: set factor to 0.703
ElecMinimize: Iter:   5  F: -2097.467160258685453  |grad|_K:  5.922e-04  alpha:  1.034e-02  linmin: -2.333e-03  t[s]:    982.07
ElecMinimize: 	Predicted alpha/alphaT>3.000000, increasing alphaT to 3.103258e-02.
ElecMinimize: 	Step increased F by 3.284118e+00, reducing alpha to 6.144321e-03.
	FillingsUpdate:  mu: +0.299169117  nElectrons: 354.000000  magneticMoment: [ Abs: 20.65908  Tot: +0.00000 ]
	SubspaceRotationAdjust: set factor to 0.673
ElecMinimize: Iter:   6  F: -2098.638028991807005  |grad|_K:  6.057e-04  alpha:  6.144e-03  linmin: -4.699e-03  t[s]:   1137.32
ElecMinimize: 	Predicted alpha/alphaT>3.000000, increasing alphaT to 1.843296e-02.
	FillingsUpdate:  mu: +0.515214930  nElectrons: 354.000000  magneticMoment: [ Abs: 21.73596  Tot: +0.00000 ]
	SubspaceRotationAdjust: set factor to 0.395
ElecMinimize: Iter:   7  F: -2101.683113062486427  |grad|_K:  8.926e-04  alpha:  1.911e-02  linmin:  4.891e-03  t[s]:   1241.40
ElecMinimize: 	Bad step direction: g.d > 0.
ElecMinimize: 	Undoing step.
ElecMinimize: 	Step failed: resetting search direction.
	FillingsUpdate:  mu: +0.515214930  nElectrons: 354.000000  magneticMoment: [ Abs: 21.73596  Tot: +0.00000 ]
	SubspaceRotationAdjust: set factor to 0.255
ElecMinimize: Iter:   8  F: -2101.683113062489610  |grad|_K:  7.179e-04  alpha:  0.000e+00
	FillingsUpdate:  mu: +0.200987449  nElectrons: 354.000000  magneticMoment: [ Abs: 20.62438  Tot: +0.00000 ]
	SubspaceRotationAdjust: set factor to 0.174
ElecMinimize: Iter:   9  F: -2105.112298696762537  |grad|_K:  3.273e-04  alpha:  3.536e-02  linmin: -2.613e-03  t[s]:   1359.19
ElecMinimize: 	Predicted alpha/alphaT>3.000000, increasing alphaT to 1.060919e-01.
	FillingsUpdate:  mu: +0.501720813  nElectrons: 354.000000  magneticMoment: [ Abs: 19.66747  Tot: +0.00000 ]
	SubspaceRotationAdjust: set factor to 0.109
	SubspaceRotationAdjust: resetting CG because factor has changed by 0.109355
ElecMinimize: 	State modified externally: resetting search direction.
ElecMinimize: Iter:  10  F: -2108.613778694665598  |grad|_K:  2.801e-04  alpha:  1.777e-01
	FillingsUpdate:  mu: +0.178157382  nElectrons: 354.000000  magneticMoment: [ Abs: 20.58013  Tot: -0.00000 ]
	SubspaceRotationAdjust: set factor to 0.0666
ElecMinimize: Iter:  11  F: -2110.093475666922131  |grad|_K:  1.202e-04  alpha:  1.135e-01  linmin:  2.079e-03  t[s]:   1559.89
	FillingsUpdate:  mu: +0.184828609  nElectrons: 354.000000  magneticMoment: [ Abs: 21.19062  Tot: +0.00000 ]
	SubspaceRotationAdjust: set factor to 0.0613
ElecMinimize: Iter:  12  F: -2110.823697335935776  |grad|_K:  6.660e-05  alpha:  2.940e-01  linmin: -7.026e-04  t[s]:   1641.00
	FillingsUpdate:  mu: +0.151206682  nElectrons: 354.000000  magneticMoment: [ Abs: 21.54663  Tot: -0.00000 ]
	SubspaceRotationAdjust: set factor to 0.0753
ElecMinimize: Iter:  13  F: -2111.109890809516855  |grad|_K:  5.152e-05  alpha:  3.493e-01  linmin: -5.168e-04  t[s]:   1718.24
	FillingsUpdate:  mu: +0.119801400  nElectrons: 354.000000  magneticMoment: [ Abs: 21.88592  Tot: +0.00000 ]
	SubspaceRotationAdjust: set factor to 0.0879
ElecMinimize: Iter:  14  F: -2111.324261174435833  |grad|_K:  4.524e-05  alpha:  4.265e-01  linmin: -6.290e-04  t[s]:   1799.31
	FillingsUpdate:  mu: +0.134379324  nElectrons: 354.000000  magneticMoment: [ Abs: 22.28125  Tot: +0.00000 ]
	SubspaceRotationAdjust: set factor to 0.101
ElecMinimize: Iter:  15  F: -2111.506530481398386  |grad|_K:  4.483e-05  alpha:  4.437e-01  linmin: -2.499e-04  t[s]:   1877.65
	FillingsUpdate:  mu: +0.101660040  nElectrons: 354.000000  magneticMoment: [ Abs: 22.84382  Tot: +0.00000 ]
	SubspaceRotationAdjust: set factor to 0.104
ElecMinimize: Iter:  16  F: -2111.666176794940384  |grad|_K:  4.867e-05  alpha:  4.106e-01  linmin: -1.111e-04  t[s]:   1957.38
	FillingsUpdate:  mu: +0.102432062  nElectrons: 354.000000  magneticMoment: [ Abs: 23.45147  Tot: -0.00000 ]
	SubspaceRotationAdjust: set factor to 0.116
ElecMinimize: Iter:  17  F: -2111.863153225694532  |grad|_K:  5.080e-05  alpha:  4.412e-01  linmin: -1.506e-04  t[s]:   2036.11
	FillingsUpdate:  mu: +0.114328272  nElectrons: 354.000000  magneticMoment: [ Abs: 24.35065  Tot: -0.00000 ]
	SubspaceRotationAdjust: set factor to 0.119
ElecMinimize: Iter:  18  F: -2112.052314795973871  |grad|_K:  6.162e-05  alpha:  3.134e-01  linmin: -7.164e-05  t[s]:   2114.91
	FillingsUpdate:  mu: +0.130699484  nElectrons: 354.000000  magneticMoment: [ Abs: 24.89779  Tot: -0.00000 ]
	SubspaceRotationAdjust: set factor to 0.124
ElecMinimize: Iter:  19  F: -2112.148951684219810  |grad|_K:  6.703e-05  alpha:  1.001e-01  linmin: -3.199e-04  t[s]:   2196.57
	FillingsUpdate:  mu: +0.170950227  nElectrons: 354.000000  magneticMoment: [ Abs: 25.86075  Tot: -0.00000 ]
	SubspaceRotationAdjust: set factor to 0.114
ElecMinimize: Iter:  20  F: -2112.262339175682428  |grad|_K:  7.164e-05  alpha:  1.036e-01  linmin:  7.599e-05  t[s]:   2274.87
	FillingsUpdate:  mu: +0.188333064  nElectrons: 354.000000  magneticMoment: [ Abs: 26.35268  Tot: +0.00000 ]
	SubspaceRotationAdjust: set factor to 0.0994
ElecMinimize: Iter:  21  F: -2112.299633415438166  |grad|_K:  7.383e-05  alpha:  4.143e-02  linmin: -7.000e-05  t[s]:   2355.02
	FillingsUpdate:  mu: +0.188702483  nElectrons: 354.000000  magneticMoment: [ Abs: 26.90945  Tot: +0.00000 ]
	SubspaceRotationAdjust: set factor to 0.0843
ElecMinimize: Iter:  22  F: -2112.343939718382444  |grad|_K:  7.319e-05  alpha:  4.256e-02  linmin:  2.516e-05  t[s]:   2432.54
	FillingsUpdate:  mu: +0.190174548  nElectrons: 354.000000  magneticMoment: [ Abs: 27.35292  Tot: +0.00000 ]
	SubspaceRotationAdjust: set factor to 0.0747
ElecMinimize: Iter:  23  F: -2112.376254048255305  |grad|_K:  6.924e-05  alpha:  3.579e-02  linmin: -9.296e-06  t[s]:   2512.56
	FillingsUpdate:  mu: +0.191867936  nElectrons: 354.000000  magneticMoment: [ Abs: 27.70616  Tot: -0.00000 ]
	SubspaceRotationAdjust: set factor to 0.069
ElecMinimize: Iter:  24  F: -2112.406154331568359  |grad|_K:  6.489e-05  alpha:  3.518e-02  linmin:  3.838e-05  t[s]:   2590.10
	FillingsUpdate:  mu: +0.180783604  nElectrons: 354.000000  magneticMoment: [ Abs: 27.92073  Tot: +0.00000 ]
	SubspaceRotationAdjust: set factor to 0.0625
ElecMinimize: Iter:  25  F: -2112.425026846092805  |grad|_K:  6.290e-05  alpha:  2.651e-02  linmin:  8.032e-06  t[s]:   2668.33
	FillingsUpdate:  mu: +0.172466172  nElectrons: 354.000000  magneticMoment: [ Abs: 28.12493  Tot: +0.00000 ]
	SubspaceRotationAdjust: set factor to 0.0549
ElecMinimize: Iter:  26  F: -2112.443084268243638  |grad|_K:  6.069e-05  alpha:  2.637e-02  linmin:  1.348e-05  t[s]:   2742.96
	FillingsUpdate:  mu: +0.159934500  nElectrons: 354.000000  magneticMoment: [ Abs: 28.34404  Tot: +0.00000 ]
	SubspaceRotationAdjust: set factor to 0.0487
ElecMinimize: Iter:  27  F: -2112.458952551669427  |grad|_K:  5.697e-05  alpha:  2.501e-02  linmin:  1.947e-05  t[s]:   2823.46
	FillingsUpdate:  mu: +0.148074206  nElectrons: 354.000000  magneticMoment: [ Abs: 28.55207  Tot: -0.00000 ]
	SubspaceRotationAdjust: set factor to 0.0445
ElecMinimize: Iter:  28  F: -2112.471593099081474  |grad|_K:  5.291e-05  alpha:  2.268e-02  linmin:  2.344e-05  t[s]:   2903.58
	FillingsUpdate:  mu: +0.142315328  nElectrons: 354.000000  magneticMoment: [ Abs: 28.73100  Tot: +0.00000 ]
	SubspaceRotationAdjust: set factor to 0.0416
ElecMinimize: Iter:  29  F: -2112.481366163680832  |grad|_K:  4.937e-05  alpha:  2.039e-02  linmin:  2.291e-05  t[s]:   2982.83
	FillingsUpdate:  mu: +0.140332616  nElectrons: 354.000000  magneticMoment: [ Abs: 28.88140  Tot: -0.00000 ]
	SubspaceRotationAdjust: set factor to 0.0392
ElecMinimize: Iter:  30  F: -2112.489101348753593  |grad|_K:  4.637e-05  alpha:  1.853e-02  linmin:  2.140e-05  t[s]:   3061.43
	FillingsUpdate:  mu: +0.139029753  nElectrons: 354.000000  magneticMoment: [ Abs: 29.00611  Tot: +0.00000 ]
	SubspaceRotationAdjust: set factor to 0.0368
ElecMinimize: Iter:  31  F: -2112.495469429778950  |grad|_K:  4.379e-05  alpha:  1.727e-02  linmin:  1.841e-05  t[s]:   3139.93
	FillingsUpdate:  mu: +0.139314774  nElectrons: 354.000000  magneticMoment: [ Abs: 29.10727  Tot: +0.00000 ]
	SubspaceRotationAdjust: set factor to 0.0341
ElecMinimize: Iter:  32  F: -2112.500946040057443  |grad|_K:  4.146e-05  alpha:  1.661e-02  linmin:  1.805e-05  t[s]:   3220.51
	FillingsUpdate:  mu: +0.140569543  nElectrons: 354.000000  magneticMoment: [ Abs: 29.18478  Tot: -0.00000 ]
	SubspaceRotationAdjust: set factor to 0.0313
ElecMinimize: Iter:  33  F: -2112.505706803176963  |grad|_K:  3.921e-05  alpha:  1.609e-02  linmin:  2.185e-05  t[s]:   3297.62
	FillingsUpdate:  mu: +0.141929256  nElectrons: 354.000000  magneticMoment: [ Abs: 29.23843  Tot: -0.00000 ]
	SubspaceRotationAdjust: set factor to 0.0285
ElecMinimize: Iter:  34  F: -2112.509760041818936  |grad|_K:  3.700e-05  alpha:  1.534e-02  linmin:  2.827e-05  t[s]:   3374.14
	FillingsUpdate:  mu: +0.142716651  nElectrons: 354.000000  magneticMoment: [ Abs: 29.27026  Tot: +0.00000 ]
	SubspaceRotationAdjust: set factor to 0.026
ElecMinimize: Iter:  35  F: -2112.513091477081616  |grad|_K:  3.488e-05  alpha:  1.420e-02  linmin:  3.363e-05  t[s]:   3453.03
	FillingsUpdate:  mu: +0.143371310  nElectrons: 354.000000  magneticMoment: [ Abs: 29.28474  Tot: -0.00000 ]
	SubspaceRotationAdjust: set factor to 0.0239
ElecMinimize: Iter:  36  F: -2112.515755124506995  |grad|_K:  3.293e-05  alpha:  1.279e-02  linmin:  3.586e-05  t[s]:   3527.75
	FillingsUpdate:  mu: +0.143919452  nElectrons: 354.000000  magneticMoment: [ Abs: 29.28728  Tot: -0.00000 ]
	SubspaceRotationAdjust: set factor to 0.0223
ElecMinimize: Iter:  37  F: -2112.517866898992452  |grad|_K:  3.119e-05  alpha:  1.138e-02  linmin:  3.543e-05  t[s]:   3608.69
	FillingsUpdate:  mu: +0.142757986  nElectrons: 354.000000  magneticMoment: [ Abs: 29.28249  Tot: +0.00000 ]
	SubspaceRotationAdjust: set factor to 0.0209
ElecMinimize: Iter:  38  F: -2112.519558254366530  |grad|_K:  2.966e-05  alpha:  1.015e-02  linmin:  3.353e-05  t[s]:   3686.45
	FillingsUpdate:  mu: +0.140545076  nElectrons: 354.000000  magneticMoment: [ Abs: 29.27352  Tot: +0.00000 ]
	SubspaceRotationAdjust: set factor to 0.0197
ElecMinimize: Iter:  39  F: -2112.520941774163475  |grad|_K:  2.830e-05  alpha:  9.173e-03  linmin:  3.102e-05  t[s]:   3756.64
	FillingsUpdate:  mu: +0.137832217  nElectrons: 354.000000  magneticMoment: [ Abs: 29.26234  Tot: -0.00000 ]
	SubspaceRotationAdjust: set factor to 0.0186
ElecMinimize: Iter:  40  F: -2112.522099932908077  |grad|_K:  2.706e-05  alpha:  8.425e-03  linmin:  2.845e-05  t[s]:   3835.13
	FillingsUpdate:  mu: +0.135084106  nElectrons: 354.000000  magneticMoment: [ Abs: 29.25010  Tot: -0.00000 ]
	SubspaceRotationAdjust: set factor to 0.0177
ElecMinimize: Iter:  41  F: -2112.523088346008535  |grad|_K:  2.592e-05  alpha:  7.850e-03  linmin:  2.622e-05  t[s]:   3918.65
	FillingsUpdate:  mu: +0.132537225  nElectrons: 354.000000  magneticMoment: [ Abs: 29.23747  Tot: -0.00000 ]
	SubspaceRotationAdjust: set factor to 0.0169
ElecMinimize: Iter:  42  F: -2112.523943762646468  |grad|_K:  2.486e-05  alpha:  7.393e-03  linmin:  2.444e-05  t[s]:   4000.19
	FillingsUpdate:  mu: +0.130214803  nElectrons: 354.000000  magneticMoment: [ Abs: 29.22483  Tot: +0.00000 ]
	SubspaceRotationAdjust: set factor to 0.0161
ElecMinimize: Iter:  43  F: -2112.524691417809663  |grad|_K:  2.387e-05  alpha:  7.016e-03  linmin:  2.300e-05  t[s]:   4078.45
	FillingsUpdate:  mu: +0.128024998  nElectrons: 354.000000  magneticMoment: [ Abs: 29.21236  Tot: +0.00000 ]
	SubspaceRotationAdjust: set factor to 0.0154
ElecMinimize: Iter:  44  F: -2112.525349951044973  |grad|_K:  2.295e-05  alpha:  6.696e-03  linmin:  2.173e-05  t[s]:   4156.69
	FillingsUpdate:  mu: +0.125912723  nElectrons: 354.000000  magneticMoment: [ Abs: 29.20015  Tot: -0.00000 ]
	SubspaceRotationAdjust: set factor to 0.0147
	SubspaceRotationAdjust: resetting CG because factor has changed by 0.134194
ElecMinimize: 	State modified externally: resetting search direction.
ElecMinimize: Iter:  45  F: -2112.525934052336197  |grad|_K:  2.183e-05  alpha:  6.421e-03
ElecMinimize: 	Predicted alpha/alphaT>3.000000, increasing alphaT to 1.926270e-02.
ElecMinimize: 	Predicted alpha/alphaT>3.000000, increasing alphaT to 5.778809e-02.
ElecMinimize: 	Predicted alpha/alphaT>3.000000, increasing alphaT to 1.733643e-01.
	FillingsUpdate:  mu: +0.116216054  nElectrons: 354.000000  magneticMoment: [ Abs: 29.02371  Tot: +0.00000 ]
	SubspaceRotationAdjust: set factor to 0.0185
ElecMinimize: Iter:  46  F: -2112.612377168812145  |grad|_K:  2.972e-05  alpha:  1.016e+00  linmin: -3.288e-03  t[s]:   4396.74
	FillingsUpdate:  mu: +0.110865668  nElectrons: 354.000000  magneticMoment: [ Abs: 28.74011  Tot: +0.00000 ]
	SubspaceRotationAdjust: set factor to 0.0217
ElecMinimize: Iter:  47  F: -2112.685763942337417  |grad|_K:  3.374e-05  alpha:  4.663e-01  linmin:  4.037e-04  t[s]:   4476.12
	FillingsUpdate:  mu: +0.118859877  nElectrons: 354.000000  magneticMoment: [ Abs: 28.20003  Tot: +0.00000 ]
	SubspaceRotationAdjust: set factor to 0.0248
ElecMinimize: Iter:  48  F: -2112.785927794444888  |grad|_K:  3.332e-05  alpha:  5.061e-01  linmin: -5.810e-04  t[s]:   4548.23
	FillingsUpdate:  mu: +0.105368718  nElectrons: 354.000000  magneticMoment: [ Abs: 27.85344  Tot: +0.00000 ]
	SubspaceRotationAdjust: set factor to 0.0289
ElecMinimize: Iter:  49  F: -2112.849352247727893  |grad|_K:  2.394e-05  alpha:  3.201e-01  linmin: -2.829e-04  t[s]:   4626.61
	FillingsUpdate:  mu: +0.089100606  nElectrons: 354.000000  magneticMoment: [ Abs: 27.72822  Tot: +0.00000 ]
	SubspaceRotationAdjust: set factor to 0.0324
ElecMinimize: Iter:  50  F: -2112.887440897169199  |grad|_K:  2.231e-05  alpha:  3.785e-01  linmin: -1.052e-05  t[s]:   4703.80
	FillingsUpdate:  mu: +0.088202102  nElectrons: 354.000000  magneticMoment: [ Abs: 27.72984  Tot: -0.00000 ]
	SubspaceRotationAdjust: set factor to 0.0368
ElecMinimize: Iter:  51  F: -2112.925405600107752  |grad|_K:  2.244e-05  alpha:  4.360e-01  linmin: -3.365e-04  t[s]:   4781.05
	FillingsUpdate:  mu: +0.091602610  nElectrons: 354.000000  magneticMoment: [ Abs: 27.84229  Tot: -0.00000 ]
	SubspaceRotationAdjust: set factor to 0.0431
ElecMinimize: Iter:  52  F: -2112.962365158299235  |grad|_K:  1.989e-05  alpha:  4.161e-01  linmin: -2.508e-04  t[s]:   4861.77
	FillingsUpdate:  mu: +0.095102913  nElectrons: 354.000000  magneticMoment: [ Abs: 28.00842  Tot: +0.00000 ]
	SubspaceRotationAdjust: set factor to 0.0501
ElecMinimize: Iter:  53  F: -2112.990724832116484  |grad|_K:  1.850e-05  alpha:  4.072e-01  linmin: -2.211e-04  t[s]:   4939.22
	FillingsUpdate:  mu: +0.094590702  nElectrons: 354.000000  magneticMoment: [ Abs: 28.24056  Tot: -0.00000 ]
	SubspaceRotationAdjust: set factor to 0.0567
ElecMinimize: Iter:  54  F: -2113.015304358913454  |grad|_K:  1.893e-05  alpha:  4.077e-01  linmin: -1.981e-04  t[s]:   5019.69
	FillingsUpdate:  mu: +0.097460045  nElectrons: 354.000000  magneticMoment: [ Abs: 28.55118  Tot: -0.00000 ]
	SubspaceRotationAdjust: set factor to 0.063
ElecMinimize: Iter:  55  F: -2113.039462919077778  |grad|_K:  1.829e-05  alpha:  3.825e-01  linmin: -1.438e-04  t[s]:   5100.37
	FillingsUpdate:  mu: +0.101964094  nElectrons: 354.000000  magneticMoment: [ Abs: 28.92611  Tot: -0.00000 ]
	SubspaceRotationAdjust: set factor to 0.0692
ElecMinimize: Iter:  56  F: -2113.065003409507881  |grad|_K:  1.730e-05  alpha:  4.336e-01  linmin: -1.582e-04  t[s]:   5179.49
	FillingsUpdate:  mu: +0.105241323  nElectrons: 354.000000  magneticMoment: [ Abs: 29.24978  Tot: +0.00000 ]
	SubspaceRotationAdjust: set factor to 0.0741
ElecMinimize: Iter:  57  F: -2113.085165465067348  |grad|_K:  1.652e-05  alpha:  3.826e-01  linmin: -1.216e-04  t[s]:   5259.66
	FillingsUpdate:  mu: +0.106622689  nElectrons: 354.000000  magneticMoment: [ Abs: 29.57476  Tot: -0.00000 ]
	SubspaceRotationAdjust: set factor to 0.08
ElecMinimize: Iter:  58  F: -2113.102290087967958  |grad|_K:  1.421e-05  alpha:  3.564e-01  linmin: -3.642e-05  t[s]:   5338.25
	FillingsUpdate:  mu: +0.106520219  nElectrons: 354.000000  magneticMoment: [ Abs: 29.81797  Tot: -0.00000 ]
	SubspaceRotationAdjust: set factor to 0.0884
ElecMinimize: Iter:  59  F: -2113.114326279021498  |grad|_K:  1.219e-05  alpha:  3.401e-01  linmin: -5.186e-06  t[s]:   5418.23
	FillingsUpdate:  mu: +0.104989291  nElectrons: 354.000000  magneticMoment: [ Abs: 29.98445  Tot: -0.00000 ]
	SubspaceRotationAdjust: set factor to 0.0992
ElecMinimize: Iter:  60  F: -2113.123480741905951  |grad|_K:  1.045e-05  alpha:  3.520e-01  linmin: -6.935e-05  t[s]:   5500.95
	FillingsUpdate:  mu: +0.104132761  nElectrons: 354.000000  magneticMoment: [ Abs: 30.12188  Tot: +0.00000 ]
	SubspaceRotationAdjust: set factor to 0.116
	SubspaceRotationAdjust: resetting CG because factor has changed by 7.89153
ElecMinimize: 	State modified externally: resetting search direction.
ElecMinimize: Iter:  61  F: -2113.130534125532449  |grad|_K:  9.304e-06  alpha:  3.683e-01
	FillingsUpdate:  mu: +0.104608221  nElectrons: 354.000000  magneticMoment: [ Abs: 30.13512  Tot: +0.00000 ]
	SubspaceRotationAdjust: set factor to 0.136
ElecMinimize: Iter:  62  F: -2113.135367262134878  |grad|_K:  8.506e-06  alpha:  3.193e-01  linmin: -8.640e-06  t[s]:   5670.87
	FillingsUpdate:  mu: +0.104413487  nElectrons: 354.000000  magneticMoment: [ Abs: 30.17348  Tot: -0.00000 ]
	SubspaceRotationAdjust: set factor to 0.16
ElecMinimize: Iter:  63  F: -2113.141027555584969  |grad|_K:  8.467e-06  alpha:  4.469e-01  linmin: -4.821e-05  t[s]:   5752.01
	FillingsUpdate:  mu: +0.102359412  nElectrons: 354.000000  magneticMoment: [ Abs: 30.24459  Tot: -0.00000 ]
	SubspaceRotationAdjust: set factor to 0.185
ElecMinimize: Iter:  64  F: -2113.146176270341584  |grad|_K:  7.613e-06  alpha:  4.100e-01  linmin: -3.007e-05  t[s]:   5829.50
	FillingsUpdate:  mu: +0.100661453  nElectrons: 354.000000  magneticMoment: [ Abs: 30.36512  Tot: -0.00000 ]
	SubspaceRotationAdjust: set factor to 0.218
ElecMinimize: Iter:  65  F: -2113.150202444401202  |grad|_K:  6.284e-06  alpha:  3.965e-01  linmin: -3.371e-05  t[s]:   5911.25
	FillingsUpdate:  mu: +0.099809364  nElectrons: 354.000000  magneticMoment: [ Abs: 30.51304  Tot: +0.00000 ]
	SubspaceRotationAdjust: set factor to 0.244
ElecMinimize: Iter:  66  F: -2113.153137728241290  |grad|_K:  5.875e-06  alpha:  4.240e-01  linmin: -3.430e-05  t[s]:   5993.87
	FillingsUpdate:  mu: +0.100705832  nElectrons: 354.000000  magneticMoment: [ Abs: 30.70168  Tot: +0.00000 ]
	SubspaceRotationAdjust: set factor to 0.179
ElecMinimize: Iter:  67  F: -2113.154911447869381  |grad|_K:  7.351e-06  alpha:  2.954e-01  linmin: -1.686e-05  t[s]:   6075.48
	FillingsUpdate:  mu: +0.098828090  nElectrons: 354.000000  magneticMoment: [ Abs: 30.82278  Tot: -0.00000 ]
	SubspaceRotationAdjust: set factor to 0.132
ElecMinimize: Iter:  68  F: -2113.156382316928102  |grad|_K:  5.689e-06  alpha:  1.562e-01  linmin:  1.750e-05  t[s]:   6155.18
	FillingsUpdate:  mu: +0.098839934  nElectrons: 354.000000  magneticMoment: [ Abs: 31.15898  Tot: -0.00000 ]
	SubspaceRotationAdjust: set factor to 0.172
ElecMinimize: Iter:  69  F: -2113.158697073792155  |grad|_K:  5.619e-06  alpha:  4.098e-01  linmin:  1.228e-05  t[s]:   6233.19
	FillingsUpdate:  mu: +0.099717809  nElectrons: 354.000000  magneticMoment: [ Abs: 31.53977  Tot: -0.00000 ]
	SubspaceRotationAdjust: set factor to 0.163
ElecMinimize: Iter:  70  F: -2113.160683019408680  |grad|_K:  6.454e-06  alpha:  3.610e-01  linmin: -6.330e-05  t[s]:   6315.84
	FillingsUpdate:  mu: +0.099775066  nElectrons: 354.000000  magneticMoment: [ Abs: 31.88189  Tot: -0.00000 ]
	SubspaceRotationAdjust: set factor to 0.137
ElecMinimize: Iter:  71  F: -2113.162634239354702  |grad|_K:  6.509e-06  alpha:  2.650e-01  linmin: -8.030e-06  t[s]:   6398.06
	FillingsUpdate:  mu: +0.103061235  nElectrons: 354.000000  magneticMoment: [ Abs: 32.60030  Tot: +0.00000 ]
	SubspaceRotationAdjust: set factor to 0.164
ElecMinimize: Iter:  72  F: -2113.165689349222703  |grad|_K:  6.867e-06  alpha:  4.192e-01  linmin:  3.515e-04  t[s]:   6477.47
	FillingsUpdate:  mu: +0.105947388  nElectrons: 354.000000  magneticMoment: [ Abs: 33.22115  Tot: +0.00000 ]
	SubspaceRotationAdjust: set factor to 0.151
ElecMinimize: Iter:  73  F: -2113.168240941793556  |grad|_K:  8.259e-06  alpha:  2.945e-01  linmin:  5.438e-05  t[s]:   6556.39
	FillingsUpdate:  mu: +0.107873238  nElectrons: 354.000000  magneticMoment: [ Abs: 33.86754  Tot: +0.00000 ]
	SubspaceRotationAdjust: set factor to 0.192
ElecMinimize: Iter:  74  F: -2113.171092540670543  |grad|_K:  9.571e-06  alpha:  2.380e-01  linmin:  4.702e-05  t[s]:   6636.55
	FillingsUpdate:  mu: +0.104135052  nElectrons: 354.000000  magneticMoment: [ Abs: 34.36340  Tot: -0.00000 ]
	SubspaceRotationAdjust: set factor to 0.205
ElecMinimize: Iter:  75  F: -2113.173798336657910  |grad|_K:  9.493e-06  alpha:  1.704e-01  linmin: -5.488e-05  t[s]:   6712.63
	FillingsUpdate:  mu: +0.101428913  nElectrons: 354.000000  magneticMoment: [ Abs: 34.73796  Tot: -0.00000 ]
	SubspaceRotationAdjust: set factor to 0.244
ElecMinimize: Iter:  76  F: -2113.176162297156225  |grad|_K:  8.736e-06  alpha:  1.491e-01  linmin: -6.968e-05  t[s]:   6796.48
	FillingsUpdate:  mu: +0.101981042  nElectrons: 354.000000  magneticMoment: [ Abs: 35.02760  Tot: -0.00000 ]
	SubspaceRotationAdjust: set factor to 0.244
ElecMinimize: Iter:  77  F: -2113.178189436287539  |grad|_K:  8.878e-06  alpha:  1.504e-01  linmin: -1.966e-04  t[s]:   6875.39
	FillingsUpdate:  mu: +0.103369322  nElectrons: 354.000000  magneticMoment: [ Abs: 35.25561  Tot: +0.00000 ]
	SubspaceRotationAdjust: set factor to 0.305
ElecMinimize: Iter:  78  F: -2113.180413034724097  |grad|_K:  8.004e-06  alpha:  1.570e-01  linmin: -2.286e-04  t[s]:   6956.11
	FillingsUpdate:  mu: +0.106430191  nElectrons: 354.000000  magneticMoment: [ Abs: 35.39617  Tot: -0.00000 ]
	SubspaceRotationAdjust: set factor to 0.346
ElecMinimize: Iter:  79  F: -2113.182430033429227  |grad|_K:  8.394e-06  alpha:  1.739e-01  linmin: -1.770e-04  t[s]:   7035.33
	FillingsUpdate:  mu: +0.110239066  nElectrons: 354.000000  magneticMoment: [ Abs: 35.53836  Tot: -0.00000 ]
	SubspaceRotationAdjust: set factor to 0.473
ElecMinimize: Iter:  80  F: -2113.184801286288803  |grad|_K:  8.138e-06  alpha:  1.869e-01  linmin: -1.423e-04  t[s]:   7117.45
	FillingsUpdate:  mu: +0.109133237  nElectrons: 354.000000  magneticMoment: [ Abs: 35.61705  Tot: -0.00000 ]
	SubspaceRotationAdjust: set factor to 0.492
ElecMinimize: Iter:  81  F: -2113.187044547055393  |grad|_K:  9.231e-06  alpha:  1.887e-01  linmin: -8.108e-05  t[s]:   7197.54
	FillingsUpdate:  mu: +0.107709573  nElectrons: 354.000000  magneticMoment: [ Abs: 35.59085  Tot: +0.00000 ]
	SubspaceRotationAdjust: set factor to 0.582
ElecMinimize: Iter:  82  F: -2113.189235740980621  |grad|_K:  8.423e-06  alpha:  1.452e-01  linmin: -1.799e-05  t[s]:   7274.99
	FillingsUpdate:  mu: +0.106712433  nElectrons: 354.000000  magneticMoment: [ Abs: 35.54125  Tot: -0.00000 ]
	SubspaceRotationAdjust: set factor to 0.754
ElecMinimize: Iter:  83  F: -2113.191560434294388  |grad|_K:  8.628e-06  alpha:  1.883e-01  linmin:  1.862e-04  t[s]:   7350.06
	FillingsUpdate:  mu: +0.104543624  nElectrons: 354.000000  magneticMoment: [ Abs: 35.45296  Tot: +0.00000 ]
	SubspaceRotationAdjust: set factor to 0.728
ElecMinimize: Iter:  84  F: -2113.193027636977604  |grad|_K:  9.457e-06  alpha:  1.246e-01  linmin:  7.363e-05  t[s]:   7426.98
	FillingsUpdate:  mu: +0.108047182  nElectrons: 354.000000  magneticMoment: [ Abs: 35.34087  Tot: -0.00000 ]
	SubspaceRotationAdjust: set factor to 0.7
ElecMinimize: Iter:  85  F: -2113.194645295544433  |grad|_K:  8.659e-06  alpha:  1.052e-01  linmin:  1.834e-05  t[s]:   7504.73
	FillingsUpdate:  mu: +0.110217107  nElectrons: 354.000000  magneticMoment: [ Abs: 35.21756  Tot: +0.00000 ]
	SubspaceRotationAdjust: set factor to 0.817
ElecMinimize: Iter:  86  F: -2113.195688706396140  |grad|_K:  7.269e-06  alpha:  7.976e-02  linmin: -1.833e-06  t[s]:   7581.40
	FillingsUpdate:  mu: +0.110020654  nElectrons: 354.000000  magneticMoment: [ Abs: 35.05192  Tot: -0.00000 ]
	SubspaceRotationAdjust: set factor to 0.753
ElecMinimize: Iter:  87  F: -2113.196817091209141  |grad|_K:  8.206e-06  alpha:  1.256e-01  linmin:  3.635e-04  t[s]:   7661.17
	FillingsUpdate:  mu: +0.108498969  nElectrons: 354.000000  magneticMoment: [ Abs: 34.94475  Tot: -0.00000 ]
	SubspaceRotationAdjust: set factor to 0.779
ElecMinimize: Iter:  88  F: -2113.197511466934429  |grad|_K:  7.639e-06  alpha:  6.363e-02  linmin:  1.611e-05  t[s]:   7738.04
	FillingsUpdate:  mu: +0.108443714  nElectrons: 354.000000  magneticMoment: [ Abs: 34.81224  Tot: +0.00000 ]
	SubspaceRotationAdjust: set factor to 0.631
ElecMinimize: Iter:  89  F: -2113.198427057806839  |grad|_K:  8.659e-06  alpha:  8.987e-02  linmin: -1.840e-05  t[s]:   7809.75
	FillingsUpdate:  mu: +0.109005342  nElectrons: 354.000000  magneticMoment: [ Abs: 34.67100  Tot: -0.00000 ]
	SubspaceRotationAdjust: set factor to 0.918
	SubspaceRotationAdjust: resetting CG because factor has changed by 7.92846
ElecMinimize: 	State modified externally: resetting search direction.
ElecMinimize: Iter:  90  F: -2113.199280958593590  |grad|_K:  7.415e-06  alpha:  6.487e-02
ElecMinimize: 	Predicted alpha/alphaT>3.000000, increasing alphaT to 1.946246e-01.
	FillingsUpdate:  mu: +0.110182111  nElectrons: 354.000000  magneticMoment: [ Abs: 34.66766  Tot: +0.00000 ]
	SubspaceRotationAdjust: set factor to 0.583
ElecMinimize: Iter:  91  F: -2113.201464167732865  |grad|_K:  7.485e-06  alpha:  2.266e-01  linmin: -1.525e-04  t[s]:   8008.50
	FillingsUpdate:  mu: +0.110355553  nElectrons: 354.000000  magneticMoment: [ Abs: 34.71393  Tot: -0.00000 ]
	SubspaceRotationAdjust: set factor to 0.425
ElecMinimize: Iter:  92  F: -2113.202502575508788  |grad|_K:  6.534e-06  alpha:  1.029e-01  linmin: -1.032e-04  t[s]:   8082.26
	FillingsUpdate:  mu: +0.108594160  nElectrons: 354.000000  magneticMoment: [ Abs: 34.71037  Tot: -0.00000 ]
	SubspaceRotationAdjust: set factor to 0.388
ElecMinimize: Iter:  93  F: -2113.203766224963147  |grad|_K:  4.840e-06  alpha:  1.671e-01  linmin: -3.295e-05  t[s]:   8159.91
	FillingsUpdate:  mu: +0.104277358  nElectrons: 354.000000  magneticMoment: [ Abs: 34.69625  Tot: -0.00000 ]
	SubspaceRotationAdjust: set factor to 0.408
ElecMinimize: Iter:  94  F: -2113.204913265910818  |grad|_K:  4.243e-06  alpha:  2.762e-01  linmin: -1.684e-04  t[s]:   8236.71
	FillingsUpdate:  mu: +0.107262959  nElectrons: 354.000000  magneticMoment: [ Abs: 34.72054  Tot: -0.00000 ]
	SubspaceRotationAdjust: set factor to 0.335
ElecMinimize: Iter:  95  F: -2113.205495494663410  |grad|_K:  3.305e-06  alpha:  1.827e-01  linmin: -2.732e-05  t[s]:   8313.50
	FillingsUpdate:  mu: +0.109382237  nElectrons: 354.000000  magneticMoment: [ Abs: 34.71895  Tot: +0.00000 ]
	SubspaceRotationAdjust: set factor to 0.321
ElecMinimize: Iter:  96  F: -2113.205870864799635  |grad|_K:  2.071e-06  alpha:  1.960e-01  linmin:  1.221e-05  t[s]:   8387.05
	FillingsUpdate:  mu: +0.108653178  nElectrons: 354.000000  magneticMoment: [ Abs: 34.70635  Tot: -0.00000 ]
	SubspaceRotationAdjust: set factor to 0.413
ElecMinimize: Iter:  97  F: -2113.206111080117807  |grad|_K:  1.921e-06  alpha:  3.202e-01  linmin: -4.046e-05  t[s]:   8466.18
	FillingsUpdate:  mu: +0.107427955  nElectrons: 354.000000  magneticMoment: [ Abs: 34.70084  Tot: +0.00000 ]
	SubspaceRotationAdjust: set factor to 0.367
ElecMinimize: Iter:  98  F: -2113.206293021815327  |grad|_K:  1.885e-06  alpha:  2.817e-01  linmin: -1.166e-04  t[s]:   8545.88
	FillingsUpdate:  mu: +0.106969426  nElectrons: 354.000000  magneticMoment: [ Abs: 34.68902  Tot: +0.00000 ]
	SubspaceRotationAdjust: set factor to 0.349
ElecMinimize: Iter:  99  F: -2113.206451781426495  |grad|_K:  1.849e-06  alpha:  2.543e-01  linmin: -7.064e-05  t[s]:   8620.38
	FillingsUpdate:  mu: +0.108927617  nElectrons: 354.000000  magneticMoment: [ Abs: 34.69302  Tot: +0.00000 ]
	SubspaceRotationAdjust: set factor to 0.378
ElecMinimize: Iter: 100  F: -2113.206651787847022  |grad|_K:  1.766e-06  alpha:  3.325e-01  linmin: -1.952e-05  t[s]:   8696.52
	FillingsUpdate:  mu: +0.108359485  nElectrons: 354.000000  magneticMoment: [ Abs: 34.67880  Tot: -0.00000 ]
	SubspaceRotationAdjust: set factor to 0.432
ElecMinimize: Iter: 101  F: -2113.206915751904944  |grad|_K:  2.047e-06  alpha:  4.846e-01  linmin:  7.057e-05  t[s]:   8773.81
	FillingsUpdate:  mu: +0.106143543  nElectrons: 354.000000  magneticMoment: [ Abs: 34.65893  Tot: +0.00000 ]
	SubspaceRotationAdjust: set factor to 0.407
ElecMinimize: Iter: 102  F: -2113.207149231944641  |grad|_K:  2.269e-06  alpha:  3.117e-01  linmin: -8.720e-05  t[s]:   8846.71
	FillingsUpdate:  mu: +0.107047857  nElectrons: 354.000000  magneticMoment: [ Abs: 34.67527  Tot: -0.00000 ]
	SubspaceRotationAdjust: set factor to 0.362
ElecMinimize: Iter: 103  F: -2113.207361436429892  |grad|_K:  2.174e-06  alpha:  2.342e-01  linmin: -2.130e-05  t[s]:   8925.91
	FillingsUpdate:  mu: +0.107844794  nElectrons: 354.000000  magneticMoment: [ Abs: 34.68647  Tot: +0.00000 ]
	SubspaceRotationAdjust: set factor to 0.387
ElecMinimize: Iter: 104  F: -2113.207642220755588  |grad|_K:  2.086e-06  alpha:  3.395e-01  linmin:  4.804e-05  t[s]:   9001.72
	FillingsUpdate:  mu: +0.106981833  nElectrons: 354.000000  magneticMoment: [ Abs: 34.70287  Tot: -0.00000 ]
	SubspaceRotationAdjust: set factor to 0.451
ElecMinimize: Iter: 105  F: -2113.207953926138089  |grad|_K:  2.528e-06  alpha:  4.160e-01  linmin:  1.708e-04  t[s]:   9079.52
	FillingsUpdate:  mu: +0.107333414  nElectrons: 354.000000  magneticMoment: [ Abs: 34.75078  Tot: -0.00000 ]
	SubspaceRotationAdjust: set factor to 0.388
ElecMinimize: Iter: 106  F: -2113.208281488050034  |grad|_K:  3.166e-06  alpha:  2.959e-01  linmin:  2.548e-05  t[s]:   9155.40
	FillingsUpdate:  mu: +0.105876213  nElectrons: 354.000000  magneticMoment: [ Abs: 34.77178  Tot: +0.00000 ]
	SubspaceRotationAdjust: set factor to 0.391
ElecMinimize: Iter: 107  F: -2113.208621527773630  |grad|_K:  2.706e-06  alpha:  1.833e-01  linmin: -1.340e-04  t[s]:   9232.37
	FillingsUpdate:  mu: +0.107449301  nElectrons: 354.000000  magneticMoment: [ Abs: 34.82393  Tot: +0.00000 ]
	SubspaceRotationAdjust: set factor to 0.45
ElecMinimize: Iter: 108  F: -2113.208985160947577  |grad|_K:  2.726e-06  alpha:  2.801e-01  linmin:  1.536e-04  t[s]:   9306.54
	FillingsUpdate:  mu: +0.107602089  nElectrons: 354.000000  magneticMoment: [ Abs: 34.87079  Tot: +0.00000 ]
	SubspaceRotationAdjust: set factor to 0.416
ElecMinimize: Iter: 109  F: -2113.209259149290119  |grad|_K:  2.861e-06  alpha:  2.180e-01  linmin: -4.784e-05  t[s]:   9383.33
	FillingsUpdate:  mu: +0.105882225  nElectrons: 354.000000  magneticMoment: [ Abs: 34.87360  Tot: +0.00000 ]
	SubspaceRotationAdjust: set factor to 0.391
ElecMinimize: Iter: 110  F: -2113.209477150020120  |grad|_K:  2.394e-06  alpha:  1.483e-01  linmin: -5.890e-06  t[s]:   9457.10
	FillingsUpdate:  mu: +0.107275841  nElectrons: 354.000000  magneticMoment: [ Abs: 34.90624  Tot: -0.00000 ]
	SubspaceRotationAdjust: set factor to 0.532
ElecMinimize: Iter: 111  F: -2113.209721884129976  |grad|_K:  2.079e-06  alpha:  2.431e-01  linmin: -4.379e-05  t[s]:   9535.56
	FillingsUpdate:  mu: +0.108222228  nElectrons: 354.000000  magneticMoment: [ Abs: 34.93842  Tot: +0.00000 ]
	SubspaceRotationAdjust: set factor to 0.462
ElecMinimize: Iter: 112  F: -2113.209919244530283  |grad|_K:  2.313e-06  alpha:  2.589e-01  linmin: -9.889e-05  t[s]:   9611.61
	FillingsUpdate:  mu: +0.106866394  nElectrons: 354.000000  magneticMoment: [ Abs: 34.93330  Tot: -0.00000 ]
	SubspaceRotationAdjust: set factor to 0.429
ElecMinimize: Iter: 113  F: -2113.210056710262506  |grad|_K:  2.160e-06  alpha:  1.423e-01  linmin: -4.853e-05  t[s]:   9689.33
	FillingsUpdate:  mu: +0.106874786  nElectrons: 354.000000  magneticMoment: [ Abs: 34.95242  Tot: -0.00000 ]
	SubspaceRotationAdjust: set factor to 0.511
ElecMinimize: Iter: 114  F: -2113.210233882015928  |grad|_K:  1.842e-06  alpha:  2.147e-01  linmin: -4.099e-05  t[s]:   9766.71
	FillingsUpdate:  mu: +0.108410675  nElectrons: 354.000000  magneticMoment: [ Abs: 34.97300  Tot: +0.00000 ]
	SubspaceRotationAdjust: set factor to 0.565
ElecMinimize: Iter: 115  F: -2113.210366863388572  |grad|_K:  1.727e-06  alpha:  2.220e-01  linmin: -1.433e-04  t[s]:   9842.98
	FillingsUpdate:  mu: +0.107931016  nElectrons: 354.000000  magneticMoment: [ Abs: 34.96717  Tot: +0.00000 ]
	SubspaceRotationAdjust: set factor to 0.428
ElecMinimize: Iter: 116  F: -2113.210470996468302  |grad|_K:  1.898e-06  alpha:  1.947e-01  linmin:  1.744e-05  t[s]:   9921.82
	FillingsUpdate:  mu: +0.107797868  nElectrons: 354.000000  magneticMoment: [ Abs: 34.97362  Tot: -0.00000 ]
	SubspaceRotationAdjust: set factor to 0.46
ElecMinimize: Iter: 117  F: -2113.210561480348588  |grad|_K:  1.591e-06  alpha:  1.440e-01  linmin: -2.567e-06  t[s]:   9995.86
	FillingsUpdate:  mu: +0.108007024  nElectrons: 354.000000  magneticMoment: [ Abs: 34.97665  Tot: -0.00000 ]
	SubspaceRotationAdjust: set factor to 0.451
ElecMinimize: Iter: 118  F: -2113.210690555911242  |grad|_K:  1.679e-06  alpha:  2.915e-01  linmin:  5.402e-06  t[s]:  10071.59
	FillingsUpdate:  mu: +0.107903867  nElectrons: 354.000000  magneticMoment: [ Abs: 34.96870  Tot: -0.00000 ]
	SubspaceRotationAdjust: set factor to 0.444
ElecMinimize: Iter: 119  F: -2113.210764989833478  |grad|_K:  1.552e-06  alpha:  1.516e-01  linmin:  8.234e-06  t[s]:  10150.39
	FillingsUpdate:  mu: +0.108373975  nElectrons: 354.000000  magneticMoment: [ Abs: 34.96556  Tot: +0.00000 ]
	SubspaceRotationAdjust: set factor to 0.589
ElecMinimize: Iter: 120  F: -2113.210863844236428  |grad|_K:  1.406e-06  alpha:  2.338e-01  linmin: -8.677e-05  t[s]:  10225.43
	FillingsUpdate:  mu: +0.108185874  nElectrons: 354.000000  magneticMoment: [ Abs: 34.95994  Tot: +0.00000 ]
	SubspaceRotationAdjust: set factor to 0.437
ElecMinimize: Iter: 121  F: -2113.210940105896952  |grad|_K:  1.729e-06  alpha:  2.180e-01  linmin:  6.577e-05  t[s]:  10301.70
	FillingsUpdate:  mu: +0.107526420  nElectrons: 354.000000  magneticMoment: [ Abs: 34.94326  Tot: +0.00000 ]
	SubspaceRotationAdjust: set factor to 0.541
ElecMinimize: Iter: 122  F: -2113.211021084861841  |grad|_K:  1.555e-06  alpha:  1.558e-01  linmin: -1.808e-06  t[s]:  10381.42
	FillingsUpdate:  mu: +0.108179549  nElectrons: 354.000000  magneticMoment: [ Abs: 34.93231  Tot: -0.00000 ]
	SubspaceRotationAdjust: set factor to 0.503
ElecMinimize: Iter: 123  F: -2113.211134486788069  |grad|_K:  1.757e-06  alpha:  2.645e-01  linmin: -1.371e-04  t[s]:  10456.69
	FillingsUpdate:  mu: +0.108875703  nElectrons: 354.000000  magneticMoment: [ Abs: 34.92964  Tot: +0.00000 ]
	SubspaceRotationAdjust: set factor to 0.476
ElecMinimize: Iter: 124  F: -2113.211218198767710  |grad|_K:  1.792e-06  alpha:  1.513e-01  linmin:  1.698e-06  t[s]:  10534.20
	FillingsUpdate:  mu: +0.108311158  nElectrons: 354.000000  magneticMoment: [ Abs: 34.90422  Tot: +0.00000 ]
	SubspaceRotationAdjust: set factor to 0.537
ElecMinimize: Iter: 125  F: -2113.211353588932525  |grad|_K:  1.858e-06  alpha:  2.452e-01  linmin:  1.354e-04  t[s]:  10610.42
	FillingsUpdate:  mu: +0.107410441  nElectrons: 354.000000  magneticMoment: [ Abs: 34.88500  Tot: +0.00000 ]
	SubspaceRotationAdjust: set factor to 0.438
ElecMinimize: Iter: 126  F: -2113.211453201673976  |grad|_K:  2.137e-06  alpha:  1.701e-01  linmin: -7.224e-06  t[s]:  10684.80
	FillingsUpdate:  mu: +0.108366575  nElectrons: 354.000000  magneticMoment: [ Abs: 34.88097  Tot: +0.00000 ]
	SubspaceRotationAdjust: set factor to 0.637
ElecMinimize: Iter: 127  F: -2113.211597624252136  |grad|_K:  1.844e-06  alpha:  1.801e-01  linmin: -8.083e-05  t[s]:  10760.94
	FillingsUpdate:  mu: +0.108596235  nElectrons: 354.000000  magneticMoment: [ Abs: 34.87892  Tot: -0.00000 ]
	SubspaceRotationAdjust: set factor to 0.485
ElecMinimize: Iter: 128  F: -2113.211748025172710  |grad|_K:  2.414e-06  alpha:  2.465e-01  linmin: -3.477e-05  t[s]:  10837.29
	FillingsUpdate:  mu: +0.107541150  nElectrons: 354.000000  magneticMoment: [ Abs: 34.86415  Tot: +0.00000 ]
	SubspaceRotationAdjust: set factor to 0.558
ElecMinimize: Iter: 129  F: -2113.211876887536619  |grad|_K:  2.062e-06  alpha:  1.105e-01  linmin: -3.994e-04  t[s]:  10913.65
	FillingsUpdate:  mu: +0.107080752  nElectrons: 354.000000  magneticMoment: [ Abs: 34.85881  Tot: +0.00000 ]
	SubspaceRotationAdjust: set factor to 0.382
ElecMinimize: Iter: 130  F: -2113.212063118002789  |grad|_K:  2.906e-06  alpha:  2.324e-01  linmin:  1.690e-04  t[s]:  10989.08
	FillingsUpdate:  mu: +0.108581485  nElectrons: 354.000000  magneticMoment: [ Abs: 34.87526  Tot: -0.00000 ]
	SubspaceRotationAdjust: set factor to 0.5
ElecMinimize: Iter: 131  F: -2113.212186225643563  |grad|_K:  2.130e-06  alpha:  8.922e-02  linmin:  7.742e-05  t[s]:  11061.07
	FillingsUpdate:  mu: +0.109056167  nElectrons: 354.000000  magneticMoment: [ Abs: 34.89339  Tot: +0.00000 ]
	SubspaceRotationAdjust: set factor to 0.358
ElecMinimize: Iter: 132  F: -2113.212325372514897  |grad|_K:  2.696e-06  alpha:  1.774e-01  linmin: -7.224e-05  t[s]:  11139.97
	FillingsUpdate:  mu: +0.108430020  nElectrons: 354.000000  magneticMoment: [ Abs: 34.89202  Tot: -0.00000 ]
	SubspaceRotationAdjust: set factor to 0.551
ElecMinimize: Iter: 133  F: -2113.212459828483134  |grad|_K:  1.873e-06  alpha:  9.985e-02  linmin: -9.502e-05  t[s]:  11216.03
	FillingsUpdate:  mu: +0.107207437  nElectrons: 354.000000  magneticMoment: [ Abs: 34.89045  Tot: -0.00000 ]
	SubspaceRotationAdjust: set factor to 0.356
ElecMinimize: Iter: 134  F: -2113.212562673917546  |grad|_K:  2.727e-06  alpha:  1.663e-01  linmin:  1.248e-04  t[s]:  11293.22
	FillingsUpdate:  mu: +0.108432907  nElectrons: 354.000000  magneticMoment: [ Abs: 34.91204  Tot: -0.00000 ]
	SubspaceRotationAdjust: set factor to 0.514
ElecMinimize: Iter: 135  F: -2113.212686640637457  |grad|_K:  1.907e-06  alpha:  9.909e-02  linmin:  6.564e-06  t[s]:  11371.95
	FillingsUpdate:  mu: +0.109215107  nElectrons: 354.000000  magneticMoment: [ Abs: 34.93325  Tot: +0.00000 ]
	SubspaceRotationAdjust: set factor to 0.393
ElecMinimize: Iter: 136  F: -2113.212779179803874  |grad|_K:  2.292e-06  alpha:  1.449e-01  linmin: -4.986e-05  t[s]:  11449.73
	FillingsUpdate:  mu: +0.108714380  nElectrons: 354.000000  magneticMoment: [ Abs: 34.94021  Tot: +0.00000 ]
	SubspaceRotationAdjust: set factor to 0.502
ElecMinimize: Iter: 137  F: -2113.212907857006485  |grad|_K:  1.754e-06  alpha:  1.377e-01  linmin:  3.667e-05  t[s]:  11526.23
	FillingsUpdate:  mu: +0.107257824  nElectrons: 354.000000  magneticMoment: [ Abs: 34.94073  Tot: -0.00000 ]
	SubspaceRotationAdjust: set factor to 0.352
ElecMinimize: Iter: 138  F: -2113.212997540517790  |grad|_K:  2.373e-06  alpha:  1.701e-01  linmin:  7.387e-05  t[s]:  11603.15
	FillingsUpdate:  mu: +0.108338715  nElectrons: 354.000000  magneticMoment: [ Abs: 34.96257  Tot: +0.00000 ]
	SubspaceRotationAdjust: set factor to 0.54
ElecMinimize: Iter: 139  F: -2113.213116664233439  |grad|_K:  1.786e-06  alpha:  1.250e-01  linmin: -5.686e-06  t[s]:  11679.95
	FillingsUpdate:  mu: +0.109110702  nElectrons: 354.000000  magneticMoment: [ Abs: 34.98236  Tot: +0.00000 ]
	SubspaceRotationAdjust: set factor to 0.389
ElecMinimize: Iter: 140  F: -2113.213213458415794  |grad|_K:  2.202e-06  alpha:  1.716e-01  linmin: -7.355e-05  t[s]:  11758.02
	FillingsUpdate:  mu: +0.108465249  nElectrons: 354.000000  magneticMoment: [ Abs: 34.98117  Tot: -0.00000 ]
	SubspaceRotationAdjust: set factor to 0.52
ElecMinimize: Iter: 141  F: -2113.213318880579664  |grad|_K:  1.651e-06  alpha:  1.192e-01  linmin:  3.798e-06  t[s]:  11836.27
	FillingsUpdate:  mu: +0.107367175  nElectrons: 354.000000  magneticMoment: [ Abs: 34.98033  Tot: +0.00000 ]
	SubspaceRotationAdjust: set factor to 0.379
ElecMinimize: Iter: 142  F: -2113.213430444208370  |grad|_K:  2.301e-06  alpha:  2.390e-01  linmin:  1.315e-04  t[s]:  11911.64
	FillingsUpdate:  mu: +0.108754280  nElectrons: 354.000000  magneticMoment: [ Abs: 34.99454  Tot: +0.00000 ]
	SubspaceRotationAdjust: set factor to 0.487
ElecMinimize: Iter: 143  F: -2113.213514624054824  |grad|_K:  1.782e-06  alpha:  1.008e-01  linmin:  1.186e-04  t[s]:  11989.03
	FillingsUpdate:  mu: +0.109244664  nElectrons: 354.000000  magneticMoment: [ Abs: 35.00363  Tot: -0.00000 ]
	SubspaceRotationAdjust: set factor to 0.403
ElecMinimize: Iter: 144  F: -2113.213620393551537  |grad|_K:  1.936e-06  alpha:  1.949e-01  linmin: -1.256e-04  t[s]:  12065.13
	FillingsUpdate:  mu: +0.108413337  nElectrons: 354.000000  magneticMoment: [ Abs: 34.99577  Tot: -0.00000 ]
	SubspaceRotationAdjust: set factor to 0.448
ElecMinimize: Iter: 145  F: -2113.213692417687980  |grad|_K:  1.642e-06  alpha:  1.031e-01  linmin: -1.121e-04  t[s]:  12143.09
	FillingsUpdate:  mu: +0.107635221  nElectrons: 354.000000  magneticMoment: [ Abs: 34.98984  Tot: +0.00000 ]
	SubspaceRotationAdjust: set factor to 0.352
ElecMinimize: Iter: 146  F: -2113.213791635745565  |grad|_K:  2.051e-06  alpha:  2.091e-01  linmin:  1.379e-04  t[s]:  12221.13
	FillingsUpdate:  mu: +0.108937451  nElectrons: 354.000000  magneticMoment: [ Abs: 34.99631  Tot: +0.00000 ]
	SubspaceRotationAdjust: set factor to 0.454
ElecMinimize: Iter: 147  F: -2113.213859666343978  |grad|_K:  1.622e-06  alpha:  1.006e-01  linmin:  8.434e-05  t[s]:  12295.51
	FillingsUpdate:  mu: +0.109432193  nElectrons: 354.000000  magneticMoment: [ Abs: 34.99843  Tot: -0.00000 ]
	SubspaceRotationAdjust: set factor to 0.365
ElecMinimize: Iter: 148  F: -2113.213940744187312  |grad|_K:  1.811e-06  alpha:  1.779e-01  linmin: -1.088e-04  t[s]:  12370.31
	FillingsUpdate:  mu: +0.108928536  nElectrons: 354.000000  magneticMoment: [ Abs: 34.98769  Tot: +0.00000 ]
	SubspaceRotationAdjust: set factor to 0.472
ElecMinimize: Iter: 149  F: -2113.214006023175898  |grad|_K:  1.430e-06  alpha:  1.083e-01  linmin: -1.619e-05  t[s]:  12450.20
	FillingsUpdate:  mu: +0.108141955  nElectrons: 354.000000  magneticMoment: [ Abs: 34.97690  Tot: -0.00000 ]
	SubspaceRotationAdjust: set factor to 0.332
ElecMinimize: Iter: 150  F: -2113.214074057239486  |grad|_K:  1.859e-06  alpha:  1.909e-01  linmin:  5.556e-05  t[s]:  12526.26
	FillingsUpdate:  mu: +0.109169820  nElectrons: 354.000000  magneticMoment: [ Abs: 34.97695  Tot: +0.00000 ]
	SubspaceRotationAdjust: set factor to 0.524
ElecMinimize: Iter: 151  F: -2113.214130936753008  |grad|_K:  1.380e-06  alpha:  9.877e-02  linmin:  2.306e-05  t[s]:  12601.50
	FillingsUpdate:  mu: +0.109737625  nElectrons: 354.000000  magneticMoment: [ Abs: 34.97688  Tot: -0.00000 ]
	SubspaceRotationAdjust: set factor to 0.394
ElecMinimize: Iter: 152  F: -2113.214185198854466  |grad|_K:  1.634e-06  alpha:  1.622e-01  linmin: -8.653e-05  t[s]:  12678.87
	FillingsUpdate:  mu: +0.109510766  nElectrons: 354.000000  magneticMoment: [ Abs: 34.96650  Tot: +0.00000 ]
	SubspaceRotationAdjust: set factor to 0.538
ElecMinimize: Iter: 153  F: -2113.214242665225356  |grad|_K:  1.271e-06  alpha:  1.187e-01  linmin:  3.079e-06  t[s]:  12755.67
	FillingsUpdate:  mu: +0.108581556  nElectrons: 354.000000  magneticMoment: [ Abs: 34.95433  Tot: +0.00000 ]
	SubspaceRotationAdjust: set factor to 0.399
ElecMinimize: Iter: 154  F: -2113.214296127899161  |grad|_K:  1.661e-06  alpha:  1.906e-01  linmin:  3.767e-05  t[s]:  12835.63
	FillingsUpdate:  mu: +0.109101501  nElectrons: 354.000000  magneticMoment: [ Abs: 34.95098  Tot: +0.00000 ]
	SubspaceRotationAdjust: set factor to 0.56
ElecMinimize: Iter: 155  F: -2113.214348620126657  |grad|_K:  1.270e-06  alpha:  1.117e-01  linmin:  5.968e-06  t[s]:  12912.09
	FillingsUpdate:  mu: +0.109699823  nElectrons: 354.000000  magneticMoment: [ Abs: 34.95063  Tot: +0.00000 ]
	SubspaceRotationAdjust: set factor to 0.447
ElecMinimize: Iter: 156  F: -2113.214397152265065  |grad|_K:  1.467e-06  alpha:  1.704e-01  linmin: -9.638e-05  t[s]:  12991.36
	FillingsUpdate:  mu: +0.109647879  nElectrons: 354.000000  magneticMoment: [ Abs: 34.94396  Tot: -0.00000 ]
	SubspaceRotationAdjust: set factor to 0.561
ElecMinimize: Iter: 157  F: -2113.214446500248869  |grad|_K:  1.224e-06  alpha:  1.272e-01  linmin:  3.911e-06  t[s]:  13070.02
	FillingsUpdate:  mu: +0.108875093  nElectrons: 354.000000  magneticMoment: [ Abs: 34.93498  Tot: -0.00000 ]
	SubspaceRotationAdjust: set factor to 0.462
ElecMinimize: Iter: 158  F: -2113.214496903830877  |grad|_K:  1.460e-06  alpha:  1.933e-01  linmin:  4.493e-05  t[s]:  13149.47
	FillingsUpdate:  mu: +0.109239007  nElectrons: 354.000000  magneticMoment: [ Abs: 34.93400  Tot: -0.00000 ]
	SubspaceRotationAdjust: set factor to 0.576
ElecMinimize: Iter: 159  F: -2113.214541190501677  |grad|_K:  1.293e-06  alpha:  1.209e-01  linmin:  2.396e-06  t[s]:  13228.24
	FillingsUpdate:  mu: +0.109861549  nElectrons: 354.000000  magneticMoment: [ Abs: 34.93632  Tot: -0.00000 ]
	SubspaceRotationAdjust: set factor to 0.519
ElecMinimize: Iter: 160  F: -2113.214594690454305  |grad|_K:  1.391e-06  alpha:  1.815e-01  linmin: -9.400e-05  t[s]:  13308.69
	FillingsUpdate:  mu: +0.109765514  nElectrons: 354.000000  magneticMoment: [ Abs: 34.93408  Tot: -0.00000 ]
	SubspaceRotationAdjust: set factor to 0.512
ElecMinimize: Iter: 161  F: -2113.214638800295688  |grad|_K:  1.334e-06  alpha:  1.276e-01  linmin:  8.282e-07  t[s]:  13382.87
	FillingsUpdate:  mu: +0.108865297  nElectrons: 354.000000  magneticMoment: [ Abs: 34.92995  Tot: -0.00000 ]
	SubspaceRotationAdjust: set factor to 0.543
ElecMinimize: Iter: 162  F: -2113.214692899819056  |grad|_K:  1.361e-06  alpha:  1.743e-01  linmin:  2.600e-05  t[s]:  13462.09
	FillingsUpdate:  mu: +0.109101745  nElectrons: 354.000000  magneticMoment: [ Abs: 34.93363  Tot: +0.00000 ]
	SubspaceRotationAdjust: set factor to 0.5
ElecMinimize: Iter: 163  F: -2113.214739221476066  |grad|_K:  1.427e-06  alpha:  1.441e-01  linmin:  9.911e-07  t[s]:  13538.69
	FillingsUpdate:  mu: +0.109793994  nElectrons: 354.000000  magneticMoment: [ Abs: 34.94215  Tot: -0.00000 ]
	SubspaceRotationAdjust: set factor to 0.602
ElecMinimize: Iter: 164  F: -2113.214790225128581  |grad|_K:  1.270e-06  alpha:  1.433e-01  linmin: -2.010e-05  t[s]:  13615.77
	FillingsUpdate:  mu: +0.109775444  nElectrons: 354.000000  magneticMoment: [ Abs: 34.94687  Tot: +0.00000 ]
	SubspaceRotationAdjust: set factor to 0.498
ElecMinimize: Iter: 165  F: -2113.214839403827682  |grad|_K:  1.478e-06  alpha:  1.727e-01  linmin: -2.140e-05  t[s]:  13694.74
	FillingsUpdate:  mu: +0.109054869  nElectrons: 354.000000  magneticMoment: [ Abs: 34.94854  Tot: +0.00000 ]
	SubspaceRotationAdjust: set factor to 0.653
ElecMinimize: Iter: 166  F: -2113.214886869631755  |grad|_K:  1.225e-06  alpha:  1.225e-01  linmin:  3.834e-06  t[s]:  13769.82
	FillingsUpdate:  mu: +0.108942286  nElectrons: 354.000000  magneticMoment: [ Abs: 34.95467  Tot: +0.00000 ]
	SubspaceRotationAdjust: set factor to 0.528
ElecMinimize: Iter: 167  F: -2113.214935233955657  |grad|_K:  1.470e-06  alpha:  1.850e-01  linmin:  2.381e-05  t[s]:  13849.97
	FillingsUpdate:  mu: +0.109438006  nElectrons: 354.000000  magneticMoment: [ Abs: 34.96391  Tot: -0.00000 ]
	SubspaceRotationAdjust: set factor to 0.684
ElecMinimize: Iter: 168  F: -2113.214974019929741  |grad|_K:  1.219e-06  alpha:  1.043e-01  linmin:  1.145e-05  t[s]:  13926.27
	FillingsUpdate:  mu: +0.109831447  nElectrons: 354.000000  magneticMoment: [ Abs: 34.97354  Tot: +0.00000 ]
	SubspaceRotationAdjust: set factor to 0.544
ElecMinimize: Iter: 169  F: -2113.215022183309429  |grad|_K:  1.434e-06  alpha:  1.853e-01  linmin: -2.895e-05  t[s]:  13999.15
	FillingsUpdate:  mu: +0.109435948  nElectrons: 354.000000  magneticMoment: [ Abs: 34.97506  Tot: -0.00000 ]
	SubspaceRotationAdjust: set factor to 0.626
ElecMinimize: Iter: 170  F: -2113.215056866700706  |grad|_K:  1.216e-06  alpha:  9.538e-02  linmin: -8.981e-06  t[s]:  14076.59
	FillingsUpdate:  mu: +0.108691520  nElectrons: 354.000000  magneticMoment: [ Abs: 34.97436  Tot: +0.00000 ]
	SubspaceRotationAdjust: set factor to 0.509
ElecMinimize: Iter: 171  F: -2113.215101106697603  |grad|_K:  1.391e-06  alpha:  1.718e-01  linmin:  4.895e-05  t[s]:  14152.84
	FillingsUpdate:  mu: +0.108880830  nElectrons: 354.000000  magneticMoment: [ Abs: 34.97800  Tot: -0.00000 ]
	SubspaceRotationAdjust: set factor to 0.546
ElecMinimize: Iter: 172  F: -2113.215133797460567  |grad|_K:  1.184e-06  alpha:  9.793e-02  linmin:  9.187e-07  t[s]:  14232.38
	FillingsUpdate:  mu: +0.109712025  nElectrons: 354.000000  magneticMoment: [ Abs: 34.98478  Tot: +0.00000 ]
	SubspaceRotationAdjust: set factor to 0.465
ElecMinimize: Iter: 173  F: -2113.215171489041040  |grad|_K:  1.270e-06  alpha:  1.529e-01  linmin: -4.157e-05  t[s]:  14308.85
	FillingsUpdate:  mu: +0.109672378  nElectrons: 354.000000  magneticMoment: [ Abs: 34.98517  Tot: -0.00000 ]
	SubspaceRotationAdjust: set factor to 0.484
ElecMinimize: Iter: 174  F: -2113.215205169560704  |grad|_K:  1.170e-06  alpha:  1.180e-01  linmin: -1.597e-06  t[s]:  14387.19
	FillingsUpdate:  mu: +0.108881780  nElectrons: 354.000000  magneticMoment: [ Abs: 34.97858  Tot: +0.00000 ]
	SubspaceRotationAdjust: set factor to 0.455
ElecMinimize: Iter: 175  F: -2113.215243648278374  |grad|_K:  1.212e-06  alpha:  1.616e-01  linmin:  4.586e-05  t[s]:  14463.93
	FillingsUpdate:  mu: +0.108411333  nElectrons: 354.000000  magneticMoment: [ Abs: 34.97426  Tot: -0.00000 ]
	SubspaceRotationAdjust: set factor to 0.45
ElecMinimize: Iter: 176  F: -2113.215273365668054  |grad|_K:  1.174e-06  alpha:  1.168e-01  linmin:  4.802e-06  t[s]:  14540.21
	FillingsUpdate:  mu: +0.109010711  nElectrons: 354.000000  magneticMoment: [ Abs: 34.97432  Tot: +0.00000 ]
	SubspaceRotationAdjust: set factor to 0.415
ElecMinimize: Iter: 177  F: -2113.215310708154902  |grad|_K:  1.236e-06  alpha:  1.548e-01  linmin: -1.997e-05  t[s]:  14617.35
	FillingsUpdate:  mu: +0.109564844  nElectrons: 354.000000  magneticMoment: [ Abs: 34.97455  Tot: -0.00000 ]
	SubspaceRotationAdjust: set factor to 0.526
ElecMinimize: Iter: 178  F: -2113.215341550656831  |grad|_K:  1.068e-06  alpha:  1.150e-01  linmin: -5.122e-06  t[s]:  14693.21
	FillingsUpdate:  mu: +0.109376021  nElectrons: 354.000000  magneticMoment: [ Abs: 34.96990  Tot: -0.00000 ]
	SubspaceRotationAdjust: set factor to 0.401
ElecMinimize: Iter: 179  F: -2113.215374637658442  |grad|_K:  1.273e-06  alpha:  1.655e-01  linmin: -3.943e-06  t[s]:  14771.60
	FillingsUpdate:  mu: +0.108844469  nElectrons: 354.000000  magneticMoment: [ Abs: 34.96298  Tot: +0.00000 ]
	SubspaceRotationAdjust: set factor to 0.573
ElecMinimize: Iter: 180  F: -2113.215404068686894  |grad|_K:  1.036e-06  alpha:  1.025e-01  linmin: -1.172e-05  t[s]:  14846.15
	FillingsUpdate:  mu: +0.108544246  nElectrons: 354.000000  magneticMoment: [ Abs: 34.95795  Tot: -0.00000 ]
	SubspaceRotationAdjust: set factor to 0.415
ElecMinimize: Iter: 181  F: -2113.215433329402003  |grad|_K:  1.345e-06  alpha:  1.557e-01  linmin:  2.342e-05  t[s]:  14922.74
	FillingsUpdate:  mu: +0.109105044  nElectrons: 354.000000  magneticMoment: [ Abs: 34.95663  Tot: -0.00000 ]
	SubspaceRotationAdjust: set factor to 0.596
ElecMinimize: Iter: 182  F: -2113.215464206481556  |grad|_K:  1.011e-06  alpha:  9.845e-02  linmin:  2.015e-06  t[s]:  15002.77
	FillingsUpdate:  mu: +0.109352281  nElectrons: 354.000000  magneticMoment: [ Abs: 34.95517  Tot: +0.00000 ]
	SubspaceRotationAdjust: set factor to 0.469
ElecMinimize: Iter: 183  F: -2113.215488490857297  |grad|_K:  1.207e-06  alpha:  1.355e-01  linmin: -2.102e-05  t[s]:  15083.09
	FillingsUpdate:  mu: +0.109095372  nElectrons: 354.000000  magneticMoment: [ Abs: 34.94914  Tot: +0.00000 ]
	SubspaceRotationAdjust: set factor to 0.563
ElecMinimize: Iter: 184  F: -2113.215520845799347  |grad|_K:  9.949e-07  alpha:  1.264e-01  linmin:  6.545e-06  t[s]:  15163.63
	FillingsUpdate:  mu: +0.108640037  nElectrons: 354.000000  magneticMoment: [ Abs: 34.94465  Tot: -0.00000 ]
	SubspaceRotationAdjust: set factor to 0.485
ElecMinimize: Iter: 185  F: -2113.215543763571077  |grad|_K:  1.139e-06  alpha:  1.327e-01  linmin:  2.698e-05  t[s]:  15243.06
	FillingsUpdate:  mu: +0.108860390  nElectrons: 354.000000  magneticMoment: [ Abs: 34.94412  Tot: +0.00000 ]
	SubspaceRotationAdjust: set factor to 0.537
ElecMinimize: Iter: 186  F: -2113.215576411419534  |grad|_K:  1.013e-06  alpha:  1.452e-01  linmin: -3.183e-06  t[s]:  15322.63
	FillingsUpdate:  mu: +0.109296105  nElectrons: 354.000000  magneticMoment: [ Abs: 34.94696  Tot: +0.00000 ]
	SubspaceRotationAdjust: set factor to 0.515
ElecMinimize: Iter: 187  F: -2113.215598353609494  |grad|_K:  1.025e-06  alpha:  1.224e-01  linmin: -1.291e-05  t[s]:  15400.66
[...]
	FillingsUpdate:  mu: +0.114414520  nElectrons: 354.000000  magneticMoment: [ Abs: 34.53560  Tot: -0.00000 ]
	SubspaceRotationAdjust: set factor to 0.376
ElecMinimize: Iter:  11  F: -2113.249098934188623  |grad|_K:  1.432e-07  alpha:  3.449e-01  linmin: -2.292e-06  t[s]: 100554.45
	FillingsUpdate:  mu: +0.114434871  nElectrons: 354.000000  magneticMoment: [ Abs: 34.53468  Tot: +0.00000 ]
	SubspaceRotationAdjust: set factor to 0.451
ElecMinimize: Iter:  12  F: -2113.249100339660345  |grad|_K:  1.156e-07  alpha:  3.916e-01  linmin:  6.988e-07  t[s]: 100632.17
	FillingsUpdate:  mu: +0.114428561  nElectrons: 354.000000  magneticMoment: [ Abs: 34.53429  Tot: +0.00000 ]
	SubspaceRotationAdjust: set factor to 0.543
ElecMinimize: Iter:  13  F: -2113.249101315324424  |grad|_K:  1.021e-07  alpha:  4.177e-01  linmin: -1.014e-06  t[s]: 100708.41
	FillingsUpdate:  mu: +0.114436786  nElectrons: 354.000000  magneticMoment: [ Abs: 34.53340  Tot: -0.00000 ]
	SubspaceRotationAdjust: set factor to 0.642
ElecMinimize: Iter:  14  F: -2113.249102078832948  |grad|_K:  9.086e-08  alpha:  4.191e-01  linmin:  4.082e-07  t[s]: 100788.25
	FillingsUpdate:  mu: +0.114430488  nElectrons: 354.000000  magneticMoment: [ Abs: 34.53289  Tot: +0.00000 ]
	SubspaceRotationAdjust: set factor to 0.732
ElecMinimize: Iter:  15  F: -2113.249102642685557  |grad|_K:  8.496e-08  alpha:  3.906e-01  linmin: -9.181e-07  t[s]: 100864.45
	FillingsUpdate:  mu: +0.114451162  nElectrons: 354.000000  magneticMoment: [ Abs: 34.53155  Tot: +0.00000 ]
	SubspaceRotationAdjust: set factor to 0.581
ElecMinimize: Iter:  16  F: -2113.249103079591350  |grad|_K:  9.741e-08  alpha:  3.460e-01  linmin:  8.584e-06  t[s]: 100940.97
	FillingsUpdate:  mu: +0.114422936  nElectrons: 354.000000  magneticMoment: [ Abs: 34.53181  Tot: -0.00000 ]
	SubspaceRotationAdjust: set factor to 0.452
ElecMinimize: Iter:  17  F: -2113.249103373036633  |grad|_K:  8.297e-08  alpha:  1.773e-01  linmin:  8.257e-06  t[s]: 101020.58
ElecMinimize: Converged (|Delta F|<1.000000e-06 for 5 iters).
Setting wave functions to eigenvectors of Hamiltonian

# Ionic positions in lattice coordinates:
ion Ni  -0.002241163423924   0.004840990885744   0.157433247437780 1
ion Ni   0.000000000000000   0.000000000000000  -0.050000000000000 0
ion Ni   0.000000000000000   0.500000000000000  -0.050000000000000 0
ion Ni   0.500000000000000   0.500000000000000  -0.050000000000000 0
ion Ni   0.250000000000000   0.750000000000000  -0.150000000000000 0
ion Ni  -0.250000000000000   0.250000000000000  -0.150000000000000 0
ion V   0.498535383900487  -0.000716605426196   0.156631814556004 1
ion V  -0.005819441837817   0.501768850633922   0.159592064095506 1
ion V   0.253972076484481   0.250865271447280   0.050898014934215 1
ion V   0.254129450503005   0.748874100566996   0.050848325285691 1
ion V  -0.242610482917093   0.252250410470217   0.050553793228081 1
ion V  -0.243150798496182   0.748678790719178   0.048560168804590 1
ion Cr   0.494649815765119   0.498459779629999   0.163729018795677 1
ion Co   0.500000000000000   0.000000000000000  -0.050000000000000 0
ion Co   0.250000000000000   0.250000000000000  -0.150000000000000 0
ion Co  -0.250000000000000   0.750000000000000  -0.150000000000000 0
ion O   0.254575507774482   0.253036835310978   0.154126525663154 1
ion O   0.261297210101741   0.742653826256267   0.150178437733449 1
ion O  -0.271406757354928   0.254925599520486   0.149544315977905 1
ion O  -0.267315609875222   0.743508036737863   0.143638593075482 1
ion O   0.001984784403513  -0.014686031724382   0.059652713150153 1
ion O   0.504322042430656  -0.008168741333173   0.049985246498930 1
ion O   0.007834891299816   0.508639913144069   0.055600632481442 1
ion O   0.509046155483393   0.512685729114924   0.044263662477309 1
ion O   0.250000000000000   0.250000000000000  -0.050000000000000 0
ion O   0.250000000000000   0.750000000000000  -0.050000000000000 0
ion O  -0.250000000000000   0.250000000000000  -0.050000000000000 0
ion O  -0.250000000000000   0.750000000000000  -0.050000000000000 0
ion O   0.000000000000000   0.000000000000000  -0.150000000000000 0
ion O   0.500000000000000   0.000000000000000  -0.150000000000000 0
ion O   0.000000000000000   0.500000000000000  -0.150000000000000 0
ion O   0.500000000000000   0.500000000000000  -0.150000000000000 0
ion O  -0.036900786054792  -0.013012038314893   0.243585761277406 1
ion H   0.075792497877663   0.072621403791022   0.264187759933411 1

# Forces in Lattice coordinates:
force Ni  -0.001938050868544   0.002852806544059  -0.018774274689163 1
force Ni   0.013613499233264   0.008859853695543  -0.662360005546798 0
force Ni   0.040945636903737  -0.022570635522358  -0.781982657679198 0
force Ni   0.014315900741271  -0.026601856768053  -0.890250222942129 0
force Ni  -0.037975770939487  -0.013092415872812   0.593982267530210 0
force Ni   0.035564084919285   0.016709135377273   0.621402641408180 0
force V  -0.001220686598448   0.001740289063052  -0.006177032925271 1
force V   0.004199217457970   0.000081230110140   0.003000891690287 1
force V   0.001018314310958  -0.000876290096729  -0.015780625077921 1
force V   0.004396764746069  -0.001251206514165  -0.019224469586866 1
force V  -0.000155708261589  -0.004335569634318   0.008270578913860 1
force V  -0.000393263503611   0.008423504930916  -0.029825206353871 1
force Cr  -0.003115376571553  -0.001594298034532   0.000455533980863 1
force Co   0.003906594575954   0.023237770000522  -0.832092663136899 0
force Co  -0.007189294771666   0.016589884698845   0.010895950196378 0
force Co   0.011582917052574  -0.017758049460474  -0.100271723860553 0
force O  -0.001319141953838   0.001544329505452   0.000744786913149 1
force O  -0.001533974832479   0.000701363695538  -0.010533895943812 1
force O   0.002697309956987   0.002062288120728   0.027081115486547 1
force O   0.000907395153230   0.000535625127307   0.015541706619096 1
force O  -0.004541405628985   0.003506567596407  -0.000279421224207 1
force O  -0.001898505396245   0.001993890018911   0.002055709426587 1
force O  -0.001699121121518  -0.003537846555490  -0.022491874467743 1
force O   0.004438118025314  -0.004077279938285   0.011499928803262 1
force O  -0.025600388658170   0.055050365827666   0.465865197841158 0
force O  -0.022879135800633  -0.038634736902958   0.157045056737407 0
force O  -0.007073667299752   0.038070597477795  -0.068797018171321 0
force O   0.016600827158023  -0.022527772310429   0.774726182120114 0
force O  -0.004691194116396  -0.004526236193062   0.137868132656727 0
force O  -0.004068161940021  -0.004621802186033   0.336462361249083 0
force O  -0.005323869395149   0.008162785371975   0.204365293368934 0
force O   0.000227259231333  -0.000857326861170   0.230764854480822 0
force O  -0.006610098329102   0.005970607952511   0.017128239935164 1
force H  -0.010083327081038  -0.010691819808094  -0.012612403977792 1

# Energy components:
   Eewald =     5559.2403589044834007
       EH =     7466.0056055541899696
     Eloc =   -15288.7980488685680029
      Enl =     -566.6222016487506608
   Epulay =       -0.0004871405826656
      Exc =     -254.0059653064791974
       KE =      969.5812384824287165
        U =        1.3509875658709087
-------------------------------------
     Etot =    -2113.2485124574068323
       TS =        0.0005909156298052
-------------------------------------
        F =    -2113.2491033730366325

IonicMinimize: Iter:  19  F: -2113.249103373036633  |grad|_K:  3.544e-04  alpha:  1.000e+00  linmin: -2.797e-03  t[s]: 101031.98

#--- Lowdin population analysis ---
# oxidation-state Ni +3.544 +3.358 +3.398 +3.434 +3.860 +3.855
# magnetic-moments Ni -0.092 +0.548 +0.268 +0.823 -1.016 +1.010
# oxidation-state V +1.165 +1.103 +1.068 +1.147 +1.017 +1.252
# magnetic-moments V -2.792 +2.959 +2.774 +2.458 -2.866 -2.135
# oxidation-state Cr +2.870
# magnetic-moments Cr -3.979
# oxidation-state Co +1.069 +1.256 +1.256
# magnetic-moments Co +0.886 -2.726 +2.725
# oxidation-state O -0.870 -0.856 -0.846 -0.836 -0.814 -0.907 -0.863 -0.841 -0.791 -0.746 -0.746 -0.796 -0.834 -0.879 -0.819 -0.830 -0.749
# magnetic-moments O -0.045 +0.121 +0.178 +0.033 +0.032 -0.016 +0.016 +0.078 -0.071 -0.074 +0.138 +0.083 +0.140 -0.031 +0.161 +0.109 +0.009
# oxidation-state H +0.368
# magnetic-moments H -0.000


-------- Electronic minimization -----------
	FillingsUpdate:  mu: +0.119480949  nElectrons: 354.000000  magneticMoment: [ Abs: 34.52507  Tot: -0.00000 ]
ElecMinimize: Iter:   0  F: -2113.192045577703993  |grad|_K:  3.878e-05  alpha:  1.000e+00
	FillingsUpdate:  mu: +0.115606858  nElectrons: 354.000000  magneticMoment: [ Abs: 34.55868  Tot: -0.00000 ]
	SubspaceRotationAdjust: set factor to 0.462
ElecMinimize: Iter:   1  F: -2113.242955213103414  |grad|_K:  1.057e-05  alpha:  1.965e-01  linmin:  3.242e-03  t[s]: 101136.34
	FillingsUpdate:  mu: +0.114275284  nElectrons: 354.000000  magneticMoment: [ Abs: 34.52468  Tot: +0.00000 ]
	SubspaceRotationAdjust: set factor to 0.435
ElecMinimize: Iter:   2  F: -2113.247567006325880  |grad|_K:  4.126e-06  alpha:  2.400e-01  linmin:  5.466e-04  t[s]: 101215.31
	FillingsUpdate:  mu: +0.113941837  nElectrons: 354.000000  magneticMoment: [ Abs: 34.55581  Tot: -0.00000 ]
	SubspaceRotationAdjust: set factor to 0.339
ElecMinimize: Iter:   3  F: -2113.248329979862319  |grad|_K:  3.128e-06  alpha:  2.566e-01  linmin: -1.001e-03  t[s]: 101291.33
	FillingsUpdate:  mu: +0.114281089  nElectrons: 354.000000  magneticMoment: [ Abs: 34.53031  Tot: +0.00000 ]
	SubspaceRotationAdjust: set factor to 0.278
ElecMinimize: Iter:   4  F: -2113.248769690647805  |grad|_K:  1.706e-06  alpha:  2.496e-01  linmin:  4.781e-04  t[s]: 101368.58
	FillingsUpdate:  mu: +0.114268720  nElectrons: 354.000000  magneticMoment: [ Abs: 34.53159  Tot: -0.00000 ]
	SubspaceRotationAdjust: set factor to 0.351
ElecMinimize: Iter:   5  F: -2113.248975355859784  |grad|_K:  1.194e-06  alpha:  4.122e-01  linmin: -2.733e-06  t[s]: 101446.94
	FillingsUpdate:  mu: +0.114225147  nElectrons: 354.000000  magneticMoment: [ Abs: 34.53376  Tot: +0.00000 ]
	SubspaceRotationAdjust: set factor to 0.398
ElecMinimize: Iter:   6  F: -2113.249073800043789  |grad|_K:  8.057e-07  alpha:  3.949e-01  linmin: -3.100e-06  t[s]: 101526.04
	FillingsUpdate:  mu: +0.114449075  nElectrons: 354.000000  magneticMoment: [ Abs: 34.52581  Tot: +0.00000 ]
	SubspaceRotationAdjust: set factor to 0.338
ElecMinimize: Iter:   7  F: -2113.249114166887011  |grad|_K:  6.873e-07  alpha:  3.551e-01  linmin:  5.350e-05  t[s]: 101604.11
	FillingsUpdate:  mu: +0.114307751  nElectrons: 354.000000  magneticMoment: [ Abs: 34.53019  Tot: +0.00000 ]
	SubspaceRotationAdjust: set factor to 0.256
ElecMinimize: Iter:   8  F: -2113.249135061892048  |grad|_K:  3.984e-07  alpha:  2.543e-01  linmin: -8.333e-06  t[s]: 101680.60
	FillingsUpdate:  mu: +0.114346842  nElectrons: 354.000000  magneticMoment: [ Abs: 34.52814  Tot: +0.00000 ]
	SubspaceRotationAdjust: set factor to 0.29
ElecMinimize: Iter:   9  F: -2113.249145590250009  |grad|_K:  2.624e-07  alpha:  3.791e-01  linmin:  4.516e-06  t[s]: 101758.50
	FillingsUpdate:  mu: +0.114359044  nElectrons: 354.000000  magneticMoment: [ Abs: 34.52713  Tot: +0.00000 ]
	SubspaceRotationAdjust: set factor to 0.327
ElecMinimize: Iter:  10  F: -2113.249149479926018  |grad|_K:  1.749e-07  alpha:  3.231e-01  linmin:  1.190e-07  t[s]: 101836.57
	FillingsUpdate:  mu: +0.114340546  nElectrons: 354.000000  magneticMoment: [ Abs: 34.52733  Tot: +0.00000 ]
	SubspaceRotationAdjust: set factor to 0.352
ElecMinimize: Iter:  11  F: -2113.249151360502310  |grad|_K:  1.270e-07  alpha:  3.514e-01  linmin: -3.702e-07  t[s]: 101910.32
	FillingsUpdate:  mu: +0.114359187  nElectrons: 354.000000  magneticMoment: [ Abs: 34.52625  Tot: +0.00000 ]
	SubspaceRotationAdjust: set factor to 0.395
ElecMinimize: Iter:  12  F: -2113.249152386782043  |grad|_K:  1.011e-07  alpha:  3.636e-01  linmin:  1.264e-06  t[s]: 101988.97
	FillingsUpdate:  mu: +0.114342545  nElectrons: 354.000000  magneticMoment: [ Abs: 34.52593  Tot: +0.00000 ]
	SubspaceRotationAdjust: set factor to 0.462
ElecMinimize: Iter:  13  F: -2113.249153113390093  |grad|_K:  8.604e-08  alpha:  4.067e-01  linmin:  1.095e-06  t[s]: 102068.23
	FillingsUpdate:  mu: +0.114357146  nElectrons: 354.000000  magneticMoment: [ Abs: 34.52485  Tot: +0.00000 ]
	SubspaceRotationAdjust: set factor to 0.536
ElecMinimize: Iter:  14  F: -2113.249153705198296  |grad|_K:  7.946e-08  alpha:  4.573e-01  linmin: -3.418e-07  t[s]: 102142.19
	FillingsUpdate:  mu: +0.114346305  nElectrons: 354.000000  magneticMoment: [ Abs: 34.52429  Tot: +0.00000 ]
	SubspaceRotationAdjust: set factor to 0.584
ElecMinimize: Iter:  15  F: -2113.249154178273329  |grad|_K:  8.131e-08  alpha:  4.284e-01  linmin: -5.930e-07  t[s]: 102215.64
	FillingsUpdate:  mu: +0.114361962  nElectrons: 354.000000  magneticMoment: [ Abs: 34.52273  Tot: +0.00000 ]
	SubspaceRotationAdjust: set factor to 0.546
ElecMinimize: Iter:  16  F: -2113.249154583435029  |grad|_K:  8.573e-08  alpha:  3.502e-01  linmin:  4.230e-06  t[s]: 102290.29
	FillingsUpdate:  mu: +0.114335655  nElectrons: 354.000000  magneticMoment: [ Abs: 34.52266  Tot: -0.00000 ]
	SubspaceRotationAdjust: set factor to 0.449
ElecMinimize: Iter:  17  F: -2113.249154916680254  |grad|_K:  8.407e-08  alpha:  2.595e-01  linmin: -2.026e-06  t[s]: 102367.99
ElecMinimize: Converged (|Delta F|<1.000000e-06 for 5 iters).
Setting wave functions to eigenvectors of Hamiltonian

# Ionic positions in lattice coordinates:
ion Ni  -0.002600665829548   0.005202676489889   0.157370819327349 1
ion Ni   0.000000000000000   0.000000000000000  -0.050000000000000 0
ion Ni   0.000000000000000   0.500000000000000  -0.050000000000000 0
ion Ni   0.500000000000000   0.500000000000000  -0.050000000000000 0
ion Ni   0.250000000000000   0.750000000000000  -0.150000000000000 0
ion Ni  -0.250000000000000   0.250000000000000  -0.150000000000000 0
ion V   0.498555800195726  -0.000514529530536   0.156602571274581 1
ion V  -0.005550060650264   0.501969468175058   0.159738046900844 1
ion V   0.253953174911207   0.251017657360738   0.050935702063988 1
ion V   0.254086420093202   0.748814482425080   0.050837555922960 1
ion V  -0.242587634594884   0.252172778891198   0.050537250405843 1
ion V  -0.243142157368653   0.748954743333149   0.048539036633218 1
ion Cr   0.494864272154615   0.498627600491706   0.163822770091011 1
ion Co   0.500000000000000   0.000000000000000  -0.050000000000000 0
ion Co   0.250000000000000   0.250000000000000  -0.150000000000000 0
ion Co  -0.250000000000000   0.750000000000000  -0.150000000000000 0
ion O   0.254879388967848   0.253335900930925   0.154222675841142 1
ion O   0.261405365227509   0.742846284772993   0.150277858813567 1
ion O  -0.271362912668793   0.254987737573276   0.149639785237058 1
ion O  -0.267829834841437   0.743333345515390   0.143666748147986 1
ion O   0.001814015470753  -0.014867103761256   0.059618785060634 1
ion O   0.504056823551924  -0.008275408092075   0.050003754145621 1
ion O   0.007688736115074   0.508918885731341   0.055888037678329 1
ion O   0.509032338368937   0.512900768502271   0.044243552637358 1
ion O   0.250000000000000   0.250000000000000  -0.050000000000000 0
ion O   0.250000000000000   0.750000000000000  -0.050000000000000 0
ion O  -0.250000000000000   0.250000000000000  -0.050000000000000 0
ion O  -0.250000000000000   0.750000000000000  -0.050000000000000 0
ion O   0.000000000000000   0.000000000000000  -0.150000000000000 0
ion O   0.500000000000000   0.000000000000000  -0.150000000000000 0
ion O   0.000000000000000   0.500000000000000  -0.150000000000000 0
ion O   0.500000000000000   0.500000000000000  -0.150000000000000 0
ion O  -0.039695446756025  -0.013322976678040   0.243704090090239 1
ion H   0.073294152481872   0.069819011792284   0.264541664308337 1

# Forces in Lattice coordinates:
force Ni  -0.001569462355221  -0.004098286303026   0.044033433472702 1
force Ni   0.013910721100398   0.008775220068289  -0.667657280691750 0
force Ni   0.040029797888147  -0.022666674574229  -0.784652435570733 0
force Ni   0.014286666045813  -0.026604176368139  -0.894150710386575 0
force Ni  -0.037939186425574  -0.013133651209899   0.589503366101537 0
force Ni   0.035516987235968   0.016698099549011   0.617760429214041 0
force V  -0.000030431497068   0.001792910436934   0.004784479021223 1
force V  -0.000385342433871   0.001283582283628   0.010597967203534 1
force V  -0.000311644092529   0.000539785586269  -0.004164968567534 1
force V   0.000817036628472  -0.000918581455601   0.005533207723626 1
force V  -0.000854078881334   0.000073149228502   0.013274934447908 1
force V  -0.002621200579760  -0.001079088460925   0.002128895246301 1
force Cr  -0.005734490851921  -0.002508778860886   0.014179844901297 1
force Co   0.003079628534175   0.023499532510750  -0.837450771833636 0
force Co  -0.007187481706645   0.016653058072682   0.007916047576309 0
force Co   0.011573246965723  -0.017769410479072  -0.103996562627149 0
force O  -0.001432568040084  -0.001339095593691  -0.009561508175945 1
force O  -0.000722906748197   0.002174689224874  -0.021176581808039 1
force O   0.002183920645224  -0.002232836427584  -0.000466569280777 1
force O   0.002755850957476   0.006796340850786   0.000479388406200 1
force O  -0.000717565054753   0.006032934803176   0.000325718790760 1
force O   0.000166555234269   0.004314494791308  -0.002671614184438 1
force O   0.001850472926605  -0.006162181448274  -0.046151145715282 1
force O   0.002074289833938  -0.005637183899886   0.010807726860812 1
force O  -0.025446931998928   0.054028265428587   0.469518888333810 0
force O  -0.022879733654177  -0.037825685655136   0.161185692803395 0
force O  -0.007285863707515   0.037565138690893  -0.067350642512012 0
force O   0.016277021258909  -0.021297967905014   0.775985071029726 0
force O  -0.004760129004234  -0.004447117833468   0.138490862689252 0
force O  -0.003929926207546  -0.004618624847932   0.336378463414990 0
force O  -0.005284015183597   0.008161309266992   0.203383115185662 0
force O   0.000296366711851  -0.000906258633559   0.231164526985324 0
force O  -0.030610682227454  -0.022318150389770  -0.117993792647088 1
force H   0.022990709601997   0.014049325880698   0.066047187517997 1

# Energy components:
   Eewald =     5557.6372728310107050
       EH =     7464.3715131052185825
     Eloc =   -15285.5603865374432644
      Enl =     -566.6218594217796181
   Epulay =       -0.0004871405826656
      Exc =     -254.0054406284254469
       KE =      969.5798299857567599
        U =        1.3510073025686518
-------------------------------------
     Etot =    -2113.2485505036770519
       TS =        0.0006044130030099
-------------------------------------
        F =    -2113.2491549166802542

IonicMinimize: Iter:  20  F: -2113.249154916680254  |grad|_K:  7.776e-04  alpha:  1.000e+00  linmin:  6.994e-03  t[s]: 102379.36
IonicMinimize: Converged (|Delta F|<1.000000e-04 for 3 iters).

#--- Lowdin population analysis ---
# oxidation-state Ni +3.541 +3.358 +3.398 +3.434 +3.860 +3.855
# magnetic-moments Ni -0.100 +0.547 +0.271 +0.823 -1.016 +1.010
# oxidation-state V +1.168 +1.103 +1.068 +1.148 +1.017 +1.252
# magnetic-moments V -2.785 +2.960 +2.776 +2.455 -2.867 -2.134
# oxidation-state Cr +2.871
# magnetic-moments Cr -3.977
# oxidation-state Co +1.069 +1.256 +1.256
# magnetic-moments Co +0.886 -2.726 +2.725
# oxidation-state O -0.871 -0.856 -0.845 -0.836 -0.814 -0.907 -0.863 -0.841 -0.791 -0.746 -0.746 -0.796 -0.834 -0.879 -0.819 -0.830 -0.751
# magnetic-moments O -0.044 +0.121 +0.179 +0.034 +0.032 -0.016 +0.016 +0.078 -0.071 -0.074 +0.137 +0.082 +0.141 -0.031 +0.161 +0.109 +0.008
# oxidation-state H +0.371
# magnetic-moments H -0.000


Dumping 'run.ionpos' ... done
Dumping 'run.lattice' ... done
Dumping 'run.Ecomponents' ... done
End date and time: Sun May 18 23:28:45 2025  (Duration: 1-4:26:22.55)
Done!
