
*************** JDFTx 1.7.0  ***************

Start date and time: Sun May 18 10:12:14 2025
Executable /data2/jt577/jdftx_eat_withLibXC/build/jdftx with command-line: -i /data2/jt577/May_2025/Relax_Mag_litU/rel17+1_6/O/runs/calc_/run.in
Running on hosts (process indices):  node3403 (0-8)
Divided in process groups (process indices):  0 (0)  1 (1)  2 (2)  3 (3)  4 (4)  5 (5)  6 (6)  7 (7)  8 (8)
Resource initialization completed at t[s]:      0.00
Run totals: 9 processes, 90 threads, 0 GPUs


Input parsed successfully to the following command list (including defaults):

add-mix 
add-U 	Ni d 0.235196 \
	Co d 0.121273 \
	Cr d 0.128623 \
	V d 0.113923
basis kpoint-dependent
coords-type Lattice
core-overlap-check vector
coulomb-interaction Periodic
davidson-band-ratio 1.1
dump End IonicPositions Lattice Ecomponents
dump-name run.$VAR
elec-cutoff 30
elec-eigen-algo Davidson
elec-ex-corr gga-x-rpbe gga-c-pbe
elec-smearing Fermi 0.001
electronic-minimize  \
	dirUpdateScheme      FletcherReeves \
	linminMethod         DirUpdateRecommended \
	nIterations          1000 \
	history              15 \
	knormThreshold       0 \
	energyDiffThreshold  1e-06 \
	nEnergyDiff          5 \
	alphaTstart          1 \
	alphaTmin            1e-10 \
	updateTestStepSize   yes \
	alphaTreduceFactor   0.1 \
	alphaTincreaseFactor 3 \
	nAlphaAdjustMax      3 \
	wolfeEnergy          0.0001 \
	wolfeGradient        0.9 \
	fdTest               no
exchange-regularization WignerSeitzTruncated
fluid None
fluid-ex-corr (null) lda-PZ
fluid-gummel-loop 10 1.000000e-05
fluid-minimize  \
	dirUpdateScheme      PolakRibiere \
	linminMethod         DirUpdateRecommended \
	nIterations          100 \
	history              15 \
	knormThreshold       0 \
	energyDiffThreshold  0 \
	nEnergyDiff          2 \
	alphaTstart          1 \
	alphaTmin            1e-10 \
	updateTestStepSize   yes \
	alphaTreduceFactor   0.1 \
	alphaTincreaseFactor 3 \
	nAlphaAdjustMax      3 \
	wolfeEnergy          0.0001 \
	wolfeGradient        0.9 \
	fdTest               no
fluid-solvent H2O 55.338 ScalarEOS \
	epsBulk 78.4 \
	pMol 0.92466 \
	epsInf 1.77 \
	Pvap 1.06736e-10 \
	sigmaBulk 4.62e-05 \
	Rvdw 2.61727 \
	Res 1.42 \
	tauNuc 343133 \
	poleEl 15 7 1
forces-output-coords Positions
initial-magnetic-moments  \
	Ni 1 1 -1 1 \
	Co -1 -1 \
	Cr -1 1 \
	V 1 1 -1 -1 -1 1 -1 1
initial-state run.$VAR
ion Ni  0.000000000000000   0.000000000000000   0.150000000000000 1
ion Ni  0.000000000000000   0.500000000000000   0.150000000000000 1
ion Ni  0.250000000000000   0.250000000000000  -0.150000000000000 0
ion Ni -0.250000000000000   0.250000000000000  -0.150000000000000 0
ion Co  0.500000000000000   0.000000000000000   0.150000000000000 1
ion Co  0.250000000000000   0.750000000000000  -0.150000000000000 0
ion Cr  0.500000000000000   0.500000000000000   0.150000000000000 1
ion Cr -0.250000000000000   0.750000000000000  -0.150000000000000 0
ion V  0.250000000000000   0.250000000000000   0.050000000000000 1
ion V  0.250000000000000   0.750000000000000   0.050000000000000 1
ion V -0.250000000000000   0.250000000000000   0.050000000000000 1
ion V -0.250000000000000   0.750000000000000   0.050000000000000 1
ion V  0.000000000000000   0.000000000000000  -0.050000000000000 0
ion V  0.500000000000000   0.000000000000000  -0.050000000000000 0
ion V  0.000000000000000   0.500000000000000  -0.050000000000000 0
ion V  0.500000000000000   0.500000000000000  -0.050000000000000 0
ion O  0.250000000000000   0.250000000000000   0.150000000000000 1
ion O  0.250000000000000   0.750000000000000   0.150000000000000 1
ion O -0.250000000000000   0.250000000000000   0.150000000000000 1
ion O -0.250000000000000   0.750000000000000   0.150000000000000 1
ion O  0.000000000000000   0.000000000000000   0.050000000000000 1
ion O  0.500000000000000   0.000000000000000   0.050000000000000 1
ion O  0.000000000000000   0.500000000000000   0.050000000000000 1
ion O  0.500000000000000   0.500000000000000   0.050000000000000 1
ion O  0.250000000000000   0.250000000000000  -0.050000000000000 0
ion O  0.250000000000000   0.750000000000000  -0.050000000000000 0
ion O -0.250000000000000   0.250000000000000  -0.050000000000000 0
ion O -0.250000000000000   0.750000000000000  -0.050000000000000 0
ion O  0.000000000000000   0.000000000000000  -0.150000000000000 0
ion O  0.500000000000000   0.000000000000000  -0.150000000000000 0
ion O  0.000000000000000   0.500000000000000  -0.150000000000000 0
ion O  0.500000000000000   0.500000000000000  -0.150000000000000 0
ion O -0.000095572322686   0.000198307128402   0.224876729873325 1
ion-species SG15/$ID_ONCV_PBE.upf
ion-width 0
ionic-minimize  \
	dirUpdateScheme      L-BFGS \
	linminMethod         DirUpdateRecommended \
	nIterations          1000 \
	history              15 \
	knormThreshold       0.0001 \
	energyDiffThreshold  0.0001 \
	nEnergyDiff          3 \
	alphaTstart          1 \
	alphaTmin            1e-10 \
	updateTestStepSize   yes \
	alphaTreduceFactor   0.1 \
	alphaTincreaseFactor 3 \
	nAlphaAdjustMax      3 \
	wolfeEnergy          0.0001 \
	wolfeGradient        0.9 \
	fdTest               no
kpoint   0.500000000000   0.500000000000   0.500000000000  1.00000000000000
kpoint-folding 3 3 1 
latt-move-scale 1 1 1
latt-scale 1 1 1 
lattice  \
	   8.140000000000001    8.140000000000001    0.000000000000000  \
	   8.140000000000001   -8.140000000000001    0.000000000000000  \
	   0.000000000000000    0.000000000000000   40.700000000000003 
lattice-minimize  \
	dirUpdateScheme      L-BFGS \
	linminMethod         DirUpdateRecommended \
	nIterations          0 \
	history              15 \
	knormThreshold       0 \
	energyDiffThreshold  1e-06 \
	nEnergyDiff          2 \
	alphaTstart          1 \
	alphaTmin            1e-10 \
	updateTestStepSize   yes \
	alphaTreduceFactor   0.1 \
	alphaTincreaseFactor 3 \
	nAlphaAdjustMax      3 \
	wolfeEnergy          0.0001 \
	wolfeGradient        0.9 \
	fdTest               no
lcao-params -1 1e-06 0.001
pcm-variant GLSSA13
spintype z-spin
subspace-rotation-factor 1 yes
symmetries none
symmetry-threshold 0.0001


Applied RMS atom displacement 0 bohrs to make symmetries exact.

---------- Initializing the Grid ----------
R = 
[         8.14         8.14            0  ]
[         8.14        -8.14            0  ]
[            0            0         40.7  ]
unit cell volume = 5393.53
G =
[   0.385945   0.385945         -0  ]
[   0.385945  -0.385945         -0  ]
[         -0         -0   0.154378  ]
Minimum fftbox size, Smin = [  60  60  204  ]
Chosen fftbox size, S = [  60  60  210  ]

---------- Exchange Correlation functional ----------
Initialized LibXC exchange functional 'Hammer, Hansen, and Norskov'
Initialized LibXC correlation functional 'Perdew, Burke & Ernzerhof'

---------- Setting up pseudopotentials ----------
Width of ionic core gaussian charges (only for fluid interactions / plotting) set to 0

Reading pseudopotential file '/data2/jt577/jdftx_eat_withLibXC/build/pseudopotentials/SG15/Ni_ONCV_PBE.upf':
  'Ni' pseudopotential, 'PBE' functional
  Generated using ONCVPSP code by D. R. Hamann
  Author: Martin Schlipf and Francois Gygi  Date: 150915.
  18 valence electrons, 4 orbitals, 6 projectors, 1292 radial grid points, with lMax = 2
  Transforming local potential to a uniform radial grid of dG=0.02 with 1419 points.
  Transforming nonlocal projectors to a uniform radial grid of dG=0.02 with 528 points.
    3S    l: 0   occupation:  2.0   eigenvalue: -4.081355
    3P    l: 1   occupation:  6.0   eigenvalue: -2.623460
    4S    l: 0   occupation:  2.0   eigenvalue: -0.207378
    3D    l: 2   occupation:  8.0   eigenvalue: -0.326118
  Transforming atomic orbitals to a uniform radial grid of dG=0.02 with 528 points.
  WARNING: large normalization error in atomic orbital 1s (integral: 0.000006).
  Core radius for overlap checks: 1.99 bohrs.
  Reading pulay file /data2/jt577/jdftx_eat_withLibXC/build/pseudopotentials/SG15/Ni_ONCV_PBE.pulay ... using dE_dnG = -7.250568e-04 computed for Ecut = 30.

Reading pseudopotential file '/data2/jt577/jdftx_eat_withLibXC/build/pseudopotentials/SG15/Co_ONCV_PBE.upf':
  'Co' pseudopotential, 'PBE' functional
  Generated using ONCVPSP code by D. R. Hamann
  Author: Martin Schlipf and Francois Gygi  Date: 150915.
  17 valence electrons, 4 orbitals, 6 projectors, 1388 radial grid points, with lMax = 2
  Transforming local potential to a uniform radial grid of dG=0.02 with 1419 points.
  Transforming nonlocal projectors to a uniform radial grid of dG=0.02 with 528 points.
    3S    l: 0   occupation:  2.0   eigenvalue: -3.763303
    3P    l: 1   occupation:  6.0   eigenvalue: -2.412101
    4S    l: 0   occupation:  2.0   eigenvalue: -0.201022
    3D    l: 2   occupation:  7.0   eigenvalue: -0.301498
  Transforming atomic orbitals to a uniform radial grid of dG=0.02 with 528 points.
  Core radius for overlap checks: 1.94 bohrs.
  Reading pulay file /data2/jt577/jdftx_eat_withLibXC/build/pseudopotentials/SG15/Co_ONCV_PBE.pulay ... using dE_dnG = -9.787391e-05 computed for Ecut = 30.

Reading pseudopotential file '/data2/jt577/jdftx_eat_withLibXC/build/pseudopotentials/SG15/Cr_ONCV_PBE.upf':
  'Cr' pseudopotential, 'PBE' functional
  Generated using ONCVPSP code by D. R. Hamann
  Author: Martin Schlipf and Francois Gygi  Date: 150915.
  14 valence electrons, 4 orbitals, 6 projectors, 1160 radial grid points, with lMax = 2
  Transforming local potential to a uniform radial grid of dG=0.02 with 1419 points.
  Transforming nonlocal projectors to a uniform radial grid of dG=0.02 with 528 points.
    3S    l: 0   occupation:  2.0   eigenvalue: -2.865131
    3P    l: 1   occupation:  6.0   eigenvalue: -1.810600
    4S    l: 0   occupation:  2.0   eigenvalue: -0.180525
    3D    l: 2   occupation:  4.0   eigenvalue: -0.220312
  Transforming atomic orbitals to a uniform radial grid of dG=0.02 with 528 points.
  WARNING: large normalization error in atomic orbital 1s (integral: 0.000001).
  Core radius for overlap checks: 2.10 bohrs.
  Reading pulay file /data2/jt577/jdftx_eat_withLibXC/build/pseudopotentials/SG15/Cr_ONCV_PBE.pulay ... using dE_dnG = -9.817895e-06 computed for Ecut = 30.

Reading pseudopotential file '/data2/jt577/jdftx_eat_withLibXC/build/pseudopotentials/SG15/V_ONCV_PBE.upf':
  'V' pseudopotential, 'PBE' functional
  Generated using ONCVPSP code by D. R. Hamann
  Author: Martin Schlipf and Francois Gygi  Date: 150915.
  13 valence electrons, 4 orbitals, 6 projectors, 1536 radial grid points, with lMax = 2
  Transforming local potential to a uniform radial grid of dG=0.02 with 1419 points.
  Transforming nonlocal projectors to a uniform radial grid of dG=0.02 with 528 points.
    3S    l: 0   occupation:  2.0   eigenvalue: -2.581105
    3P    l: 1   occupation:  6.0   eigenvalue: -1.618486
    4S    l: 0   occupation:  2.0   eigenvalue: -0.172804
    3D    l: 2   occupation:  3.0   eigenvalue: -0.189795
  Transforming atomic orbitals to a uniform radial grid of dG=0.02 with 528 points.
  Core radius for overlap checks: 1.80 bohrs.
  Reading pulay file /data2/jt577/jdftx_eat_withLibXC/build/pseudopotentials/SG15/V_ONCV_PBE.pulay ... using dE_dnG = -1.698632e-04 computed for Ecut = 30.

Reading pseudopotential file '/data2/jt577/jdftx_eat_withLibXC/build/pseudopotentials/SG15/O_ONCV_PBE.upf':
  'O' pseudopotential, 'PBE' functional
  Generated using ONCVPSP code by D. R. Hamann
  Author: Martin Schlipf and Francois Gygi  Date: 150915.
  6 valence electrons, 2 orbitals, 4 projectors, 936 radial grid points, with lMax = 1
  Transforming local potential to a uniform radial grid of dG=0.02 with 1419 points.
  Transforming nonlocal projectors to a uniform radial grid of dG=0.02 with 528 points.
    2S    l: 0   occupation:  2.0   eigenvalue: -0.880572
    2P    l: 1   occupation:  4.0   eigenvalue: -0.331869
  Transforming atomic orbitals to a uniform radial grid of dG=0.02 with 528 points.
  Core radius for overlap checks: 1.29 bohrs.
  Reading pulay file /data2/jt577/jdftx_eat_withLibXC/build/pseudopotentials/SG15/O_ONCV_PBE.pulay ... using dE_dnG = -8.209514e-03 computed for Ecut = 30.

Initialized 5 species with 33 total atoms.

Folded 1 k-points by 3x3x1 to 9 k-points.

---------- Setting up k-points, bands, fillings ----------
No reducable k-points. 
Computing the number of bands and number of electrons
Calculating initial fillings.
nElectrons: 340.000000   nBands: 228   nStates: 18

----- Setting up reduced wavefunction bases (one per k-point) -----
average nbasis = 42312.000 , ideal nbasis = 42330.081

---------- Setting up ewald sum ----------
Optimum gaussian width for ewald sums = 3.906449 bohr.
Real space sum over 605 unit cells with max indices [  5  5  2  ]
Reciprocal space sum over 5915 terms with max indices [  6  6  17  ]

---------- Allocating electronic variables ----------
Initializing wave functions:  linear combination of atomic orbitals
Ni (M=1) pseudo-atom majority spin occupations:   s ( 1 0.5 )  p ( 3 )  d ( 5 )
Ni (M=1) pseudo-atom minority spin occupations:   s ( 1 0 )  p ( 3 )  d ( 4.5 )
Co (M=1) pseudo-atom majority spin occupations:   s ( 1 0 )  p ( 3 )  d ( 5 )
Co (M=1) pseudo-atom minority spin occupations:   s ( 1 0 )  p ( 3 )  d ( 4 )
Cr (M=1) pseudo-atom majority spin occupations:   s ( 1 0 )  p ( 3 )  d ( 3.5 )
Cr (M=1) pseudo-atom minority spin occupations:   s ( 1 0 )  p ( 3 )  d ( 2.5 )
V (M=1) pseudo-atom majority spin occupations:   s ( 1 0 )  p ( 3 )  d ( 3 )
V (M=1) pseudo-atom minority spin occupations:   s ( 1 0 )  p ( 3 )  d ( 2 )
O pseudo-atom occupations:   s ( 2 )  p ( 4 )
	FillingsUpdate:  mu: -0.602521805  nElectrons: 340.000000  magneticMoment: [ Abs: 0.92267  Tot: +0.00000 ]
LCAOMinimize: Iter:   0  F: -1763.9450717845688814  |grad|_K:  1.167e-02  alpha:  1.000e+00
	FillingsUpdate:  mu: -0.440629588  nElectrons: 340.000000  magneticMoment: [ Abs: 1.99465  Tot: +0.00000 ]
LCAOMinimize: Iter:   1  F: -1770.4048492374688522  |grad|_K:  2.939e-02  alpha:  1.030e-01  linmin:  2.542e-02  cgtest:  3.659e-01  t[s]:     42.93
LCAOMinimize: 	Bad step direction: g.d > 0.
LCAOMinimize: 	Undoing step.
LCAOMinimize: 	Step failed: resetting search direction.
	FillingsUpdate:  mu: -0.440629588  nElectrons: 340.000000  magneticMoment: [ Abs: 1.99465  Tot: +0.00000 ]
LCAOMinimize: Iter:   2  F: -1770.4048492374688522  |grad|_K:  2.939e-02  alpha:  0.000e+00
LCAOMinimize: 	Step increased F by 2.150236e+00, reducing alpha to 2.798122e-03.
	FillingsUpdate:  mu: -0.481751507  nElectrons: 340.000000  magneticMoment: [ Abs: 1.98989  Tot: -0.00000 ]
LCAOMinimize: Iter:   3  F: -1774.3782322290576303  |grad|_K:  4.644e-02  alpha:  2.798e-03  linmin: -8.483e-02  cgtest:  5.334e-01  t[s]:     77.52
	FillingsUpdate:  mu: -0.447090540  nElectrons: 340.000000  magneticMoment: [ Abs: 3.06053  Tot: +0.00000 ]
LCAOMinimize: Iter:   4  F: -1782.1299163695746302  |grad|_K:  3.600e-02  alpha:  3.398e-03  linmin:  1.107e-01  cgtest: -4.763e-01  t[s]:     92.09
LCAOMinimize: 	Bad step direction: g.d > 0.
LCAOMinimize: 	Undoing step.
LCAOMinimize: 	Step failed: resetting search direction.
	FillingsUpdate:  mu: -0.447090540  nElectrons: 340.000000  magneticMoment: [ Abs: 3.06053  Tot: +0.00000 ]
LCAOMinimize: Iter:   5  F: -1782.1299163695746302  |grad|_K:  3.600e-02  alpha:  0.000e+00
	FillingsUpdate:  mu: -0.505647715  nElectrons: 340.000000  magneticMoment: [ Abs: 3.78310  Tot: +0.00000 ]
LCAOMinimize: Iter:   6  F: -1785.3479446170742904  |grad|_K:  1.997e-02  alpha:  6.176e-03  linmin:  3.092e-02  cgtest: -3.021e-01  t[s]:    117.14
LCAOMinimize: 	Wrong curvature in test step, increasing alphaT to 1.852788e-02.
	FillingsUpdate:  mu: -0.535691566  nElectrons: 340.000000  magneticMoment: [ Abs: 4.43292  Tot: +0.00000 ]
LCAOMinimize: Iter:   7  F: -1787.0226037865754734  |grad|_K:  1.959e-02  alpha: -2.085e-01  linmin: -2.799e-02  cgtest:  1.025e+00  t[s]:    131.08
LCAOMinimize: Encountered beta<0, resetting CG.
LCAOMinimize: 	Step increased F by 2.761879e+02, reducing alpha to 2.110533e-02.
	FillingsUpdate:  mu: -0.452214552  nElectrons: 340.000000  magneticMoment: [ Abs: 4.84189  Tot: +0.00000 ]
LCAOMinimize: Iter:   8  F: -1788.3187657525588747  |grad|_K:  3.297e-02  alpha:  2.111e-02  linmin:  7.959e-03  cgtest: -4.401e-01  t[s]:    155.96
LCAOMinimize: 	Step increased F by 2.036483e+02, reducing alpha to 3.981538e-03.
	FillingsUpdate:  mu: -0.449297622  nElectrons: 340.000000  magneticMoment: [ Abs: 5.68335  Tot: -0.00000 ]
LCAOMinimize: Iter:   9  F: -1792.9346017940390539  |grad|_K:  3.446e-02  alpha:  3.982e-03  linmin: -3.575e-02  cgtest:  1.027e+00  t[s]:    180.82
LCAOMinimize: 	Wrong curvature in test step, increasing alphaT to 1.194461e-02.
	FillingsUpdate:  mu: -0.450507341  nElectrons: 340.000000  magneticMoment: [ Abs: 7.43561  Tot: +0.00000 ]
LCAOMinimize: Iter:  10  F: -1799.8458640012709111  |grad|_K:  3.440e-02  alpha: -3.958e-03  linmin: -1.358e-01  cgtest:  5.083e-01  t[s]:    194.59
LCAOMinimize: 	Step increased F by 4.269119e+02, reducing alpha to 3.914311e-02.
LCAOMinimize: 	Step increased F by 1.876687e+01, reducing alpha to 3.914311e-03.
	FillingsUpdate:  mu: -0.441458063  nElectrons: 340.000000  magneticMoment: [ Abs: 8.68456  Tot: -0.00000 ]
LCAOMinimize: Iter:  11  F: -1803.4249543235596320  |grad|_K:  2.121e-02  alpha:  3.914e-03  linmin: -4.914e-02  cgtest:  6.244e-01  t[s]:    230.41
LCAOMinimize: Encountered beta<0, resetting CG.
LCAOMinimize: 	Predicted alpha/alphaT>3.000000, increasing alphaT to 1.174293e-02.
	FillingsUpdate:  mu: -0.246056532  nElectrons: 340.000000  magneticMoment: [ Abs: 6.99903  Tot: -0.00000 ]
LCAOMinimize: Iter:  12  F: -1807.7238580850400922  |grad|_K:  2.098e-02  alpha:  1.965e-02  linmin: -1.164e-02  cgtest:  3.732e-02  t[s]:    249.26
	FillingsUpdate:  mu: +1.037340219  nElectrons: 340.000000  magneticMoment: [ Abs: 10.85161  Tot: -0.00000 ]
LCAOMinimize: Iter:  13  F: -1813.7359070555869494  |grad|_K:  2.765e-02  alpha:  4.320e-02  linmin:  6.079e-02  cgtest: -6.958e-01  t[s]:    263.68
LCAOMinimize: 	Bad step direction: g.d > 0.
LCAOMinimize: 	Undoing step.
LCAOMinimize: 	Step failed: resetting search direction.
	FillingsUpdate:  mu: +1.037340219  nElectrons: 340.000000  magneticMoment: [ Abs: 10.85161  Tot: -0.00000 ]
LCAOMinimize: Iter:  14  F: -1813.7359070555869494  |grad|_K:  2.765e-02  alpha:  0.000e+00
	FillingsUpdate:  mu: +0.399739725  nElectrons: 340.000000  magneticMoment: [ Abs: 10.40298  Tot: -0.00000 ]
LCAOMinimize: Iter:  15  F: -1819.2933265571614356  |grad|_K:  2.177e-02  alpha:  1.803e-02  linmin:  9.028e-02  cgtest: -4.272e-01  t[s]:    288.63
LCAOMinimize: 	Step increased F by 3.985170e-02, reducing alpha to 6.419421e-04.
	FillingsUpdate:  mu: +0.364020733  nElectrons: 340.000000  magneticMoment: [ Abs: 10.37315  Tot: +0.00000 ]
LCAOMinimize: Iter:  16  F: -1819.3847673585485154  |grad|_K:  2.174e-02  alpha:  6.419e-04  linmin: -3.333e-02  cgtest:  1.002e+00  t[s]:    313.28
LCAOMinimize: Encountered beta<0, resetting CG.
LCAOMinimize: 	Predicted alpha/alphaT>3.000000, increasing alphaT to 1.925826e-03.
LCAOMinimize: 	Predicted alpha/alphaT>3.000000, increasing alphaT to 5.777479e-03.
	FillingsUpdate:  mu: +0.102263461  nElectrons: 340.000000  magneticMoment: [ Abs: 10.39480  Tot: +0.00000 ]
LCAOMinimize: Iter:  17  F: -1821.2314328096733789  |grad|_K:  7.523e-03  alpha:  8.592e-03  linmin:  2.751e-02  cgtest: -2.507e-01  t[s]:    336.90
LCAOMinimize: 	Predicted alpha/alphaT>3.000000, increasing alphaT to 2.577570e-02.
	FillingsUpdate:  mu: -0.011878733  nElectrons: 340.000000  magneticMoment: [ Abs: 11.55386  Tot: +0.00000 ]
LCAOMinimize: Iter:  18  F: -1821.9957936762573354  |grad|_K:  6.956e-03  alpha:  3.140e-02  linmin: -3.503e-04  cgtest:  2.964e-01  t[s]:    356.16
	FillingsUpdate:  mu: -0.033205849  nElectrons: 340.000000  magneticMoment: [ Abs: 12.31723  Tot: -0.00000 ]
LCAOMinimize: Iter:  19  F: -1822.4146224431992778  |grad|_K:  6.615e-03  alpha:  1.955e-02  linmin: -1.642e-03  cgtest: -2.444e-02  t[s]:    370.75
	FillingsUpdate:  mu: +0.112987985  nElectrons: 340.000000  magneticMoment: [ Abs: 13.83263  Tot: -0.00000 ]
LCAOMinimize: Iter:  20  F: -1823.0244981085979816  |grad|_K:  5.752e-03  alpha:  3.049e-02  linmin:  1.089e-03  cgtest: -2.881e-01  t[s]:    385.68
	FillingsUpdate:  mu: +0.040841447  nElectrons: 340.000000  magneticMoment: [ Abs: 14.69240  Tot: -0.00000 ]
LCAOMinimize: Iter:  21  F: -1823.5378824484580491  |grad|_K:  4.845e-03  alpha:  3.415e-02  linmin:  3.519e-03  cgtest:  1.858e-01  t[s]:    400.47
	FillingsUpdate:  mu: -0.002012268  nElectrons: 340.000000  magneticMoment: [ Abs: 15.31657  Tot: -0.00000 ]
LCAOMinimize: Iter:  22  F: -1823.7578332111863801  |grad|_K:  2.924e-03  alpha:  2.183e-02  linmin: -5.642e-04  cgtest:  2.397e-01  t[s]:    415.36
	FillingsUpdate:  mu: +0.012484538  nElectrons: 340.000000  magneticMoment: [ Abs: 16.42658  Tot: -0.00000 ]
LCAOMinimize: Iter:  23  F: -1823.8936475578479985  |grad|_K:  2.419e-03  alpha:  3.466e-02  linmin:  6.458e-03  cgtest: -8.186e-02  t[s]:    430.39
	FillingsUpdate:  mu: +0.010469412  nElectrons: 340.000000  magneticMoment: [ Abs: 17.02028  Tot: -0.00000 ]
LCAOMinimize: Iter:  24  F: -1823.9465898646292317  |grad|_K:  1.995e-03  alpha:  2.155e-02  linmin: -1.163e-04  cgtest:  7.492e-02  t[s]:    445.22
	FillingsUpdate:  mu: -0.009429924  nElectrons: 340.000000  magneticMoment: [ Abs: 17.59899  Tot: +0.00000 ]
LCAOMinimize: Iter:  25  F: -1824.0286603308070426  |grad|_K:  1.166e-03  alpha:  4.133e-02  linmin: -5.301e-03  cgtest: -1.196e-01  t[s]:    459.78
	FillingsUpdate:  mu: +0.013706503  nElectrons: 340.000000  magneticMoment: [ Abs: 18.53709  Tot: -0.00000 ]
LCAOMinimize: Iter:  26  F: -1824.0574436292204155  |grad|_K:  1.311e-03  alpha:  4.005e-02  linmin: -4.200e-04  cgtest: -5.789e-02  t[s]:    474.60
	FillingsUpdate:  mu: +0.025058629  nElectrons: 340.000000  magneticMoment: [ Abs: 19.48819  Tot: +0.00000 ]
LCAOMinimize: Iter:  27  F: -1824.0783834482253951  |grad|_K:  1.323e-03  alpha:  2.578e-02  linmin:  5.488e-05  cgtest:  1.290e-01  t[s]:    489.58
LCAOMinimize: 	Predicted alpha/alphaT>3.000000, increasing alphaT to 7.734452e-02.
	FillingsUpdate:  mu: +0.028862211  nElectrons: 340.000000  magneticMoment: [ Abs: 21.86723  Tot: +0.00000 ]
LCAOMinimize: Iter:  28  F: -1824.1506005750329678  |grad|_K:  1.247e-03  alpha:  8.568e-02  linmin: -3.641e-03  cgtest:  6.761e-01  t[s]:    508.67
	FillingsUpdate:  mu: +0.004209722  nElectrons: 340.000000  magneticMoment: [ Abs: 22.64118  Tot: +0.00000 ]
LCAOMinimize: Iter:  29  F: -1824.2174627922777290  |grad|_K:  1.209e-03  alpha:  8.760e-02  linmin: -2.272e-03  cgtest:  3.092e-02  t[s]:    523.72
	FillingsUpdate:  mu: -0.005622787  nElectrons: 340.000000  magneticMoment: [ Abs: 23.06752  Tot: -0.00000 ]
LCAOMinimize: Iter:  30  F: -1824.2335154229836007  |grad|_K:  7.458e-04  alpha:  2.351e-02  linmin:  1.872e-03  cgtest: -2.027e-01  t[s]:    538.59
LCAOMinimize: None of the convergence criteria satisfied after 30 iterations.


---- Citations for features of the code used in this run ----

   Software package:
      R. Sundararaman, K. Letchworth-Weaver, K.A. Schwarz, D. Gunceler, Y. Ozhabes and T.A. Arias, 'JDFTx: software for joint density-functional theory', SoftwareX 6, 278 (2017)

   Simplified rotationally-invariant DFT+U:
      S. L. Dudarev et al., Phys. Rev. B 57, 1505 (1998)

   LibXC library of exchange-correlation functions:
      M. A. L. Marques, M. J. T. Oliveira and T. Burnus, Comput. Phys. Commun. 183, 2272 (2012)

   Hammer, Hansen, and Norskov exchange functional:
      B. Hammer, L. B. Hansen, and J. K. Nørskov, Phys. Rev. B 59, 7413 (1999)

   Perdew, Burke & Ernzerhof correlation functional:
      J. P. Perdew, K. Burke, and M. Ernzerhof, Phys. Rev. Lett. 77, 3865 (1996)

   Pseudopotentials:
      M Schlipf and F Gygi, Comput. Phys. Commun. 196, 36 (2015)

   Total energy minimization with Auxiliary Hamiltonian:
      C. Freysoldt, S. Boeck, and J. Neugebauer, Phys. Rev. B 79, 241103(R) (2009)

This list may not be complete. Please suggest additional citations or
report any other bugs at https://github.com/shankar1729/jdftx/issues

Initialization completed successfully at t[s]:    545.01


-------- Electronic minimization -----------
	FillingsUpdate:  mu: -0.005622771  nElectrons: 340.000000  magneticMoment: [ Abs: 23.06752  Tot: -0.00000 ]
ElecMinimize: Iter:   0  F: -1824.233515422985420  |grad|_K:  8.648e-04  alpha:  1.000e+00
	FillingsUpdate:  mu: +0.683021317  nElectrons: 340.000000  magneticMoment: [ Abs: 26.43034  Tot: -0.00000 ]
	SubspaceRotationAdjust: set factor to 0.935
ElecMinimize: Iter:   1  F: -1859.393684390647650  |grad|_K:  1.339e-03  alpha:  4.705e-01  linmin:  6.816e-03  t[s]:    634.89
ElecMinimize: 	Step increased F by 1.481342e+01, reducing alpha to 5.633836e-03.
	FillingsUpdate:  mu: +0.427924376  nElectrons: 340.000000  magneticMoment: [ Abs: 26.23132  Tot: -0.00000 ]
	SubspaceRotationAdjust: set factor to 1.16
ElecMinimize: Iter:   2  F: -1862.417350485842235  |grad|_K:  8.394e-04  alpha:  5.634e-03  linmin: -4.527e-03  t[s]:    754.74
	FillingsUpdate:  mu: +0.312157535  nElectrons: 340.000000  magneticMoment: [ Abs: 26.02405  Tot: -0.00000 ]
	SubspaceRotationAdjust: set factor to 0.946
ElecMinimize: Iter:   3  F: -1864.441032273960673  |grad|_K:  7.998e-04  alpha:  1.169e-02  linmin: -7.072e-04  t[s]:    831.51
ElecMinimize: 	Predicted alpha/alphaT>3.000000, increasing alphaT to 3.506215e-02.
	FillingsUpdate:  mu: +0.440583857  nElectrons: 340.000000  magneticMoment: [ Abs: 24.12038  Tot: +0.00000 ]
	SubspaceRotationAdjust: set factor to 0.528
ElecMinimize: Iter:   4  F: -1869.053584236567531  |grad|_K:  1.619e-03  alpha:  3.787e-02  linmin:  7.788e-04  t[s]:    938.05
	FillingsUpdate:  mu: +0.000335671  nElectrons: 340.000000  magneticMoment: [ Abs: 23.01150  Tot: -0.00000 ]
	SubspaceRotationAdjust: set factor to 0.535
ElecMinimize: Iter:   5  F: -1880.523054484275917  |grad|_K:  6.516e-04  alpha:  2.492e-02  linmin:  7.948e-04  t[s]:   1012.88
	FillingsUpdate:  mu: +0.191240344  nElectrons: 340.000000  magneticMoment: [ Abs: 26.87607  Tot: -0.00000 ]
	SubspaceRotationAdjust: set factor to 0.429
ElecMinimize: Iter:   6  F: -1883.471087792650223  |grad|_K:  7.512e-04  alpha:  5.658e-02  linmin:  1.669e-03  t[s]:   1089.55
	FillingsUpdate:  mu: +0.224952349  nElectrons: 340.000000  magneticMoment: [ Abs: 27.07657  Tot: -0.00000 ]
	SubspaceRotationAdjust: set factor to 0.348
ElecMinimize: Iter:   7  F: -1883.580928036866453  |grad|_K:  7.430e-04  alpha:  1.359e-03  linmin: -9.908e-04  t[s]:   1167.53
ElecMinimize: 	Wrong curvature in test step, increasing alphaT to 4.076268e-03.
	FillingsUpdate:  mu: +0.244165815  nElectrons: 340.000000  magneticMoment: [ Abs: 27.25006  Tot: -0.00000 ]
	SubspaceRotationAdjust: set factor to 0.295
ElecMinimize: Iter:   8  F: -1883.988686918745316  |grad|_K:  7.128e-04  alpha: -6.062e-03  linmin: -3.913e-03  t[s]:   1215.08
ElecMinimize: 	Step increased F by 1.725602e+02, reducing alpha to 1.618813e-02.
ElecMinimize: 	Step increased F by 8.824985e+00, reducing alpha to 1.618813e-03.
ElecMinimize: 	Step increased F by 9.759745e+00, reducing alpha to 1.618813e-04.
ElecMinimize: 	Step failed to reduce F after 3 attempts. Quitting step.
ElecMinimize: 	Undoing step.
ElecMinimize: 	Step failed: resetting search direction.
	FillingsUpdate:  mu: +0.139569999  nElectrons: 340.000000  magneticMoment: [ Abs: 26.84401  Tot: -0.00000 ]
	SubspaceRotationAdjust: set factor to 0.421
ElecMinimize: Iter:   9  F: -1874.155314450623337  |grad|_K:  7.064e-04  alpha:  1.619e-04
ElecMinimize: 	Step increased F by 4.101801e+00, reducing alpha to 2.845599e-02.
	FillingsUpdate:  mu: +0.059407584  nElectrons: 340.000000  magneticMoment: [ Abs: 26.71103  Tot: -0.00000 ]
	SubspaceRotationAdjust: set factor to 0.495
ElecMinimize: Iter:  10  F: -1876.487684315059369  |grad|_K:  6.194e-04  alpha:  2.846e-02  linmin: -9.185e-03  t[s]:   1539.38
	FillingsUpdate:  mu: +0.340264088  nElectrons: 340.000000  magneticMoment: [ Abs: 27.41564  Tot: +0.00000 ]
	SubspaceRotationAdjust: set factor to 0.297
ElecMinimize: Iter:  11  F: -1885.097908723633964  |grad|_K:  6.431e-04  alpha:  7.947e-02  linmin: -4.351e-03  t[s]:   1617.53
	FillingsUpdate:  mu: +0.147341591  nElectrons: 340.000000  magneticMoment: [ Abs: 29.22119  Tot: -0.00000 ]
	SubspaceRotationAdjust: set factor to 0.246
ElecMinimize: Iter:  12  F: -1888.238586719786099  |grad|_K:  2.252e-04  alpha:  3.045e-02  linmin: -1.296e-03  t[s]:   1693.63
ElecMinimize: 	Predicted alpha/alphaT>3.000000, increasing alphaT to 9.134464e-02.
	FillingsUpdate:  mu: +0.243091224  nElectrons: 340.000000  magneticMoment: [ Abs: 29.37436  Tot: -0.00000 ]
	SubspaceRotationAdjust: set factor to 0.149
ElecMinimize: Iter:  13  F: -1889.703741556777459  |grad|_K:  2.973e-04  alpha:  1.490e-01  linmin: -3.298e-04  t[s]:   1798.21
	FillingsUpdate:  mu: +0.144892513  nElectrons: 340.000000  magneticMoment: [ Abs: 30.07802  Tot: -0.00000 ]
	SubspaceRotationAdjust: set factor to 0.116
	SubspaceRotationAdjust: resetting CG because factor has changed by 0.116455
ElecMinimize: 	State modified externally: resetting search direction.
ElecMinimize: Iter:  14  F: -1890.495105075243373  |grad|_K:  1.502e-04  alpha:  7.172e-02
	FillingsUpdate:  mu: +0.152285077  nElectrons: 340.000000  magneticMoment: [ Abs: 29.92026  Tot: -0.00000 ]
	SubspaceRotationAdjust: set factor to 0.0874
ElecMinimize: Iter:  15  F: -1891.287830812476841  |grad|_K:  8.829e-05  alpha:  2.058e-01  linmin:  8.278e-04  t[s]:   1965.63
	FillingsUpdate:  mu: +0.117668821  nElectrons: 340.000000  magneticMoment: [ Abs: 30.29324  Tot: +0.00000 ]
	SubspaceRotationAdjust: set factor to 0.07
ElecMinimize: Iter:  16  F: -1891.477963846970397  |grad|_K:  6.956e-05  alpha:  1.542e-01  linmin: -3.897e-04  t[s]:   2043.58
	FillingsUpdate:  mu: +0.087493440  nElectrons: 340.000000  magneticMoment: [ Abs: 30.69024  Tot: -0.00000 ]
	SubspaceRotationAdjust: set factor to 0.0952
ElecMinimize: Iter:  17  F: -1891.862879418595412  |grad|_K:  5.369e-05  alpha:  4.375e-01  linmin: -8.103e-04  t[s]:   2122.49
	FillingsUpdate:  mu: +0.096559391  nElectrons: 340.000000  magneticMoment: [ Abs: 31.19378  Tot: +0.00000 ]
	SubspaceRotationAdjust: set factor to 0.0995
ElecMinimize: Iter:  18  F: -1892.071880180355947  |grad|_K:  5.713e-05  alpha:  3.637e-01  linmin: -2.590e-04  t[s]:   2200.79
	FillingsUpdate:  mu: +0.090626102  nElectrons: 340.000000  magneticMoment: [ Abs: 32.04364  Tot: -0.00000 ]
	SubspaceRotationAdjust: set factor to 0.107
ElecMinimize: Iter:  19  F: -1892.336501588526517  |grad|_K:  5.924e-05  alpha:  4.238e-01  linmin: -5.089e-04  t[s]:   2277.78
	FillingsUpdate:  mu: +0.082082281  nElectrons: 340.000000  magneticMoment: [ Abs: 32.90221  Tot: +0.00000 ]
	SubspaceRotationAdjust: set factor to 0.116
ElecMinimize: Iter:  20  F: -1892.672940472517439  |grad|_K:  6.756e-05  alpha:  4.475e-01  linmin: -1.400e-04  t[s]:   2355.41
	FillingsUpdate:  mu: +0.100290512  nElectrons: 340.000000  magneticMoment: [ Abs: 34.40358  Tot: +0.00000 ]
	SubspaceRotationAdjust: set factor to 0.127
ElecMinimize: Iter:  21  F: -1893.182818596472998  |grad|_K:  9.652e-05  alpha:  5.780e-01  linmin: -1.282e-04  t[s]:   2432.10
ElecMinimize: 	Step increased F by 1.754758e-01, reducing alpha to 7.352412e-03.
ElecMinimize: 	Step increased F by 4.376124e-01, reducing alpha to 7.352412e-04.
ElecMinimize: 	Step increased F by 4.646295e-01, reducing alpha to 7.352412e-05.
ElecMinimize: 	Step failed to reduce F after 3 attempts. Quitting step.
ElecMinimize: 	Undoing step.
ElecMinimize: 	Step failed: resetting search direction.
	FillingsUpdate:  mu: +0.092240694  nElectrons: 340.000000  magneticMoment: [ Abs: 34.38099  Tot: -0.00000 ]
	SubspaceRotationAdjust: set factor to 0.156
ElecMinimize: Iter:  22  F: -1892.717888409867101  |grad|_K:  1.017e-04  alpha:  7.352e-05
	FillingsUpdate:  mu: +0.073813925  nElectrons: 340.000000  magneticMoment: [ Abs: 33.87804  Tot: +0.00000 ]
	SubspaceRotationAdjust: set factor to 0.145
ElecMinimize: Iter:  23  F: -1893.036141629727808  |grad|_K:  6.021e-05  alpha:  2.123e-01  linmin:  6.420e-03  t[s]:   2710.64
	FillingsUpdate:  mu: +0.095554032  nElectrons: 340.000000  magneticMoment: [ Abs: 34.39547  Tot: +0.00000 ]
	SubspaceRotationAdjust: set factor to 0.142
ElecMinimize: Iter:  24  F: -1893.256413770543077  |grad|_K:  5.188e-05  alpha:  3.818e-01  linmin: -7.199e-04  t[s]:   2787.53
	FillingsUpdate:  mu: +0.078539173  nElectrons: 340.000000  magneticMoment: [ Abs: 34.36637  Tot: -0.00000 ]
	SubspaceRotationAdjust: set factor to 0.15
ElecMinimize: Iter:  25  F: -1893.525156960177810  |grad|_K:  4.952e-05  alpha:  5.368e-01  linmin: -7.922e-04  t[s]:   2863.53
	FillingsUpdate:  mu: +0.094293341  nElectrons: 340.000000  magneticMoment: [ Abs: 34.92584  Tot: +0.00000 ]
	SubspaceRotationAdjust: set factor to 0.158
ElecMinimize: Iter:  26  F: -1893.748621110401473  |grad|_K:  5.605e-05  alpha:  4.757e-01  linmin: -1.126e-04  t[s]:   2942.31
	FillingsUpdate:  mu: +0.156474249  nElectrons: 340.000000  magneticMoment: [ Abs: 35.96301  Tot: -0.00000 ]
	SubspaceRotationAdjust: set factor to 0.152
ElecMinimize: Iter:  27  F: -1894.099927558255331  |grad|_K:  1.188e-04  alpha:  8.232e-01  linmin:  2.460e-03  t[s]:   3017.11
ElecMinimize: 	Bad step direction: g.d > 0.
ElecMinimize: 	Undoing step.
ElecMinimize: 	Step failed: resetting search direction.
	FillingsUpdate:  mu: +0.156474249  nElectrons: 340.000000  magneticMoment: [ Abs: 35.96301  Tot: -0.00000 ]
	SubspaceRotationAdjust: set factor to 0.214
ElecMinimize: Iter:  28  F: -1894.099927558255104  |grad|_K:  1.177e-04  alpha:  0.000e+00
	FillingsUpdate:  mu: +0.166159242  nElectrons: 340.000000  magneticMoment: [ Abs: 36.41531  Tot: +0.00000 ]
	SubspaceRotationAdjust: set factor to 0.14
ElecMinimize: Iter:  29  F: -1894.470976328389725  |grad|_K:  8.270e-05  alpha:  1.633e-01  linmin:  1.247e-02  t[s]:   3139.83
	FillingsUpdate:  mu: +0.115360224  nElectrons: 340.000000  magneticMoment: [ Abs: 36.31004  Tot: -0.00000 ]
	SubspaceRotationAdjust: set factor to 0.133
ElecMinimize: Iter:  30  F: -1894.548342354506303  |grad|_K:  4.129e-05  alpha:  6.311e-02  linmin: -8.245e-03  t[s]:   3218.40
ElecMinimize: 	Predicted alpha/alphaT>3.000000, increasing alphaT to 1.893177e-01.
	FillingsUpdate:  mu: +0.146270181  nElectrons: 340.000000  magneticMoment: [ Abs: 36.39323  Tot: -0.00000 ]
	SubspaceRotationAdjust: set factor to 0.0823
ElecMinimize: Iter:  31  F: -1894.615299266257807  |grad|_K:  5.813e-05  alpha:  2.055e-01  linmin:  1.857e-03  t[s]:   3328.06
	FillingsUpdate:  mu: +0.127054103  nElectrons: 340.000000  magneticMoment: [ Abs: 36.81288  Tot: -0.00000 ]
	SubspaceRotationAdjust: set factor to 0.12
ElecMinimize: Iter:  32  F: -1894.682044519928013  |grad|_K:  4.568e-05  alpha:  1.186e-01  linmin: -1.968e-04  t[s]:   3407.23
	FillingsUpdate:  mu: +0.151415811  nElectrons: 340.000000  magneticMoment: [ Abs: 37.19697  Tot: -0.00000 ]
	SubspaceRotationAdjust: set factor to 0.0971
ElecMinimize: Iter:  33  F: -1894.742495876693965  |grad|_K:  4.980e-05  alpha:  1.645e-01  linmin: -5.480e-04  t[s]:   3483.91
	FillingsUpdate:  mu: +0.113796902  nElectrons: 340.000000  magneticMoment: [ Abs: 37.25159  Tot: -0.00000 ]
	SubspaceRotationAdjust: set factor to 0.168
ElecMinimize: Iter:  34  F: -1894.804792741814481  |grad|_K:  3.302e-05  alpha:  1.415e-01  linmin: -8.839e-05  t[s]:   3562.32
	FillingsUpdate:  mu: +0.101192704  nElectrons: 340.000000  magneticMoment: [ Abs: 37.18211  Tot: +0.00000 ]
	SubspaceRotationAdjust: set factor to 0.13
ElecMinimize: Iter:  35  F: -1894.831180787926087  |grad|_K:  3.574e-05  alpha:  1.383e-01  linmin:  9.624e-04  t[s]:   3640.97
	FillingsUpdate:  mu: +0.097270973  nElectrons: 340.000000  magneticMoment: [ Abs: 37.48822  Tot: -0.00000 ]
	SubspaceRotationAdjust: set factor to 0.168
ElecMinimize: Iter:  36  F: -1894.861807882814219  |grad|_K:  2.163e-05  alpha:  1.426e-01  linmin: -6.009e-04  t[s]:   3717.74
	FillingsUpdate:  mu: +0.106286935  nElectrons: 340.000000  magneticMoment: [ Abs: 37.77199  Tot: +0.00000 ]
	SubspaceRotationAdjust: set factor to 0.131
ElecMinimize: Iter:  37  F: -1894.876733591648190  |grad|_K:  2.342e-05  alpha:  1.740e-01  linmin: -3.387e-03  t[s]:   3795.53
	FillingsUpdate:  mu: +0.106325601  nElectrons: 340.000000  magneticMoment: [ Abs: 37.99872  Tot: +0.00000 ]
	SubspaceRotationAdjust: set factor to 0.099
ElecMinimize: Iter:  38  F: -1894.898054917651280  |grad|_K:  2.202e-05  alpha:  2.011e-01  linmin:  1.356e-03  t[s]:   3869.22
	FillingsUpdate:  mu: +0.110836708  nElectrons: 340.000000  magneticMoment: [ Abs: 38.62863  Tot: +0.00000 ]
	SubspaceRotationAdjust: set factor to 0.117
ElecMinimize: Iter:  39  F: -1894.927570392215557  |grad|_K:  2.313e-05  alpha:  3.880e-01  linmin:  3.663e-04  t[s]:   3947.37
	FillingsUpdate:  mu: +0.109791377  nElectrons: 340.000000  magneticMoment: [ Abs: 39.14915  Tot: -0.00000 ]
	SubspaceRotationAdjust: set factor to 0.12
ElecMinimize: Iter:  40  F: -1894.953598141853945  |grad|_K:  2.332e-05  alpha:  2.948e-01  linmin: -1.359e-04  t[s]:   4024.26
	FillingsUpdate:  mu: +0.114092741  nElectrons: 340.000000  magneticMoment: [ Abs: 39.45636  Tot: +0.00000 ]
	SubspaceRotationAdjust: set factor to 0.105
ElecMinimize: Iter:  41  F: -1894.974327374992299  |grad|_K:  1.940e-05  alpha:  2.049e-01  linmin:  7.739e-05  t[s]:   4100.10
	FillingsUpdate:  mu: +0.105279448  nElectrons: 340.000000  magneticMoment: [ Abs: 39.66108  Tot: -0.00000 ]
	SubspaceRotationAdjust: set factor to 0.138
ElecMinimize: Iter:  42  F: -1894.988128734081329  |grad|_K:  1.439e-05  alpha:  2.119e-01  linmin: -7.035e-05  t[s]:   4177.95
	FillingsUpdate:  mu: +0.103205883  nElectrons: 340.000000  magneticMoment: [ Abs: 39.77605  Tot: +0.00000 ]
	SubspaceRotationAdjust: set factor to 0.127
ElecMinimize: Iter:  43  F: -1894.996014650729194  |grad|_K:  1.376e-05  alpha:  2.176e-01  linmin: -1.903e-04  t[s]:   4255.92
	FillingsUpdate:  mu: +0.099169682  nElectrons: 340.000000  magneticMoment: [ Abs: 39.91138  Tot: +0.00000 ]
	SubspaceRotationAdjust: set factor to 0.135
ElecMinimize: Iter:  44  F: -1895.002777864227482  |grad|_K:  1.072e-05  alpha:  2.031e-01  linmin: -1.779e-04  t[s]:   4332.53
	FillingsUpdate:  mu: +0.100056838  nElectrons: 340.000000  magneticMoment: [ Abs: 40.00976  Tot: +0.00000 ]
	SubspaceRotationAdjust: set factor to 0.16
ElecMinimize: Iter:  45  F: -1895.008164403973524  |grad|_K:  9.339e-06  alpha:  2.658e-01  linmin: -5.451e-05  t[s]:   4409.30
	FillingsUpdate:  mu: +0.099414390  nElectrons: 340.000000  magneticMoment: [ Abs: 40.06011  Tot: -0.00000 ]
	SubspaceRotationAdjust: set factor to 0.163
ElecMinimize: Iter:  46  F: -1895.011241417802012  |grad|_K:  7.649e-06  alpha:  2.043e-01  linmin: -1.576e-04  t[s]:   4485.71
	FillingsUpdate:  mu: +0.097331659  nElectrons: 340.000000  magneticMoment: [ Abs: 40.11700  Tot: -0.00000 ]
	SubspaceRotationAdjust: set factor to 0.208
ElecMinimize: Iter:  47  F: -1895.013851171623855  |grad|_K:  6.777e-06  alpha:  2.542e-01  linmin:  7.780e-06  t[s]:   4561.96
	FillingsUpdate:  mu: +0.098181741  nElectrons: 340.000000  magneticMoment: [ Abs: 40.19955  Tot: -0.00000 ]
	SubspaceRotationAdjust: set factor to 0.255
ElecMinimize: Iter:  48  F: -1895.016350238001223  |grad|_K:  7.378e-06  alpha:  3.126e-01  linmin: -5.908e-06  t[s]:   4638.92
	FillingsUpdate:  mu: +0.100245091  nElectrons: 340.000000  magneticMoment: [ Abs: 40.28751  Tot: -0.00000 ]
	SubspaceRotationAdjust: set factor to 0.252
ElecMinimize: Iter:  49  F: -1895.018611664800346  |grad|_K:  8.871e-06  alpha:  2.400e-01  linmin: -5.172e-05  t[s]:   4714.36
	FillingsUpdate:  mu: +0.099244980  nElectrons: 340.000000  magneticMoment: [ Abs: 40.38050  Tot: -0.00000 ]
	SubspaceRotationAdjust: set factor to 0.238
ElecMinimize: Iter:  50  F: -1895.021303329136799  |grad|_K:  8.118e-06  alpha:  1.953e-01  linmin:  3.356e-06  t[s]:   4791.67
	FillingsUpdate:  mu: +0.098674303  nElectrons: 340.000000  magneticMoment: [ Abs: 40.46766  Tot: +0.00000 ]
	SubspaceRotationAdjust: set factor to 0.255
ElecMinimize: Iter:  51  F: -1895.024123543347514  |grad|_K:  7.345e-06  alpha:  2.457e-01  linmin: -1.768e-05  t[s]:   4871.86
	FillingsUpdate:  mu: +0.098166541  nElectrons: 340.000000  magneticMoment: [ Abs: 40.55312  Tot: +0.00000 ]
	SubspaceRotationAdjust: set factor to 0.284
ElecMinimize: Iter:  52  F: -1895.026782303642449  |grad|_K:  6.621e-06  alpha:  2.819e-01  linmin: -5.789e-05  t[s]:   4949.92
	FillingsUpdate:  mu: +0.098229712  nElectrons: 340.000000  magneticMoment: [ Abs: 40.62754  Tot: -0.00000 ]
	SubspaceRotationAdjust: set factor to 0.316
ElecMinimize: Iter:  53  F: -1895.029054485016559  |grad|_K:  6.221e-06  alpha:  2.954e-01  linmin: -4.485e-05  t[s]:   5026.35
	FillingsUpdate:  mu: +0.098551738  nElectrons: 340.000000  magneticMoment: [ Abs: 40.68150  Tot: +0.00000 ]
	SubspaceRotationAdjust: set factor to 0.344
ElecMinimize: Iter:  54  F: -1895.030867014993419  |grad|_K:  5.317e-06  alpha:  2.678e-01  linmin: -3.739e-05  t[s]:   5102.36
	FillingsUpdate:  mu: +0.098988452  nElectrons: 340.000000  magneticMoment: [ Abs: 40.71971  Tot: +0.00000 ]
	SubspaceRotationAdjust: set factor to 0.327
ElecMinimize: Iter:  55  F: -1895.032036857264984  |grad|_K:  5.619e-06  alpha:  2.377e-01  linmin: -1.190e-04  t[s]:   5180.26
	FillingsUpdate:  mu: +0.099389667  nElectrons: 340.000000  magneticMoment: [ Abs: 40.74214  Tot: -0.00000 ]
	SubspaceRotationAdjust: set factor to 0.247
ElecMinimize: Iter:  56  F: -1895.032702468208527  |grad|_K:  4.903e-06  alpha:  1.186e-01  linmin: -6.659e-05  t[s]:   5256.92
	FillingsUpdate:  mu: +0.097880897  nElectrons: 340.000000  magneticMoment: [ Abs: 40.75892  Tot: +0.00000 ]
	SubspaceRotationAdjust: set factor to 0.294
ElecMinimize: Iter:  57  F: -1895.033493008723781  |grad|_K:  3.615e-06  alpha:  1.871e-01  linmin: -1.226e-04  t[s]:   5330.32
	FillingsUpdate:  mu: +0.097558263  nElectrons: 340.000000  magneticMoment: [ Abs: 40.76509  Tot: -0.00000 ]
	SubspaceRotationAdjust: set factor to 0.342
ElecMinimize: Iter:  58  F: -1895.034133031155534  |grad|_K:  3.571e-06  alpha:  2.781e-01  linmin: -4.960e-05  t[s]:   5406.43
	FillingsUpdate:  mu: +0.098236182  nElectrons: 340.000000  magneticMoment: [ Abs: 40.77130  Tot: -0.00000 ]
	SubspaceRotationAdjust: set factor to 0.31
ElecMinimize: Iter:  59  F: -1895.034503150583078  |grad|_K:  3.788e-06  alpha:  1.678e-01  linmin:  3.234e-05  t[s]:   5483.29
	FillingsUpdate:  mu: +0.097378569  nElectrons: 340.000000  magneticMoment: [ Abs: 40.77033  Tot: +0.00000 ]
	SubspaceRotationAdjust: set factor to 0.312
ElecMinimize: Iter:  60  F: -1895.034912573925794  |grad|_K:  3.061e-06  alpha:  1.644e-01  linmin:  6.802e-06  t[s]:   5560.47
	FillingsUpdate:  mu: +0.097835421  nElectrons: 340.000000  magneticMoment: [ Abs: 40.77214  Tot: -0.00000 ]
	SubspaceRotationAdjust: set factor to 0.386
ElecMinimize: Iter:  61  F: -1895.035395808620706  |grad|_K:  3.072e-06  alpha:  2.975e-01  linmin:  7.366e-05  t[s]:   5634.41
	FillingsUpdate:  mu: +0.098701927  nElectrons: 340.000000  magneticMoment: [ Abs: 40.78016  Tot: -0.00000 ]
	SubspaceRotationAdjust: set factor to 0.444
ElecMinimize: Iter:  62  F: -1895.035853355034305  |grad|_K:  3.315e-06  alpha:  2.798e-01  linmin:  2.291e-04  t[s]:   5709.98
	FillingsUpdate:  mu: +0.098773448  nElectrons: 340.000000  magneticMoment: [ Abs: 40.78408  Tot: +0.00000 ]
	SubspaceRotationAdjust: set factor to 0.505
ElecMinimize: Iter:  63  F: -1895.036079718192696  |grad|_K:  3.413e-06  alpha:  8.292e-02  linmin: -2.783e-03  t[s]:   5787.84
	FillingsUpdate:  mu: +0.099414402  nElectrons: 340.000000  magneticMoment: [ Abs: 40.81138  Tot: -0.00000 ]
	SubspaceRotationAdjust: set factor to 0.337
ElecMinimize: Iter:  64  F: -1895.036475564026887  |grad|_K:  5.036e-06  alpha:  1.517e-01  linmin:  2.307e-03  t[s]:   5864.55
	FillingsUpdate:  mu: +0.099549433  nElectrons: 340.000000  magneticMoment: [ Abs: 40.81935  Tot: -0.00000 ]
	SubspaceRotationAdjust: set factor to 0.262
ElecMinimize: Iter:  65  F: -1895.036524759956137  |grad|_K:  4.430e-06  alpha:  1.128e-02  linmin: -2.142e-03  t[s]:   5942.93
ElecMinimize: 	Predicted alpha/alphaT>3.000000, increasing alphaT to 3.384535e-02.
	FillingsUpdate:  mu: +0.099944492  nElectrons: 340.000000  magneticMoment: [ Abs: 40.85415  Tot: +0.00000 ]
	SubspaceRotationAdjust: set factor to 0.315
ElecMinimize: Iter:  66  F: -1895.036798512883024  |grad|_K:  3.729e-06  alpha:  5.642e-02  linmin: -9.008e-04  t[s]:   6052.73
	FillingsUpdate:  mu: +0.099516418  nElectrons: 340.000000  magneticMoment: [ Abs: 40.90073  Tot: -0.00000 ]
	SubspaceRotationAdjust: set factor to 0.326
ElecMinimize: Iter:  67  F: -1895.037086151399762  |grad|_K:  3.830e-06  alpha:  9.859e-02  linmin: -4.027e-04  t[s]:   6129.30
	FillingsUpdate:  mu: +0.098572144  nElectrons: 340.000000  magneticMoment: [ Abs: 40.93522  Tot: -0.00000 ]
	SubspaceRotationAdjust: set factor to 0.291
ElecMinimize: Iter:  68  F: -1895.037280224150663  |grad|_K:  4.025e-06  alpha:  6.558e-02  linmin: -6.206e-05  t[s]:   6209.45
	FillingsUpdate:  mu: +0.097946173  nElectrons: 340.000000  magneticMoment: [ Abs: 40.96839  Tot: +0.00000 ]
	SubspaceRotationAdjust: set factor to 0.24
ElecMinimize: Iter:  69  F: -1895.037437543775013  |grad|_K:  4.316e-06  alpha:  5.499e-02  linmin:  3.067e-05  t[s]:   6286.00
	FillingsUpdate:  mu: +0.097542765  nElectrons: 340.000000  magneticMoment: [ Abs: 41.01041  Tot: +0.00000 ]
	SubspaceRotationAdjust: set factor to 0.264
ElecMinimize: Iter:  70  F: -1895.037619517338044  |grad|_K:  3.895e-06  alpha:  5.630e-02  linmin: -2.477e-04  t[s]:   6362.40
	FillingsUpdate:  mu: +0.098424132  nElectrons: 340.000000  magneticMoment: [ Abs: 41.06261  Tot: -0.00000 ]
	SubspaceRotationAdjust: set factor to 0.312
ElecMinimize: Iter:  71  F: -1895.037812022652361  |grad|_K:  3.493e-06  alpha:  6.934e-02  linmin: -9.036e-06  t[s]:   6437.20
	FillingsUpdate:  mu: +0.099665449  nElectrons: 340.000000  magneticMoment: [ Abs: 41.12983  Tot: -0.00000 ]
	SubspaceRotationAdjust: set factor to 0.289
ElecMinimize: Iter:  72  F: -1895.037971899453169  |grad|_K:  4.112e-06  alpha:  7.592e-02  linmin:  3.698e-04  t[s]:   6514.10
	FillingsUpdate:  mu: +0.100723131  nElectrons: 340.000000  magneticMoment: [ Abs: 41.19682  Tot: +0.00000 ]
	SubspaceRotationAdjust: set factor to 0.288
ElecMinimize: Iter:  73  F: -1895.038096730587995  |grad|_K:  3.969e-06  alpha:  4.363e-02  linmin: -8.594e-05  t[s]:   6591.27
	FillingsUpdate:  mu: +0.101385451  nElectrons: 340.000000  magneticMoment: [ Abs: 41.25880  Tot: +0.00000 ]
	SubspaceRotationAdjust: set factor to 0.341
ElecMinimize: Iter:  74  F: -1895.038211960541275  |grad|_K:  3.777e-06  alpha:  4.131e-02  linmin:  1.631e-05  t[s]:   6668.64
	FillingsUpdate:  mu: +0.102272831  nElectrons: 340.000000  magneticMoment: [ Abs: 41.31956  Tot: -0.00000 ]
	SubspaceRotationAdjust: set factor to 0.283
ElecMinimize: Iter:  75  F: -1895.038339407588410  |grad|_K:  4.583e-06  alpha:  5.113e-02  linmin: -1.061e-04  t[s]:   6744.17
	FillingsUpdate:  mu: +0.101918443  nElectrons: 340.000000  magneticMoment: [ Abs: 41.39407  Tot: +0.00000 ]
	SubspaceRotationAdjust: set factor to 0.293
ElecMinimize: Iter:  76  F: -1895.038539883511021  |grad|_K:  4.267e-06  alpha:  5.355e-02  linmin: -8.480e-06  t[s]:   6820.55
	FillingsUpdate:  mu: +0.101082205  nElectrons: 340.000000  magneticMoment: [ Abs: 41.43398  Tot: -0.00000 ]
	SubspaceRotationAdjust: set factor to 0.376
ElecMinimize: Iter:  77  F: -1895.038673797873571  |grad|_K:  3.723e-06  alpha:  4.170e-02  linmin:  3.171e-05  t[s]:   6898.66
	FillingsUpdate:  mu: +0.101140351  nElectrons: 340.000000  magneticMoment: [ Abs: 41.46435  Tot: -0.00000 ]
	SubspaceRotationAdjust: set factor to 0.367
ElecMinimize: Iter:  78  F: -1895.038787982779695  |grad|_K:  4.409e-06  alpha:  4.793e-02  linmin:  6.053e-05  t[s]:   6974.03
	FillingsUpdate:  mu: +0.101339130  nElectrons: 340.000000  magneticMoment: [ Abs: 41.50641  Tot: +0.00000 ]
	SubspaceRotationAdjust: set factor to 0.312
ElecMinimize: Iter:  79  F: -1895.038929656639539  |grad|_K:  4.765e-06  alpha:  4.262e-02  linmin:  2.396e-06  t[s]:   7049.57
	FillingsUpdate:  mu: +0.101622526  nElectrons: 340.000000  magneticMoment: [ Abs: 41.55839  Tot: +0.00000 ]
	SubspaceRotationAdjust: set factor to 0.389
ElecMinimize: Iter:  80  F: -1895.039072560993645  |grad|_K:  4.106e-06  alpha:  3.650e-02  linmin: -6.004e-05  t[s]:   7126.05
	FillingsUpdate:  mu: +0.102065324  nElectrons: 340.000000  magneticMoment: [ Abs: 41.61862  Tot: +0.00000 ]
	SubspaceRotationAdjust: set factor to 0.484
ElecMinimize: Iter:  81  F: -1895.039206795500604  |grad|_K:  3.842e-06  alpha:  4.443e-02  linmin: -1.250e-04  t[s]:   7202.10
	FillingsUpdate:  mu: +0.103655860  nElectrons: 340.000000  magneticMoment: [ Abs: 41.69452  Tot: +0.00000 ]
	SubspaceRotationAdjust: set factor to 0.591
ElecMinimize: Iter:  82  F: -1895.039346937185201  |grad|_K:  3.891e-06  alpha:  5.234e-02  linmin: -3.745e-05  t[s]:   7277.72
	FillingsUpdate:  mu: +0.104974610  nElectrons: 340.000000  magneticMoment: [ Abs: 41.76046  Tot: -0.00000 ]
	SubspaceRotationAdjust: set factor to 0.687
ElecMinimize: Iter:  83  F: -1895.039470486056416  |grad|_K:  3.861e-06  alpha:  4.640e-02  linmin: -1.299e-05  t[s]:   7354.32
	FillingsUpdate:  mu: +0.105135957  nElectrons: 340.000000  magneticMoment: [ Abs: 41.80954  Tot: +0.00000 ]
	SubspaceRotationAdjust: set factor to 0.619
ElecMinimize: Iter:  84  F: -1895.039599689975830  |grad|_K:  4.322e-06  alpha:  4.953e-02  linmin: -2.053e-05  t[s]:   7431.86
	FillingsUpdate:  mu: +0.104234026  nElectrons: 340.000000  magneticMoment: [ Abs: 41.84425  Tot: +0.00000 ]
	SubspaceRotationAdjust: set factor to 0.881
	SubspaceRotationAdjust: resetting CG because factor has changed by 7.56218
ElecMinimize: 	State modified externally: resetting search direction.
ElecMinimize: Iter:  85  F: -1895.039734368932159  |grad|_K:  3.987e-06  alpha:  4.128e-02
	FillingsUpdate:  mu: +0.103351903  nElectrons: 340.000000  magneticMoment: [ Abs: 41.85155  Tot: -0.00000 ]
	SubspaceRotationAdjust: set factor to 0.523
ElecMinimize: Iter:  86  F: -1895.039966167283183  |grad|_K:  5.854e-06  alpha:  8.426e-02  linmin:  2.379e-04  t[s]:   7599.65
	FillingsUpdate:  mu: +0.102008601  nElectrons: 340.000000  magneticMoment: [ Abs: 41.85776  Tot: +0.00000 ]
	SubspaceRotationAdjust: set factor to 0.536
ElecMinimize: Iter:  87  F: -1895.040502661021264  |grad|_K:  3.263e-06  alpha:  9.104e-02  linmin: -1.120e-05  t[s]:   7680.13
	FillingsUpdate:  mu: +0.103889762  nElectrons: 340.000000  magneticMoment: [ Abs: 41.93249  Tot: +0.00000 ]
	SubspaceRotationAdjust: set factor to 0.392
ElecMinimize: Iter:  88  F: -1895.040885251484951  |grad|_K:  3.039e-06  alpha:  2.034e-01  linmin: -4.719e-04  t[s]:   7756.88
	FillingsUpdate:  mu: +0.102437745  nElectrons: 340.000000  magneticMoment: [ Abs: 41.91444  Tot: +0.00000 ]
	SubspaceRotationAdjust: set factor to 0.314
ElecMinimize: Iter:  89  F: -1895.041128584744001  |grad|_K:  2.512e-06  alpha:  1.460e-01  linmin:  3.653e-05  t[s]:   7833.73
	FillingsUpdate:  mu: +0.102465064  nElectrons: 340.000000  magneticMoment: [ Abs: 41.90132  Tot: +0.00000 ]
	SubspaceRotationAdjust: set factor to 0.244
ElecMinimize: Iter:  90  F: -1895.041269517864976  |grad|_K:  2.221e-06  alpha:  1.286e-01  linmin:  1.851e-06  t[s]:   7911.89
	FillingsUpdate:  mu: +0.103149533  nElectrons: 340.000000  magneticMoment: [ Abs: 41.93399  Tot: -0.00000 ]
	SubspaceRotationAdjust: set factor to 0.3
ElecMinimize: Iter:  91  F: -1895.041430727422267  |grad|_K:  1.357e-06  alpha:  1.871e-01  linmin: -1.487e-04  t[s]:   7990.03
	FillingsUpdate:  mu: +0.103145318  nElectrons: 340.000000  magneticMoment: [ Abs: 41.95755  Tot: +0.00000 ]
	SubspaceRotationAdjust: set factor to 0.192
ElecMinimize: Iter:  92  F: -1895.041525229421495  |grad|_K:  1.561e-06  alpha:  2.924e-01  linmin:  4.478e-05  t[s]:   8066.09
	FillingsUpdate:  mu: +0.102941198  nElectrons: 340.000000  magneticMoment: [ Abs: 41.95701  Tot: +0.00000 ]
	SubspaceRotationAdjust: set factor to 0.159
ElecMinimize: Iter:  93  F: -1895.041573835389272  |grad|_K:  9.510e-07  alpha:  1.144e-01  linmin: -4.758e-05  t[s]:   8142.29
ElecMinimize: 	Predicted alpha/alphaT>3.000000, increasing alphaT to 3.433055e-01.
	FillingsUpdate:  mu: +0.102812722  nElectrons: 340.000000  magneticMoment: [ Abs: 41.96079  Tot: -0.00000 ]
	SubspaceRotationAdjust: set factor to 0.171
ElecMinimize: Iter:  94  F: -1895.041630146069792  |grad|_K:  9.592e-07  alpha:  3.568e-01  linmin:  2.113e-05  t[s]:   8248.86
	FillingsUpdate:  mu: +0.102832636  nElectrons: 340.000000  magneticMoment: [ Abs: 41.97437  Tot: -0.00000 ]
	SubspaceRotationAdjust: set factor to 0.143
ElecMinimize: Iter:  95  F: -1895.041663422556212  |grad|_K:  7.663e-07  alpha:  2.076e-01  linmin: -8.276e-06  t[s]:   8324.59
	FillingsUpdate:  mu: +0.103175412  nElectrons: 340.000000  magneticMoment: [ Abs: 41.98699  Tot: +0.00000 ]
	SubspaceRotationAdjust: set factor to 0.172
ElecMinimize: Iter:  96  F: -1895.041693299805274  |grad|_K:  6.881e-07  alpha:  2.917e-01  linmin: -8.452e-05  t[s]:   8401.09
	FillingsUpdate:  mu: +0.103152806  nElectrons: 340.000000  magneticMoment: [ Abs: 41.99217  Tot: +0.00000 ]
	SubspaceRotationAdjust: set factor to 0.175
ElecMinimize: Iter:  97  F: -1895.041719748107198  |grad|_K:  7.401e-07  alpha:  3.194e-01  linmin: -8.997e-06  t[s]:   8478.97
	FillingsUpdate:  mu: +0.102880097  nElectrons: 340.000000  magneticMoment: [ Abs: 41.99994  Tot: +0.00000 ]
	SubspaceRotationAdjust: set factor to 0.159
ElecMinimize: Iter:  98  F: -1895.041745854741293  |grad|_K:  6.924e-07  alpha:  2.734e-01  linmin:  2.472e-05  t[s]:   8555.36
	FillingsUpdate:  mu: +0.102873653  nElectrons: 340.000000  magneticMoment: [ Abs: 42.00854  Tot: -0.00000 ]
	SubspaceRotationAdjust: set factor to 0.195
ElecMinimize: Iter:  99  F: -1895.041773864538527  |grad|_K:  6.908e-07  alpha:  3.361e-01  linmin: -8.098e-06  t[s]:   8631.71
	FillingsUpdate:  mu: +0.103090225  nElectrons: 340.000000  magneticMoment: [ Abs: 42.01660  Tot: -0.00000 ]
	SubspaceRotationAdjust: set factor to 0.177
ElecMinimize: Iter: 100  F: -1895.041801598283200  |grad|_K:  7.853e-07  alpha:  3.336e-01  linmin: -6.628e-05  t[s]:   8710.70
	FillingsUpdate:  mu: +0.103091818  nElectrons: 340.000000  magneticMoment: [ Abs: 42.02927  Tot: +0.00000 ]
	SubspaceRotationAdjust: set factor to 0.159
ElecMinimize: Iter: 101  F: -1895.041831755405383  |grad|_K:  7.139e-07  alpha:  2.794e-01  linmin: -6.497e-06  t[s]:   8784.29
	FillingsUpdate:  mu: +0.102880011  nElectrons: 340.000000  magneticMoment: [ Abs: 42.03348  Tot: -0.00000 ]
	SubspaceRotationAdjust: set factor to 0.184
ElecMinimize: Iter: 102  F: -1895.041862480250074  |grad|_K:  6.583e-07  alpha:  3.468e-01  linmin:  8.299e-05  t[s]:   8861.16
	FillingsUpdate:  mu: +0.102914159  nElectrons: 340.000000  magneticMoment: [ Abs: 42.03492  Tot: -0.00000 ]
	SubspaceRotationAdjust: set factor to 0.173
ElecMinimize: Iter: 103  F: -1895.041886878832429  |grad|_K:  6.639e-07  alpha:  3.261e-01  linmin: -1.498e-05  t[s]:   8937.67
	FillingsUpdate:  mu: +0.103003811  nElectrons: 340.000000  magneticMoment: [ Abs: 42.04138  Tot: +0.00000 ]
	SubspaceRotationAdjust: set factor to 0.155
ElecMinimize: Iter: 104  F: -1895.041907038019872  |grad|_K:  5.371e-07  alpha:  2.629e-01  linmin: -2.909e-05  t[s]:   9013.98
	FillingsUpdate:  mu: +0.103002541  nElectrons: 340.000000  magneticMoment: [ Abs: 42.04217  Tot: +0.00000 ]
	SubspaceRotationAdjust: set factor to 0.181
ElecMinimize: Iter: 105  F: -1895.041923660571229  |grad|_K:  4.805e-07  alpha:  3.301e-01  linmin: -4.531e-06  t[s]:   9090.99
	FillingsUpdate:  mu: +0.102957131  nElectrons: 340.000000  magneticMoment: [ Abs: 42.04109  Tot: +0.00000 ]
	SubspaceRotationAdjust: set factor to 0.188
ElecMinimize: Iter: 106  F: -1895.041936665165622  |grad|_K:  4.421e-07  alpha:  3.234e-01  linmin:  2.901e-06  t[s]:   9168.11
	FillingsUpdate:  mu: +0.102944898  nElectrons: 340.000000  magneticMoment: [ Abs: 42.04367  Tot: +0.00000 ]
	SubspaceRotationAdjust: set factor to 0.173
ElecMinimize: Iter: 107  F: -1895.041947473175924  |grad|_K:  4.418e-07  alpha:  3.177e-01  linmin: -3.135e-05  t[s]:   9243.91
	FillingsUpdate:  mu: +0.102933008  nElectrons: 340.000000  magneticMoment: [ Abs: 42.04247  Tot: -0.00000 ]
	SubspaceRotationAdjust: set factor to 0.181
ElecMinimize: Iter: 108  F: -1895.041957897094562  |grad|_K:  3.888e-07  alpha:  3.060e-01  linmin: -5.097e-08  t[s]:   9321.62
	FillingsUpdate:  mu: +0.102841088  nElectrons: 340.000000  magneticMoment: [ Abs: 42.04100  Tot: -0.00000 ]
	SubspaceRotationAdjust: set factor to 0.208
ElecMinimize: Iter: 109  F: -1895.041968589906219  |grad|_K:  3.849e-07  alpha:  4.065e-01  linmin:  1.625e-05  t[s]:   9398.43
	FillingsUpdate:  mu: +0.102837733  nElectrons: 340.000000  magneticMoment: [ Abs: 42.04309  Tot: -0.00000 ]
	SubspaceRotationAdjust: set factor to 0.199
ElecMinimize: Iter: 110  F: -1895.041977547400620  |grad|_K:  4.158e-07  alpha:  3.482e-01  linmin: -3.025e-05  t[s]:   9476.81
	FillingsUpdate:  mu: +0.102900931  nElectrons: 340.000000  magneticMoment: [ Abs: 42.04209  Tot: +0.00000 ]
	SubspaceRotationAdjust: set factor to 0.169
ElecMinimize: Iter: 111  F: -1895.041985933362639  |grad|_K:  3.886e-07  alpha:  2.778e-01  linmin:  3.454e-06  t[s]:   9554.60
	FillingsUpdate:  mu: +0.102882479  nElectrons: 340.000000  magneticMoment: [ Abs: 42.04168  Tot: -0.00000 ]
	SubspaceRotationAdjust: set factor to 0.181
ElecMinimize: Iter: 112  F: -1895.041995526571782  |grad|_K:  3.602e-07  alpha:  3.650e-01  linmin: -7.690e-07  t[s]:   9630.62
	FillingsUpdate:  mu: +0.102817274  nElectrons: 340.000000  magneticMoment: [ Abs: 42.04144  Tot: -0.00000 ]
	SubspaceRotationAdjust: set factor to 0.199
ElecMinimize: Iter: 113  F: -1895.042003520870139  |grad|_K:  3.414e-07  alpha:  3.538e-01  linmin: -1.381e-06  t[s]:   9706.48
	FillingsUpdate:  mu: +0.102833173  nElectrons: 340.000000  magneticMoment: [ Abs: 42.04156  Tot: -0.00000 ]
	SubspaceRotationAdjust: set factor to 0.188
ElecMinimize: Iter: 114  F: -1895.042010409274098  |grad|_K:  3.412e-07  alpha:  3.393e-01  linmin:  7.812e-06  t[s]:   9786.04
	FillingsUpdate:  mu: +0.102855857  nElectrons: 340.000000  magneticMoment: [ Abs: 42.04351  Tot: +0.00000 ]
	SubspaceRotationAdjust: set factor to 0.171
ElecMinimize: Iter: 115  F: -1895.042016630456601  |grad|_K:  3.196e-07  alpha:  3.075e-01  linmin: -3.658e-05  t[s]:   9864.05
	FillingsUpdate:  mu: +0.102857331  nElectrons: 340.000000  magneticMoment: [ Abs: 42.04226  Tot: -0.00000 ]
	SubspaceRotationAdjust: set factor to 0.185
ElecMinimize: Iter: 116  F: -1895.042022562624425  |grad|_K:  2.794e-07  alpha:  3.323e-01  linmin:  3.141e-05  t[s]:   9942.99
	FillingsUpdate:  mu: +0.102838534  nElectrons: 340.000000  magneticMoment: [ Abs: 42.04198  Tot: -0.00000 ]
	SubspaceRotationAdjust: set factor to 0.209
ElecMinimize: Iter: 117  F: -1895.042027743173776  |grad|_K:  2.716e-07  alpha:  3.826e-01  linmin:  1.380e-05  t[s]:  10018.03
	FillingsUpdate:  mu: +0.102822036  nElectrons: 340.000000  magneticMoment: [ Abs: 42.04372  Tot: +0.00000 ]
	SubspaceRotationAdjust: set factor to 0.203
ElecMinimize: Iter: 118  F: -1895.042031881814864  |grad|_K:  2.706e-07  alpha:  3.232e-01  linmin: -2.567e-05  t[s]:  10093.62
	FillingsUpdate:  mu: +0.102824748  nElectrons: 340.000000  magneticMoment: [ Abs: 42.04306  Tot: -0.00000 ]
	SubspaceRotationAdjust: set factor to 0.192
ElecMinimize: Iter: 119  F: -1895.042036194426373  |grad|_K:  2.898e-07  alpha:  3.376e-01  linmin:  2.847e-05  t[s]:  10169.24
	FillingsUpdate:  mu: +0.102827432  nElectrons: 340.000000  magneticMoment: [ Abs: 42.04384  Tot: -0.00000 ]
	SubspaceRotationAdjust: set factor to 0.203
ElecMinimize: Iter: 120  F: -1895.042041815898074  |grad|_K:  3.055e-07  alpha:  3.855e-01  linmin: -1.904e-05  t[s]:  10247.05
	FillingsUpdate:  mu: +0.102853758  nElectrons: 340.000000  magneticMoment: [ Abs: 42.04590  Tot: -0.00000 ]
	SubspaceRotationAdjust: set factor to 0.225
ElecMinimize: Iter: 121  F: -1895.042049476997590  |grad|_K:  3.463e-07  alpha:  4.702e-01  linmin: -1.231e-05  t[s]:  10324.30
	FillingsUpdate:  mu: +0.102817496  nElectrons: 340.000000  magneticMoment: [ Abs: 42.04712  Tot: -0.00000 ]
	SubspaceRotationAdjust: set factor to 0.225
ElecMinimize: Iter: 122  F: -1895.042058304652528  |grad|_K:  4.219e-07  alpha:  4.217e-01  linmin:  2.628e-05  t[s]:  10401.63
	FillingsUpdate:  mu: +0.102731810  nElectrons: 340.000000  magneticMoment: [ Abs: 42.05070  Tot: -0.00000 ]
	SubspaceRotationAdjust: set factor to 0.196
ElecMinimize: Iter: 123  F: -1895.042068124228990  |grad|_K:  4.689e-07  alpha:  3.198e-01  linmin: -1.853e-05  t[s]:  10478.95
	FillingsUpdate:  mu: +0.102733732  nElectrons: 340.000000  magneticMoment: [ Abs: 42.05226  Tot: -0.00000 ]
	SubspaceRotationAdjust: set factor to 0.187
ElecMinimize: Iter: 124  F: -1895.042082553296950  |grad|_K:  5.106e-07  alpha:  3.768e-01  linmin:  6.230e-05  t[s]:  10558.93
	FillingsUpdate:  mu: +0.102734212  nElectrons: 340.000000  magneticMoment: [ Abs: 42.05722  Tot: +0.00000 ]
	SubspaceRotationAdjust: set factor to 0.208
ElecMinimize: Iter: 125  F: -1895.042101428500473  |grad|_K:  5.676e-07  alpha:  4.204e-01  linmin: -2.774e-05  t[s]:  10637.31
	FillingsUpdate:  mu: +0.102558048  nElectrons: 340.000000  magneticMoment: [ Abs: 42.06171  Tot: -0.00000 ]
	SubspaceRotationAdjust: set factor to 0.216
ElecMinimize: Iter: 126  F: -1895.042126021050308  |grad|_K:  6.473e-07  alpha:  4.358e-01  linmin: -3.823e-06  t[s]:  10716.28
	FillingsUpdate:  mu: +0.102467215  nElectrons: 340.000000  magneticMoment: [ Abs: 42.06036  Tot: -0.00000 ]
	SubspaceRotationAdjust: set factor to 0.208
ElecMinimize: Iter: 127  F: -1895.042151954598239  |grad|_K:  7.691e-07  alpha:  3.494e-01  linmin:  7.076e-05  t[s]:  10794.37
	FillingsUpdate:  mu: +0.102340411  nElectrons: 340.000000  magneticMoment: [ Abs: 42.06328  Tot: -0.00000 ]
	SubspaceRotationAdjust: set factor to 0.246
ElecMinimize: Iter: 128  F: -1895.042185602348127  |grad|_K:  8.160e-07  alpha:  3.314e-01  linmin:  3.351e-05  t[s]:  10871.96
	FillingsUpdate:  mu: +0.102259131  nElectrons: 340.000000  magneticMoment: [ Abs: 42.06440  Tot: +0.00000 ]
	SubspaceRotationAdjust: set factor to 0.304
ElecMinimize: Iter: 129  F: -1895.042226394105683  |grad|_K:  9.500e-07  alpha:  3.561e-01  linmin:  1.089e-04  t[s]:  10947.59
	FillingsUpdate:  mu: +0.102350581  nElectrons: 340.000000  magneticMoment: [ Abs: 42.06010  Tot: +0.00000 ]
	SubspaceRotationAdjust: set factor to 0.285
ElecMinimize: Iter: 130  F: -1895.042263638594704  |grad|_K:  1.090e-06  alpha:  2.341e-01  linmin: -3.521e-05  t[s]:  11022.55
	FillingsUpdate:  mu: +0.102345322  nElectrons: 340.000000  magneticMoment: [ Abs: 42.05862  Tot: +0.00000 ]
	SubspaceRotationAdjust: set factor to 0.34
ElecMinimize: Iter: 131  F: -1895.042308965917982  |grad|_K:  1.085e-06  alpha:  2.166e-01  linmin:  4.447e-05  t[s]:  11098.14
	FillingsUpdate:  mu: +0.102385006  nElectrons: 340.000000  magneticMoment: [ Abs: 42.05687  Tot: +0.00000 ]
	SubspaceRotationAdjust: set factor to 0.31
ElecMinimize: Iter: 132  F: -1895.042352238924877  |grad|_K:  1.225e-06  alpha:  2.141e-01  linmin:  2.423e-05  t[s]:  11175.74
	FillingsUpdate:  mu: +0.102699330  nElectrons: 340.000000  magneticMoment: [ Abs: 42.05009  Tot: +0.00000 ]
	SubspaceRotationAdjust: set factor to 0.354
ElecMinimize: Iter: 133  F: -1895.042392787672270  |grad|_K:  1.085e-06  alpha:  1.564e-01  linmin: -1.268e-05  t[s]:  11251.55
	FillingsUpdate:  mu: +0.102995127  nElectrons: 340.000000  magneticMoment: [ Abs: 42.04567  Tot: +0.00000 ]
	SubspaceRotationAdjust: set factor to 0.347
ElecMinimize: Iter: 134  F: -1895.042433848805331  |grad|_K:  1.077e-06  alpha:  1.990e-01  linmin: -4.330e-05  t[s]:  11329.02
	FillingsUpdate:  mu: +0.103059306  nElectrons: 340.000000  magneticMoment: [ Abs: 42.04492  Tot: -0.00000 ]
	SubspaceRotationAdjust: set factor to 0.331
ElecMinimize: Iter: 135  F: -1895.042468199660789  |grad|_K:  1.104e-06  alpha:  1.680e-01  linmin:  4.808e-06  t[s]:  11406.29
	FillingsUpdate:  mu: +0.103095868  nElectrons: 340.000000  magneticMoment: [ Abs: 42.03720  Tot: -0.00000 ]
	SubspaceRotationAdjust: set factor to 0.386
ElecMinimize: Iter: 136  F: -1895.042506233757877  |grad|_K:  1.016e-06  alpha:  1.797e-01  linmin:  2.457e-05  t[s]:  11484.83
	FillingsUpdate:  mu: +0.103127109  nElectrons: 340.000000  magneticMoment: [ Abs: 42.02984  Tot: -0.00000 ]
	SubspaceRotationAdjust: set factor to 0.331
ElecMinimize: Iter: 137  F: -1895.042540418251065  |grad|_K:  1.117e-06  alpha:  1.916e-01  linmin:  2.851e-05  t[s]:  11558.86
	FillingsUpdate:  mu: +0.103098431  nElectrons: 340.000000  magneticMoment: [ Abs: 42.02988  Tot: +0.00000 ]
	SubspaceRotationAdjust: set factor to 0.357
ElecMinimize: Iter: 138  F: -1895.042570705474191  |grad|_K:  9.899e-07  alpha:  1.400e-01  linmin:  5.308e-06  t[s]:  11639.21
	FillingsUpdate:  mu: +0.103254084  nElectrons: 340.000000  magneticMoment: [ Abs: 42.02878  Tot: -0.00000 ]
	SubspaceRotationAdjust: set factor to 0.335
ElecMinimize: Iter: 139  F: -1895.042602154422866  |grad|_K:  9.895e-07  alpha:  1.846e-01  linmin:  6.965e-06  t[s]:  11716.55
	FillingsUpdate:  mu: +0.103381998  nElectrons: 340.000000  magneticMoment: [ Abs: 42.02362  Tot: -0.00000 ]
	SubspaceRotationAdjust: set factor to 0.317
ElecMinimize: Iter: 140  F: -1895.042627132513871  |grad|_K:  9.638e-07  alpha:  1.464e-01  linmin:  1.125e-05  t[s]:  11791.44
	FillingsUpdate:  mu: +0.103343449  nElectrons: 340.000000  magneticMoment: [ Abs: 42.02120  Tot: +0.00000 ]
	SubspaceRotationAdjust: set factor to 0.322
ElecMinimize: Iter: 141  F: -1895.042654385282276  |grad|_K:  8.912e-07  alpha:  1.693e-01  linmin:  3.488e-05  t[s]:  11867.34
	FillingsUpdate:  mu: +0.103254680  nElectrons: 340.000000  magneticMoment: [ Abs: 42.02285  Tot: -0.00000 ]
	SubspaceRotationAdjust: set factor to 0.291
ElecMinimize: Iter: 142  F: -1895.042675296816469  |grad|_K:  8.862e-07  alpha:  1.526e-01  linmin:  3.808e-06  t[s]:  11942.59
	FillingsUpdate:  mu: +0.103272013  nElectrons: 340.000000  magneticMoment: [ Abs: 42.02306  Tot: -0.00000 ]
	SubspaceRotationAdjust: set factor to 0.308
ElecMinimize: Iter: 143  F: -1895.042697050482730  |grad|_K:  7.904e-07  alpha:  1.593e-01  linmin:  2.334e-05  t[s]:  12021.16
	FillingsUpdate:  mu: +0.103373167  nElectrons: 340.000000  magneticMoment: [ Abs: 42.02436  Tot: -0.00000 ]
	SubspaceRotationAdjust: set factor to 0.267
ElecMinimize: Iter: 144  F: -1895.042715043708768  |grad|_K:  8.218e-07  alpha:  1.665e-01  linmin:  2.266e-05  t[s]:  12094.52
	FillingsUpdate:  mu: +0.103443642  nElectrons: 340.000000  magneticMoment: [ Abs: 42.03085  Tot: +0.00000 ]
	SubspaceRotationAdjust: set factor to 0.305
ElecMinimize: Iter: 145  F: -1895.042733254725590  |grad|_K:  7.361e-07  alpha:  1.558e-01  linmin: -2.896e-06  t[s]:  12173.08
	FillingsUpdate:  mu: +0.103473221  nElectrons: 340.000000  magneticMoment: [ Abs: 42.03826  Tot: +0.00000 ]
	SubspaceRotationAdjust: set factor to 0.267
ElecMinimize: Iter: 146  F: -1895.042749648053814  |grad|_K:  7.571e-07  alpha:  1.736e-01  linmin:  1.541e-07  t[s]:  12251.02
	FillingsUpdate:  mu: +0.103465145  nElectrons: 340.000000  magneticMoment: [ Abs: 42.04325  Tot: +0.00000 ]
	SubspaceRotationAdjust: set factor to 0.285
ElecMinimize: Iter: 147  F: -1895.042764883319251  |grad|_K:  6.910e-07  alpha:  1.524e-01  linmin:  2.096e-05  t[s]:  12328.24
	FillingsUpdate:  mu: +0.103482522  nElectrons: 340.000000  magneticMoment: [ Abs: 42.05092  Tot: +0.00000 ]
	SubspaceRotationAdjust: set factor to 0.252
ElecMinimize: Iter: 148  F: -1895.042779868356774  |grad|_K:  7.308e-07  alpha:  1.815e-01  linmin:  2.277e-05  t[s]:  12406.94
	FillingsUpdate:  mu: +0.103536885  nElectrons: 340.000000  magneticMoment: [ Abs: 42.06317  Tot: -0.00000 ]
	SubspaceRotationAdjust: set factor to 0.272
ElecMinimize: Iter: 149  F: -1895.042793421234819  |grad|_K:  6.438e-07  alpha:  1.468e-01  linmin: -4.598e-06  t[s]:  12484.02
	FillingsUpdate:  mu: +0.103633564  nElectrons: 340.000000  magneticMoment: [ Abs: 42.07649  Tot: +0.00000 ]
	SubspaceRotationAdjust: set factor to 0.247
ElecMinimize: Iter: 150  F: -1895.042806784476625  |grad|_K:  6.800e-07  alpha:  1.847e-01  linmin: -1.173e-05  t[s]:  12559.23
	FillingsUpdate:  mu: +0.103687169  nElectrons: 340.000000  magneticMoment: [ Abs: 42.08686  Tot: +0.00000 ]
	SubspaceRotationAdjust: set factor to 0.27
ElecMinimize: Iter: 151  F: -1895.042819624337426  |grad|_K:  6.271e-07  alpha:  1.588e-01  linmin:  1.316e-05  t[s]:  12638.50
	FillingsUpdate:  mu: +0.103753833  nElectrons: 340.000000  magneticMoment: [ Abs: 42.09904  Tot: +0.00000 ]
	SubspaceRotationAdjust: set factor to 0.239
ElecMinimize: Iter: 152  F: -1895.042832177434548  |grad|_K:  6.679e-07  alpha:  1.842e-01  linmin:  1.994e-05  t[s]:  12716.41
	FillingsUpdate:  mu: +0.103846638  nElectrons: 340.000000  magneticMoment: [ Abs: 42.11520  Tot: +0.00000 ]
	SubspaceRotationAdjust: set factor to 0.274
ElecMinimize: Iter: 153  F: -1895.042844069371540  |grad|_K:  6.127e-07  alpha:  1.542e-01  linmin: -6.538e-06  t[s]:  12792.95
	FillingsUpdate:  mu: +0.103920362  nElectrons: 340.000000  magneticMoment: [ Abs: 42.13176  Tot: -0.00000 ]
	SubspaceRotationAdjust: set factor to 0.245
ElecMinimize: Iter: 154  F: -1895.042856215359052  |grad|_K:  6.414e-07  alpha:  1.853e-01  linmin: -1.717e-05  t[s]:  12869.55
	FillingsUpdate:  mu: +0.103913280  nElectrons: 340.000000  magneticMoment: [ Abs: 42.14376  Tot: -0.00000 ]
	SubspaceRotationAdjust: set factor to 0.271
ElecMinimize: Iter: 155  F: -1895.042867467602491  |grad|_K:  5.998e-07  alpha:  1.561e-01  linmin:  1.207e-05  t[s]:  12945.66
	FillingsUpdate:  mu: +0.103926720  nElectrons: 340.000000  magneticMoment: [ Abs: 42.15733  Tot: +0.00000 ]
	SubspaceRotationAdjust: set factor to 0.24
ElecMinimize: Iter: 156  F: -1895.042879286562993  |grad|_K:  6.484e-07  alpha:  1.896e-01  linmin:  2.003e-05  t[s]:  13022.57
	FillingsUpdate:  mu: +0.104003223  nElectrons: 340.000000  magneticMoment: [ Abs: 42.17294  Tot: -0.00000 ]
	SubspaceRotationAdjust: set factor to 0.273
ElecMinimize: Iter: 157  F: -1895.042890031639672  |grad|_K:  5.822e-07  alpha:  1.481e-01  linmin: -8.194e-06  t[s]:  13101.10
	FillingsUpdate:  mu: +0.104086908  nElectrons: 340.000000  magneticMoment: [ Abs: 42.18763  Tot: +0.00000 ]
	SubspaceRotationAdjust: set factor to 0.24
ElecMinimize: Iter: 158  F: -1895.042901234321334  |grad|_K:  6.211e-07  alpha:  1.890e-01  linmin: -2.827e-05  t[s]:  13176.42
	FillingsUpdate:  mu: +0.104102160  nElectrons: 340.000000  magneticMoment: [ Abs: 42.19680  Tot: -0.00000 ]
	SubspaceRotationAdjust: set factor to 0.269
ElecMinimize: Iter: 159  F: -1895.042911702335005  |grad|_K:  5.728e-07  alpha:  1.544e-01  linmin:  1.429e-05  t[s]:  13253.15
	FillingsUpdate:  mu: +0.104139386  nElectrons: 340.000000  magneticMoment: [ Abs: 42.20670  Tot: +0.00000 ]
	SubspaceRotationAdjust: set factor to 0.237
ElecMinimize: Iter: 160  F: -1895.042922499993210  |grad|_K:  6.271e-07  alpha:  1.899e-01  linmin:  1.914e-05  t[s]:  13330.11
	FillingsUpdate:  mu: +0.104211819  nElectrons: 340.000000  magneticMoment: [ Abs: 42.21881  Tot: +0.00000 ]
	SubspaceRotationAdjust: set factor to 0.283
ElecMinimize: Iter: 161  F: -1895.042932690362022  |grad|_K:  5.708e-07  alpha:  1.502e-01  linmin: -1.434e-05  t[s]:  13407.35
	FillingsUpdate:  mu: +0.104260269  nElectrons: 340.000000  magneticMoment: [ Abs: 42.22925  Tot: -0.00000 ]
	SubspaceRotationAdjust: set factor to 0.249
ElecMinimize: Iter: 162  F: -1895.042943707981067  |grad|_K:  6.206e-07  alpha:  1.930e-01  linmin: -3.678e-05  t[s]:  13484.39
	FillingsUpdate:  mu: +0.104239471  nElectrons: 340.000000  magneticMoment: [ Abs: 42.23310  Tot: -0.00000 ]
	SubspaceRotationAdjust: set factor to 0.279
ElecMinimize: Iter: 163  F: -1895.042953885967563  |grad|_K:  5.734e-07  alpha:  1.497e-01  linmin:  1.580e-05  t[s]:  13560.93
	FillingsUpdate:  mu: +0.104258008  nElectrons: 340.000000  magneticMoment: [ Abs: 42.23700  Tot: -0.00000 ]
	SubspaceRotationAdjust: set factor to 0.244
ElecMinimize: Iter: 164  F: -1895.042964692271198  |grad|_K:  6.426e-07  alpha:  1.899e-01  linmin:  3.007e-05  t[s]:  13638.43
	FillingsUpdate:  mu: +0.104309256  nElectrons: 340.000000  magneticMoment: [ Abs: 42.24325  Tot: +0.00000 ]
	SubspaceRotationAdjust: set factor to 0.293
ElecMinimize: Iter: 165  F: -1895.042974696471447  |grad|_K:  5.710e-07  alpha:  1.411e-01  linmin: -9.029e-06  t[s]:  13715.93
	FillingsUpdate:  mu: +0.104347927  nElectrons: 340.000000  magneticMoment: [ Abs: 42.24710  Tot: -0.00000 ]
	SubspaceRotationAdjust: set factor to 0.25
ElecMinimize: Iter: 166  F: -1895.042985231410739  |grad|_K:  6.220e-07  alpha:  1.846e-01  linmin: -3.482e-05  t[s]:  13792.60
	FillingsUpdate:  mu: +0.104333542  nElectrons: 340.000000  magneticMoment: [ Abs: 42.24457  Tot: +0.00000 ]
	SubspaceRotationAdjust: set factor to 0.283
ElecMinimize: Iter: 167  F: -1895.042994894637104  |grad|_K:  5.628e-07  alpha:  1.415e-01  linmin:  1.331e-05  t[s]:  13868.53
	FillingsUpdate:  mu: +0.104328731  nElectrons: 340.000000  magneticMoment: [ Abs: 42.24130  Tot: -0.00000 ]
	SubspaceRotationAdjust: set factor to 0.238
ElecMinimize: Iter: 168  F: -1895.043004991208818  |grad|_K:  6.286e-07  alpha:  1.842e-01  linmin:  3.162e-05  t[s]:  13940.95
	FillingsUpdate:  mu: +0.104326433  nElectrons: 340.000000  magneticMoment: [ Abs: 42.24109  Tot: +0.00000 ]
	SubspaceRotationAdjust: set factor to 0.291
ElecMinimize: Iter: 169  F: -1895.043014004946599  |grad|_K:  5.439e-07  alpha:  1.326e-01  linmin: -3.544e-06  t[s]:  14021.68
	FillingsUpdate:  mu: +0.104328503  nElectrons: 340.000000  magneticMoment: [ Abs: 42.23924  Tot: -0.00000 ]
	SubspaceRotationAdjust: set factor to 0.241
ElecMinimize: Iter: 170  F: -1895.043023224444369  |grad|_K:  6.033e-07  alpha:  1.785e-01  linmin: -2.065e-05  t[s]:  14099.43
	FillingsUpdate:  mu: +0.104327634  nElectrons: 340.000000  magneticMoment: [ Abs: 42.23245  Tot: +0.00000 ]
	SubspaceRotationAdjust: set factor to 0.285
ElecMinimize: Iter: 171  F: -1895.043031750887167  |grad|_K:  5.185e-07  alpha:  1.334e-01  linmin:  6.490e-06  t[s]:  14176.88
	FillingsUpdate:  mu: +0.104325968  nElectrons: 340.000000  magneticMoment: [ Abs: 42.22516  Tot: +0.00000 ]
	SubspaceRotationAdjust: set factor to 0.232
ElecMinimize: Iter: 172  F: -1895.043040022802188  |grad|_K:  5.858e-07  alpha:  1.773e-01  linmin:  2.259e-05  t[s]:  14250.98
	FillingsUpdate:  mu: +0.104288210  nElectrons: 340.000000  magneticMoment: [ Abs: 42.22137  Tot: -0.00000 ]
	SubspaceRotationAdjust: set factor to 0.274
ElecMinimize: Iter: 173  F: -1895.043047719943843  |grad|_K:  4.876e-07  alpha:  1.296e-01  linmin: -1.123e-07  t[s]:  14332.77
	FillingsUpdate:  mu: +0.104250951  nElectrons: 340.000000  magneticMoment: [ Abs: 42.21774  Tot: -0.00000 ]
	SubspaceRotationAdjust: set factor to 0.224
ElecMinimize: Iter: 174  F: -1895.043054649679789  |grad|_K:  5.366e-07  alpha:  1.674e-01  linmin:  3.703e-06  t[s]:  14410.63
	FillingsUpdate:  mu: +0.104250841  nElectrons: 340.000000  magneticMoment: [ Abs: 42.21027  Tot: -0.00000 ]
	SubspaceRotationAdjust: set factor to 0.267
ElecMinimize: Iter: 175  F: -1895.043061694541393  |grad|_K:  4.648e-07  alpha:  1.405e-01  linmin:  5.024e-06  t[s]:  14487.20
	FillingsUpdate:  mu: +0.104277103  nElectrons: 340.000000  magneticMoment: [ Abs: 42.20307  Tot: -0.00000 ]
	SubspaceRotationAdjust: set factor to 0.224
ElecMinimize: Iter: 176  F: -1895.043067887994539  |grad|_K:  4.999e-07  alpha:  1.649e-01  linmin:  8.170e-06  t[s]:  14565.51
	FillingsUpdate:  mu: +0.104272401  nElectrons: 340.000000  magneticMoment: [ Abs: 42.19882  Tot: -0.00000 ]
	SubspaceRotationAdjust: set factor to 0.254
ElecMinimize: Iter: 177  F: -1895.043074161787445  |grad|_K:  4.360e-07  alpha:  1.445e-01  linmin: -7.819e-08  t[s]:  14643.64
	FillingsUpdate:  mu: +0.104244644  nElectrons: 340.000000  magneticMoment: [ Abs: 42.19591  Tot: -0.00000 ]
	SubspaceRotationAdjust: set factor to 0.223
ElecMinimize: Iter: 178  F: -1895.043079704740876  |grad|_K:  4.666e-07  alpha:  1.675e-01  linmin:  1.388e-06  t[s]:  14719.54
	FillingsUpdate:  mu: +0.104228638  nElectrons: 340.000000  magneticMoment: [ Abs: 42.18990  Tot: -0.00000 ]
	SubspaceRotationAdjust: set factor to 0.245
ElecMinimize: Iter: 179  F: -1895.043085656663607  |grad|_K:  4.195e-07  alpha:  1.570e-01  linmin:  5.795e-06  t[s]:  14796.89
	FillingsUpdate:  mu: +0.104219295  nElectrons: 340.000000  magneticMoment: [ Abs: 42.18383  Tot: -0.00000 ]
	SubspaceRotationAdjust: set factor to 0.224
ElecMinimize: Iter: 180  F: -1895.043090733495774  |grad|_K:  4.430e-07  alpha:  1.660e-01  linmin:  1.059e-05  t[s]:  14874.70
	FillingsUpdate:  mu: +0.104173469  nElectrons: 340.000000  magneticMoment: [ Abs: 42.18004  Tot: +0.00000 ]
	SubspaceRotationAdjust: set factor to 0.238
ElecMinimize: Iter: 181  F: -1895.043096356267370  |grad|_K:  4.130e-07  alpha:  1.650e-01  linmin:  2.961e-06  t[s]:  14953.02
	FillingsUpdate:  mu: +0.104126276  nElectrons: 340.000000  magneticMoment: [ Abs: 42.17873  Tot: +0.00000 ]
	SubspaceRotationAdjust: set factor to 0.228
ElecMinimize: Iter: 182  F: -1895.043101129932666  |grad|_K:  4.214e-07  alpha:  1.609e-01  linmin: -4.333e-06  t[s]:  15029.43
	FillingsUpdate:  mu: +0.104116546  nElectrons: 340.000000  magneticMoment: [ Abs: 42.17572  Tot: -0.00000 ]
	SubspaceRotationAdjust: set factor to 0.237
ElecMinimize: Iter: 183  F: -1895.043106602031457  |grad|_K:  4.090e-07  alpha:  1.768e-01  linmin:  2.149e-06  t[s]:  15108.27
	FillingsUpdate:  mu: +0.104121505  nElectrons: 340.000000  magneticMoment: [ Abs: 42.17199  Tot: -0.00000 ]
	SubspaceRotationAdjust: set factor to 0.231
ElecMinimize: Iter: 184  F: -1895.043111250779248  |grad|_K:  4.128e-07  alpha:  1.596e-01  linmin:  8.539e-06  t[s]:  15185.42
	FillingsUpdate:  mu: +0.104081228  nElectrons: 340.000000  magneticMoment: [ Abs: 42.16988  Tot: -0.00000 ]
	SubspaceRotationAdjust: set factor to 0.23
ElecMinimize: Iter: 185  F: -1895.043116513969835  |grad|_K:  4.144e-07  alpha:  1.779e-01  linmin:  4.894e-06  t[s]:  15262.63
	FillingsUpdate:  mu: +0.104012358  nElectrons: 340.000000  magneticMoment: [ Abs: 42.17003  Tot: -0.00000 ]
	SubspaceRotationAdjust: set factor to 0.239
ElecMinimize: Iter: 186  F: -1895.043121152330741  |grad|_K:  4.038e-07  alpha:  1.555e-01  linmin: -8.225e-06  t[s]:  15338.38
	FillingsUpdate:  mu: +0.103965412  nElectrons: 340.000000  magneticMoment: [ Abs: 42.16930  Tot: +0.00000 ]
	SubspaceRotationAdjust: set factor to 0.226
ElecMinimize: Iter: 187  F: -1895.043126342211963  |grad|_K:  4.117e-07  alpha:  1.823e-01  linmin: -9.129e-07  t[s]:  15418.36
	FillingsUpdate:  mu: +0.103965478  nElectrons: 340.000000  magneticMoment: [ Abs: 42.16749  Tot: +0.00000 ]
	SubspaceRotationAdjust: set factor to 0.236
ElecMinimize: Iter: 188  F: -1895.043130893903935  |grad|_K:  4.013e-07  alpha:  1.540e-01  linmin:  9.342e-06  t[s]:  15498.35
	FillingsUpdate:  mu: +0.103957587  nElectrons: 340.000000  magneticMoment: [ Abs: 42.16727  Tot: -0.00000 ]
	SubspaceRotationAdjust: set factor to 0.215
ElecMinimize: Iter: 189  F: -1895.043135977461134  |grad|_K:  4.218e-07  alpha:  1.818e-01  linmin:  5.151e-06  t[s]:  15577.25
	FillingsUpdate:  mu: +0.103923872  nElectrons: 340.000000  magneticMoment: [ Abs: 42.16924  Tot: +0.00000 ]
	SubspaceRotationAdjust: set factor to 0.246
ElecMinimize: Iter: 190  F: -1895.043140591344809  |grad|_K:  3.918e-07  alpha:  1.496e-01  linmin: -1.446e-05  t[s]:  15654.25
	FillingsUpdate:  mu: +0.103888389  nElectrons: 340.000000  magneticMoment: [ Abs: 42.17079  Tot: -0.00000 ]
	SubspaceRotationAdjust: set factor to 0.216
ElecMinimize: Iter: 191  F: -1895.043145642209538  |grad|_K:  4.203e-07  alpha:  1.880e-01  linmin: -2.181e-05  t[s]:  15730.64
[...]
Setting wave functions to eigenvectors of Hamiltonian
IonicMinimize: 	Wolfe criterion not satisfied: alpha: 0.889651  (E-E0)/|gdotd0|: 0.523722  gdotd/gdotd0: -1.86431 (taking cubic step)

-------- Electronic minimization -----------
	FillingsUpdate:  mu: +0.113753387  nElectrons: 340.000000  magneticMoment: [ Abs: 40.88563  Tot: +0.00000 ]
ElecMinimize: Iter:   0  F: -1894.776151214057791  |grad|_K:  9.923e-05  alpha:  1.000e+00
	FillingsUpdate:  mu: +0.121577257  nElectrons: 340.000000  magneticMoment: [ Abs: 40.98688  Tot: -0.00000 ]
	SubspaceRotationAdjust: set factor to 0.268
ElecMinimize: Iter:   1  F: -1895.097106082122764  |grad|_K:  2.005e-05  alpha:  1.929e-01  linmin:  7.857e-03  t[s]: 130464.15
	FillingsUpdate:  mu: +0.106836517  nElectrons: 340.000000  magneticMoment: [ Abs: 40.85999  Tot: -0.00000 ]
	SubspaceRotationAdjust: set factor to 0.153
ElecMinimize: Iter:   2  F: -1895.109106554600885  |grad|_K:  8.995e-06  alpha:  1.749e-01  linmin:  2.938e-04  t[s]: 130540.24
	FillingsUpdate:  mu: +0.112917424  nElectrons: 340.000000  magneticMoment: [ Abs: 40.91442  Tot: -0.00000 ]
	SubspaceRotationAdjust: set factor to 0.163
ElecMinimize: Iter:   3  F: -1895.113187682418356  |grad|_K:  4.836e-06  alpha:  2.909e-01  linmin: -1.048e-04  t[s]: 130615.82
	FillingsUpdate:  mu: +0.115162988  nElectrons: 340.000000  magneticMoment: [ Abs: 40.90719  Tot: +0.00000 ]
	SubspaceRotationAdjust: set factor to 0.164
ElecMinimize: Iter:   4  F: -1895.114434934434485  |grad|_K:  2.983e-06  alpha:  3.054e-01  linmin: -1.371e-04  t[s]: 130693.11
	FillingsUpdate:  mu: +0.114398575  nElectrons: 340.000000  magneticMoment: [ Abs: 40.89949  Tot: +0.00000 ]
	SubspaceRotationAdjust: set factor to 0.186
ElecMinimize: Iter:   5  F: -1895.114959729932934  |grad|_K:  2.101e-06  alpha:  3.369e-01  linmin: -5.519e-08  t[s]: 130771.77
	FillingsUpdate:  mu: +0.113685712  nElectrons: 340.000000  magneticMoment: [ Abs: 40.90298  Tot: -0.00000 ]
	SubspaceRotationAdjust: set factor to 0.207
ElecMinimize: Iter:   6  F: -1895.115212404748945  |grad|_K:  1.594e-06  alpha:  3.289e-01  linmin:  1.794e-06  t[s]: 130850.24
	FillingsUpdate:  mu: +0.114374333  nElectrons: 340.000000  magneticMoment: [ Abs: 40.89951  Tot: +0.00000 ]
	SubspaceRotationAdjust: set factor to 0.248
ElecMinimize: Iter:   7  F: -1895.115376827042837  |grad|_K:  1.283e-06  alpha:  3.717e-01  linmin:  5.594e-07  t[s]: 130923.89
	FillingsUpdate:  mu: +0.114502536  nElectrons: 340.000000  magneticMoment: [ Abs: 40.89709  Tot: +0.00000 ]
	SubspaceRotationAdjust: set factor to 0.305
ElecMinimize: Iter:   8  F: -1895.115490351935705  |grad|_K:  1.124e-06  alpha:  3.964e-01  linmin:  4.723e-07  t[s]: 131003.81
	FillingsUpdate:  mu: +0.113936522  nElectrons: 340.000000  magneticMoment: [ Abs: 40.89866  Tot: +0.00000 ]
	SubspaceRotationAdjust: set factor to 0.338
ElecMinimize: Iter:   9  F: -1895.115576429233670  |grad|_K:  1.017e-06  alpha:  3.913e-01  linmin: -1.782e-06  t[s]: 131079.15
	FillingsUpdate:  mu: +0.114162842  nElectrons: 340.000000  magneticMoment: [ Abs: 40.89150  Tot: -0.00000 ]
	SubspaceRotationAdjust: set factor to 0.324
ElecMinimize: Iter:  10  F: -1895.115638960154229  |grad|_K:  8.976e-07  alpha:  3.472e-01  linmin:  1.919e-06  t[s]: 131156.22
	FillingsUpdate:  mu: +0.114461032  nElectrons: 340.000000  magneticMoment: [ Abs: 40.89951  Tot: +0.00000 ]
	SubspaceRotationAdjust: set factor to 0.264
ElecMinimize: Iter:  11  F: -1895.115676298667722  |grad|_K:  7.082e-07  alpha:  2.666e-01  linmin: -1.967e-06  t[s]: 131237.14
	FillingsUpdate:  mu: +0.114058525  nElectrons: 340.000000  magneticMoment: [ Abs: 40.89304  Tot: -0.00000 ]
	SubspaceRotationAdjust: set factor to 0.216
ElecMinimize: Iter:  12  F: -1895.115699012160349  |grad|_K:  4.775e-07  alpha:  2.599e-01  linmin:  1.048e-06  t[s]: 131314.78
	FillingsUpdate:  mu: +0.114258498  nElectrons: 340.000000  magneticMoment: [ Abs: 40.89517  Tot: -0.00000 ]
	SubspaceRotationAdjust: set factor to 0.226
ElecMinimize: Iter:  13  F: -1895.115712163022863  |grad|_K:  3.576e-07  alpha:  3.314e-01  linmin: -6.691e-08  t[s]: 131392.31
	FillingsUpdate:  mu: +0.114294127  nElectrons: 340.000000  magneticMoment: [ Abs: 40.89664  Tot: +0.00000 ]
	SubspaceRotationAdjust: set factor to 0.237
ElecMinimize: Iter:  14  F: -1895.115719128337787  |grad|_K:  2.620e-07  alpha:  3.128e-01  linmin:  1.954e-07  t[s]: 131469.32
	FillingsUpdate:  mu: +0.114170354  nElectrons: 340.000000  magneticMoment: [ Abs: 40.89533  Tot: +0.00000 ]
	SubspaceRotationAdjust: set factor to 0.242
ElecMinimize: Iter:  15  F: -1895.115722912915089  |grad|_K:  1.994e-07  alpha:  3.167e-01  linmin:  1.197e-06  t[s]: 131544.51
	FillingsUpdate:  mu: +0.114247513  nElectrons: 340.000000  magneticMoment: [ Abs: 40.89670  Tot: +0.00000 ]
	SubspaceRotationAdjust: set factor to 0.275
ElecMinimize: Iter:  16  F: -1895.115725251103868  |grad|_K:  1.571e-07  alpha:  3.378e-01  linmin: -4.485e-07  t[s]: 131622.45
	FillingsUpdate:  mu: +0.114257459  nElectrons: 340.000000  magneticMoment: [ Abs: 40.89670  Tot: -0.00000 ]
	SubspaceRotationAdjust: set factor to 0.336
ElecMinimize: Iter:  17  F: -1895.115726892816156  |grad|_K:  1.453e-07  alpha:  3.821e-01  linmin: -7.847e-07  t[s]: 131699.05
	FillingsUpdate:  mu: +0.114209448  nElectrons: 340.000000  magneticMoment: [ Abs: 40.89666  Tot: -0.00000 ]
	SubspaceRotationAdjust: set factor to 0.408
ElecMinimize: Iter:  18  F: -1895.115728290976449  |grad|_K:  1.387e-07  alpha:  3.804e-01  linmin: -9.270e-07  t[s]: 131775.54
	FillingsUpdate:  mu: +0.114294685  nElectrons: 340.000000  magneticMoment: [ Abs: 40.89814  Tot: -0.00000 ]
	SubspaceRotationAdjust: set factor to 0.438
ElecMinimize: Iter:  19  F: -1895.115729625238146  |grad|_K:  1.511e-07  alpha:  3.985e-01  linmin:  3.208e-07  t[s]: 131854.48
	FillingsUpdate:  mu: +0.114245314  nElectrons: 340.000000  magneticMoment: [ Abs: 40.89682  Tot: -0.00000 ]
	SubspaceRotationAdjust: set factor to 0.379
ElecMinimize: Iter:  20  F: -1895.115730649074749  |grad|_K:  1.532e-07  alpha:  2.573e-01  linmin: -9.874e-08  t[s]: 131934.08
	FillingsUpdate:  mu: +0.114253621  nElectrons: 340.000000  magneticMoment: [ Abs: 40.89849  Tot: -0.00000 ]
	SubspaceRotationAdjust: set factor to 0.325
ElecMinimize: Iter:  21  F: -1895.115731636189139  |grad|_K:  1.282e-07  alpha:  2.414e-01  linmin: -1.727e-06  t[s]: 132010.81
	FillingsUpdate:  mu: +0.114278268  nElectrons: 340.000000  magneticMoment: [ Abs: 40.89855  Tot: -0.00000 ]
	SubspaceRotationAdjust: set factor to 0.343
ElecMinimize: Iter:  22  F: -1895.115732646804872  |grad|_K:  1.130e-07  alpha:  3.530e-01  linmin:  2.078e-06  t[s]: 132087.71
	FillingsUpdate:  mu: +0.114284841  nElectrons: 340.000000  magneticMoment: [ Abs: 40.89894  Tot: -0.00000 ]
	SubspaceRotationAdjust: set factor to 0.389
ElecMinimize: Iter:  23  F: -1895.115733472299553  |grad|_K:  1.035e-07  alpha:  3.715e-01  linmin:  3.772e-07  t[s]: 132164.95
	FillingsUpdate:  mu: +0.114272578  nElectrons: 340.000000  magneticMoment: [ Abs: 40.89969  Tot: +0.00000 ]
	SubspaceRotationAdjust: set factor to 0.434
ElecMinimize: Iter:  24  F: -1895.115734176828482  |grad|_K:  1.026e-07  alpha:  3.775e-01  linmin: -4.018e-06  t[s]: 132244.07
	FillingsUpdate:  mu: +0.114270314  nElectrons: 340.000000  magneticMoment: [ Abs: 40.89913  Tot: +0.00000 ]
	SubspaceRotationAdjust: set factor to 0.422
ElecMinimize: Iter:  25  F: -1895.115734726880191  |grad|_K:  1.081e-07  alpha:  2.997e-01  linmin:  6.049e-06  t[s]: 132324.18
	FillingsUpdate:  mu: +0.114304834  nElectrons: 340.000000  magneticMoment: [ Abs: 40.90056  Tot: +0.00000 ]
	SubspaceRotationAdjust: set factor to 0.383
ElecMinimize: Iter:  26  F: -1895.115735185095673  |grad|_K:  9.685e-08  alpha:  2.253e-01  linmin: -5.394e-07  t[s]: 132402.80
	FillingsUpdate:  mu: +0.114260204  nElectrons: 340.000000  magneticMoment: [ Abs: 40.90027  Tot: +0.00000 ]
	SubspaceRotationAdjust: set factor to 0.413
ElecMinimize: Iter:  27  F: -1895.115735682059494  |grad|_K:  8.178e-08  alpha:  3.043e-01  linmin: -1.299e-06  t[s]: 132478.77
ElecMinimize: Converged (|Delta F|<1.000000e-06 for 5 iters).
Setting wave functions to eigenvectors of Hamiltonian
IonicMinimize: 	Wolfe criterion not satisfied: alpha: 0.251454  (E-E0)/|gdotd0|: 0.00629253  gdotd/gdotd0: 0.304198 (taking cubic step)

-------- Electronic minimization -----------
	FillingsUpdate:  mu: +0.108899839  nElectrons: 340.000000  magneticMoment: [ Abs: 40.90530  Tot: +0.00000 ]
ElecMinimize: Iter:   0  F: -1895.087922629098330  |grad|_K:  2.833e-05  alpha:  1.000e+00
	FillingsUpdate:  mu: +0.116217489  nElectrons: 340.000000  magneticMoment: [ Abs: 40.92243  Tot: +0.00000 ]
	SubspaceRotationAdjust: set factor to 0.344
ElecMinimize: Iter:   1  F: -1895.114351268945256  |grad|_K:  5.124e-06  alpha:  1.898e-01  linmin:  8.316e-04  t[s]: 132614.40
	FillingsUpdate:  mu: +0.111076427  nElectrons: 340.000000  magneticMoment: [ Abs: 40.88826  Tot: +0.00000 ]
	SubspaceRotationAdjust: set factor to 0.217
ElecMinimize: Iter:   2  F: -1895.115225632837337  |grad|_K:  2.726e-06  alpha:  1.919e-01  linmin:  1.230e-03  t[s]: 132693.82
	FillingsUpdate:  mu: +0.114085509  nElectrons: 340.000000  magneticMoment: [ Abs: 40.91317  Tot: -0.00000 ]
	SubspaceRotationAdjust: set factor to 0.174
ElecMinimize: Iter:   3  F: -1895.115535242965734  |grad|_K:  1.488e-06  alpha:  2.458e-01  linmin: -1.437e-04  t[s]: 132768.73
	FillingsUpdate:  mu: +0.114450512  nElectrons: 340.000000  magneticMoment: [ Abs: 40.90379  Tot: -0.00000 ]
	SubspaceRotationAdjust: set factor to 0.154
ElecMinimize: Iter:   4  F: -1895.115637033570920  |grad|_K:  9.400e-07  alpha:  2.627e-01  linmin:  6.812e-07  t[s]: 132844.60
	FillingsUpdate:  mu: +0.114197363  nElectrons: 340.000000  magneticMoment: [ Abs: 40.90243  Tot: +0.00000 ]
	SubspaceRotationAdjust: set factor to 0.185
ElecMinimize: Iter:   5  F: -1895.115685357916618  |grad|_K:  6.505e-07  alpha:  3.141e-01  linmin:  2.230e-07  t[s]: 132924.25
	FillingsUpdate:  mu: +0.114067035  nElectrons: 340.000000  magneticMoment: [ Abs: 40.90486  Tot: -0.00000 ]
	SubspaceRotationAdjust: set factor to 0.189
ElecMinimize: Iter:   6  F: -1895.115706738704830  |grad|_K:  4.613e-07  alpha:  2.902e-01  linmin: -6.473e-07  t[s]: 133003.28
	FillingsUpdate:  mu: +0.114078867  nElectrons: 340.000000  magneticMoment: [ Abs: 40.90281  Tot: +0.00000 ]
	SubspaceRotationAdjust: set factor to 0.223
ElecMinimize: Iter:   7  F: -1895.115720324695531  |grad|_K:  3.471e-07  alpha:  3.667e-01  linmin:  1.642e-06  t[s]: 133082.90
	FillingsUpdate:  mu: +0.114150221  nElectrons: 340.000000  magneticMoment: [ Abs: 40.90218  Tot: +0.00000 ]
	SubspaceRotationAdjust: set factor to 0.269
ElecMinimize: Iter:   8  F: -1895.115728364621191  |grad|_K:  3.003e-07  alpha:  3.834e-01  linmin:  5.652e-09  t[s]: 133161.71
	FillingsUpdate:  mu: +0.114150142  nElectrons: 340.000000  magneticMoment: [ Abs: 40.90315  Tot: +0.00000 ]
	SubspaceRotationAdjust: set factor to 0.307
ElecMinimize: Iter:   9  F: -1895.115733998739188  |grad|_K:  2.669e-07  alpha:  3.589e-01  linmin: -4.679e-07  t[s]: 133239.24
	FillingsUpdate:  mu: +0.114036057  nElectrons: 340.000000  magneticMoment: [ Abs: 40.90114  Tot: +0.00000 ]
	SubspaceRotationAdjust: set factor to 0.327
ElecMinimize: Iter:  10  F: -1895.115738442414795  |grad|_K:  2.388e-07  alpha:  3.583e-01  linmin:  2.229e-07  t[s]: 133316.43
	FillingsUpdate:  mu: +0.114141025  nElectrons: 340.000000  magneticMoment: [ Abs: 40.90264  Tot: -0.00000 ]
	SubspaceRotationAdjust: set factor to 0.325
ElecMinimize: Iter:  11  F: -1895.115741777912035  |grad|_K:  1.912e-07  alpha:  3.361e-01  linmin:  1.858e-07  t[s]: 133396.42
	FillingsUpdate:  mu: +0.114092080  nElectrons: 340.000000  magneticMoment: [ Abs: 40.90136  Tot: +0.00000 ]
	SubspaceRotationAdjust: set factor to 0.304
ElecMinimize: Iter:  12  F: -1895.115743655311690  |grad|_K:  1.433e-07  alpha:  2.950e-01  linmin:  1.627e-07  t[s]: 133473.32
	FillingsUpdate:  mu: +0.114113305  nElectrons: 340.000000  magneticMoment: [ Abs: 40.90239  Tot: -0.00000 ]
	SubspaceRotationAdjust: set factor to 0.281
ElecMinimize: Iter:  13  F: -1895.115744707388330  |grad|_K:  1.096e-07  alpha:  2.941e-01  linmin: -9.203e-07  t[s]: 133551.87
	FillingsUpdate:  mu: +0.114096669  nElectrons: 340.000000  magneticMoment: [ Abs: 40.90189  Tot: +0.00000 ]
	SubspaceRotationAdjust: set factor to 0.275
ElecMinimize: Iter:  14  F: -1895.115745345748337  |grad|_K:  8.336e-08  alpha:  3.051e-01  linmin: -6.849e-08  t[s]: 133627.47
	FillingsUpdate:  mu: +0.114111382  nElectrons: 340.000000  magneticMoment: [ Abs: 40.90239  Tot: -0.00000 ]
	SubspaceRotationAdjust: set factor to 0.3
ElecMinimize: Iter:  15  F: -1895.115745744568585  |grad|_K:  6.609e-08  alpha:  3.295e-01  linmin:  1.948e-07  t[s]: 133704.49
	FillingsUpdate:  mu: +0.114102467  nElectrons: 340.000000  magneticMoment: [ Abs: 40.90234  Tot: +0.00000 ]
	SubspaceRotationAdjust: set factor to 0.359
ElecMinimize: Iter:  16  F: -1895.115746014218757  |grad|_K:  5.807e-08  alpha:  3.544e-01  linmin: -2.711e-06  t[s]: 133781.91
	FillingsUpdate:  mu: +0.114105973  nElectrons: 340.000000  magneticMoment: [ Abs: 40.90249  Tot: -0.00000 ]
	SubspaceRotationAdjust: set factor to 0.44
ElecMinimize: Iter:  17  F: -1895.115746246150593  |grad|_K:  5.764e-08  alpha:  3.950e-01  linmin: -1.306e-06  t[s]: 133863.58
	FillingsUpdate:  mu: +0.114113322  nElectrons: 340.000000  magneticMoment: [ Abs: 40.90300  Tot: -0.00000 ]
	SubspaceRotationAdjust: set factor to 0.503
ElecMinimize: Iter:  18  F: -1895.115746508941584  |grad|_K:  6.505e-08  alpha:  4.543e-01  linmin: -7.802e-08  t[s]: 133945.83
ElecMinimize: Converged (|Delta F|<1.000000e-06 for 5 iters).
Setting wave functions to eigenvectors of Hamiltonian

# Ionic positions in lattice coordinates:
ion Ni  -0.007505705651240  -0.017631127431765   0.168488503857448 1
ion Ni  -0.009276470747019   0.487559988778490   0.168380865802469 1
ion Ni   0.250000000000000   0.250000000000000  -0.150000000000000 0
ion Ni  -0.250000000000000   0.250000000000000  -0.150000000000000 0
ion Co   0.505689199808100  -0.001150950058301   0.174095255805077 1
ion Co   0.250000000000000   0.750000000000000  -0.150000000000000 0
ion Cr   0.504142359351608   0.497449502999125   0.174174229839107 1
ion Cr  -0.250000000000000   0.750000000000000  -0.150000000000000 0
ion V   0.242636588189069   0.249705333068416   0.064808944540209 1
ion V   0.242167525808455   0.744083401108484   0.065368309855879 1
ion V  -0.258615880785611   0.248938932121847   0.062408271309070 1
ion V  -0.259475620659720   0.744675188182278   0.061278898271924 1
ion V   0.000000000000000   0.000000000000000  -0.050000000000000 0
ion V   0.500000000000000   0.000000000000000  -0.050000000000000 0
ion V   0.000000000000000   0.500000000000000  -0.050000000000000 0
ion V   0.500000000000000   0.500000000000000  -0.050000000000000 0
ion O   0.270229879487506   0.259987486219195   0.153243143859738 1
ion O   0.258368649739898   0.741768070200962   0.154709405212618 1
ion O  -0.263158653495741   0.247223369782843   0.161140496591554 1
ion O  -0.268009887931379   0.745350236245071   0.160488801469347 1
ion O  -0.000353832745915  -0.004552701437992   0.064783603256553 1
ion O   0.464932737399770  -0.004599468470676   0.054177684926479 1
ion O   0.021282637647527   0.497400704523442   0.049435250768845 1
ion O   0.482286036941697   0.496588394273150   0.050158645448971 1
ion O   0.250000000000000   0.250000000000000  -0.050000000000000 0
ion O   0.250000000000000   0.750000000000000  -0.050000000000000 0
ion O  -0.250000000000000   0.250000000000000  -0.050000000000000 0
ion O  -0.250000000000000   0.750000000000000  -0.050000000000000 0
ion O   0.000000000000000   0.000000000000000  -0.150000000000000 0
ion O   0.500000000000000   0.000000000000000  -0.150000000000000 0
ion O   0.000000000000000   0.500000000000000  -0.150000000000000 0
ion O   0.500000000000000   0.500000000000000  -0.150000000000000 0
ion O   0.028920066422279   0.004802122525472   0.246783260055188 1

# Forces in Lattice coordinates:
force Ni  -0.003588616916088  -0.006100942549223  -0.000623150706065 1
force Ni   0.006935162977095  -0.001065007434210  -0.046577649331552 1
force Ni  -0.006328677284300   0.004970570230423  -0.095780677768324 0
force Ni   0.013111419540432   0.007743427918062  -0.039465545359982 0
force Co   0.009685919945031  -0.011586455990842   0.058456501022399 1
force Co   0.018398521185062  -0.006393562678051  -0.678789672801050 0
force Cr  -0.002021851783270   0.001338379126356   0.044027911625376 1
force Cr   0.034715647362777  -0.006129087583529  -1.722543367316694 0
force V  -0.003751119942297   0.011239155446800  -0.031878703470013 1
force V  -0.005653236446519  -0.007888851556838  -0.034751090188605 1
force V   0.003785716387048   0.005043310872135  -0.048379978742556 1
force V   0.000471451417964  -0.003393034204947  -0.067917095770708 1
force V   0.010261115285471   0.028303536785829  -0.158767920687192 0
force V  -0.055124010825554   0.054862318043979  -0.121321050368556 0
force V   0.040307636556017  -0.042437584417477  -0.627874426829701 0
force V  -0.032699625531149  -0.067143491407132  -0.171947306996250 0
force O   0.004242066948805  -0.010135413935141   0.061593155656968 1
force O   0.009739966500975   0.005981649043029  -0.000458892600275 1
force O   0.003578190923325  -0.007027179659708   0.031602786624758 1
force O  -0.017550055832953  -0.000704005074066   0.019762016710724 1
force O  -0.006608025259396  -0.000822052032307  -0.046625300294498 1
force O   0.003429237048879   0.010843173091158  -0.064905916832706 1
force O  -0.011478162458993  -0.004801079147708   0.060390392939268 1
force O   0.000873528704185   0.001224157835560  -0.009263432358766 1
force O   0.043271354127149  -0.019906467628507   0.649359276540914 0
force O   0.028122182810189   0.009323738543053   0.677514971662250 0
force O  -0.023695912135903  -0.009762432306273   0.447828943640660 0
force O  -0.050354847733370   0.009101247998052   1.305813948572584 0
force O  -0.013096032629452  -0.004292246942463   0.208221652663415 0
force O   0.017894333592992  -0.036321713579619   0.217714186869411 0
force O  -0.025095142339563   0.004581449290685   0.094266228573922 0
force O   0.011731106356155   0.037024564206072   0.132796723836575 0
force O  -0.005173119216231   0.008672665097398  -0.041696921211642 1

# Energy components:
   Eewald =     4593.5585208316051649
       EH =     6295.8988532994753768
     Eloc =   -12959.5638773682076135
      Enl =     -464.5812852990172814
   Epulay =       -0.0004828466650297
      Exc =     -236.6499137544110454
       KE =      874.9679029505988410
        U =        1.2557125969563665
-------------------------------------
     Etot =    -1895.1145695896645975
       TS =        0.0011769192770088
-------------------------------------
        F =    -1895.1157465089415837

IonicMinimize: Iter:  19  F: -1895.115746508941584  |grad|_K:  8.044e-04  alpha:  6.901e-02  linmin: -8.491e-03  t[s]: 133957.33
IonicMinimize: Converged (|Delta F|<1.000000e-04 for 3 iters).

#--- Lowdin population analysis ---
# oxidation-state Ni +3.540 +3.460 +3.751 +3.770
# magnetic-moments Ni +0.241 -0.708 -0.997 +0.998
# oxidation-state Co +1.274 +1.218
# magnetic-moments Co -2.735 -2.649
# oxidation-state Cr +2.911 +2.909
# magnetic-moments Cr +4.026 +3.925
# oxidation-state V +1.255 +1.256 +1.030 +1.024 +1.010 +1.049 +1.012 +1.063
# magnetic-moments V +2.052 +2.045 -2.937 -2.931 -2.838 +2.721 -2.795 +2.682
# oxidation-state O -0.775 -0.774 -0.842 -0.851 -0.890 -0.912 -0.883 -0.914 -0.901 -0.945 -0.899 -0.921 -0.846 -0.854 -0.852 -0.857 -0.380
# magnetic-moments O -0.211 -0.099 -0.090 -0.191 +0.011 -0.053 -0.024 +0.017 -0.079 -0.058 +0.062 +0.013 -0.025 -0.089 -0.026 -0.082 +0.785


Dumping 'run.ionpos' ... done
Dumping 'run.lattice' ... done
Dumping 'run.Ecomponents' ... done
End date and time: Mon May 19 23:24:54 2025  (Duration: 1-13:12:40.43)
Done!
