/var/spool/slurmd/job44152/slurm_script: line 9: module: command not found
/var/spool/slurmd/job44152/slurm_script: line 10: module: command not found

*************** JDFTx 1.7.0  ***************

Start date and time: Fri May  9 17:59:42 2025
Executable /data2/jt577/jdftx_eat_withLibXC/build/jdftx with command-line: -i /data2/jt577/May_2025/Relax_Mag/rel17+1_6/O/runs/calc_/run.in
Running on hosts (process indices):  node3401 (0-8)
Divided in process groups (process indices):  0 (0)  1 (1)  2 (2)  3 (3)  4 (4)  5 (5)  6 (6)  7 (7)  8 (8)
Resource initialization completed at t[s]:      0.00
Run totals: 9 processes, 90 threads, 0 GPUs


Input parsed successfully to the following command list (including defaults):

add-mix 
add-U 	Ni d 0.22 \
	Co d 0.2 \
	Cr d 0.16 \
	V d 0.12
basis kpoint-dependent
coords-type Lattice
core-overlap-check vector
coulomb-interaction Periodic
davidson-band-ratio 1.1
dump End IonicPositions Lattice Ecomponents
dump-name run.$VAR
elec-cutoff 30
elec-eigen-algo Davidson
elec-ex-corr gga-x-rpbe gga-c-pbe
elec-smearing Fermi 0.001
electronic-minimize  \
	dirUpdateScheme      FletcherReeves \
	linminMethod         DirUpdateRecommended \
	nIterations          1000 \
	history              15 \
	knormThreshold       0 \
	energyDiffThreshold  1e-06 \
	nEnergyDiff          5 \
	alphaTstart          1 \
	alphaTmin            1e-10 \
	updateTestStepSize   yes \
	alphaTreduceFactor   0.1 \
	alphaTincreaseFactor 3 \
	nAlphaAdjustMax      3 \
	wolfeEnergy          0.0001 \
	wolfeGradient        0.9 \
	fdTest               no
exchange-regularization WignerSeitzTruncated
fluid None
fluid-ex-corr (null) lda-PZ
fluid-gummel-loop 10 1.000000e-05
fluid-minimize  \
	dirUpdateScheme      PolakRibiere \
	linminMethod         DirUpdateRecommended \
	nIterations          100 \
	history              15 \
	knormThreshold       0 \
	energyDiffThreshold  0 \
	nEnergyDiff          2 \
	alphaTstart          1 \
	alphaTmin            1e-10 \
	updateTestStepSize   yes \
	alphaTreduceFactor   0.1 \
	alphaTincreaseFactor 3 \
	nAlphaAdjustMax      3 \
	wolfeEnergy          0.0001 \
	wolfeGradient        0.9 \
	fdTest               no
fluid-solvent H2O 55.338 ScalarEOS \
	epsBulk 78.4 \
	pMol 0.92466 \
	epsInf 1.77 \
	Pvap 1.06736e-10 \
	sigmaBulk 4.62e-05 \
	Rvdw 2.61727 \
	Res 1.42 \
	tauNuc 343133 \
	poleEl 15 7 1
forces-output-coords Positions
initial-magnetic-moments  \
	Ni 1 1 -1 1 \
	Co -1 -1 \
	Cr -1 1 \
	V 1 1 -1 -1 -1 1 -1 1
initial-state run.$VAR
ion Ni  0.000000000000000   0.000000000000000   0.150000000000000 1
ion Ni  0.000000000000000   0.500000000000000   0.150000000000000 1
ion Ni  0.250000000000000   0.250000000000000  -0.150000000000000 0
ion Ni -0.250000000000000   0.250000000000000  -0.150000000000000 0
ion Co  0.500000000000000   0.000000000000000   0.150000000000000 1
ion Co  0.250000000000000   0.750000000000000  -0.150000000000000 0
ion Cr  0.500000000000000   0.500000000000000   0.150000000000000 1
ion Cr -0.250000000000000   0.750000000000000  -0.150000000000000 0
ion V  0.250000000000000   0.250000000000000   0.050000000000000 1
ion V  0.250000000000000   0.750000000000000   0.050000000000000 1
ion V -0.250000000000000   0.250000000000000   0.050000000000000 1
ion V -0.250000000000000   0.750000000000000   0.050000000000000 1
ion V  0.000000000000000   0.000000000000000  -0.050000000000000 0
ion V  0.500000000000000   0.000000000000000  -0.050000000000000 0
ion V  0.000000000000000   0.500000000000000  -0.050000000000000 0
ion V  0.500000000000000   0.500000000000000  -0.050000000000000 0
ion O  0.250000000000000   0.250000000000000   0.150000000000000 1
ion O  0.250000000000000   0.750000000000000   0.150000000000000 1
ion O -0.250000000000000   0.250000000000000   0.150000000000000 1
ion O -0.250000000000000   0.750000000000000   0.150000000000000 1
ion O  0.000000000000000   0.000000000000000   0.050000000000000 1
ion O  0.500000000000000   0.000000000000000   0.050000000000000 1
ion O  0.000000000000000   0.500000000000000   0.050000000000000 1
ion O  0.500000000000000   0.500000000000000   0.050000000000000 1
ion O  0.250000000000000   0.250000000000000  -0.050000000000000 0
ion O  0.250000000000000   0.750000000000000  -0.050000000000000 0
ion O -0.250000000000000   0.250000000000000  -0.050000000000000 0
ion O -0.250000000000000   0.750000000000000  -0.050000000000000 0
ion O  0.000000000000000   0.000000000000000  -0.150000000000000 0
ion O  0.500000000000000   0.000000000000000  -0.150000000000000 0
ion O  0.000000000000000   0.500000000000000  -0.150000000000000 0
ion O  0.500000000000000   0.500000000000000  -0.150000000000000 0
ion O -0.000095572322686   0.000198307128402   0.224876729873325 1
ion-species SG15/$ID_ONCV_PBE.upf
ion-width 0
ionic-minimize  \
	dirUpdateScheme      L-BFGS \
	linminMethod         DirUpdateRecommended \
	nIterations          1000 \
	history              15 \
	knormThreshold       0.0001 \
	energyDiffThreshold  0.0001 \
	nEnergyDiff          3 \
	alphaTstart          1 \
	alphaTmin            1e-10 \
	updateTestStepSize   yes \
	alphaTreduceFactor   0.1 \
	alphaTincreaseFactor 3 \
	nAlphaAdjustMax      3 \
	wolfeEnergy          0.0001 \
	wolfeGradient        0.9 \
	fdTest               no
kpoint   0.500000000000   0.500000000000   0.500000000000  1.00000000000000
kpoint-folding 3 3 1 
latt-move-scale 1 1 1
latt-scale 1 1 1 
lattice  \
	   8.140000000000001    8.140000000000001    0.000000000000000  \
	   8.140000000000001   -8.140000000000001    0.000000000000000  \
	   0.000000000000000    0.000000000000000   40.700000000000003 
lattice-minimize  \
	dirUpdateScheme      L-BFGS \
	linminMethod         DirUpdateRecommended \
	nIterations          0 \
	history              15 \
	knormThreshold       0 \
	energyDiffThreshold  1e-06 \
	nEnergyDiff          2 \
	alphaTstart          1 \
	alphaTmin            1e-10 \
	updateTestStepSize   yes \
	alphaTreduceFactor   0.1 \
	alphaTincreaseFactor 3 \
	nAlphaAdjustMax      3 \
	wolfeEnergy          0.0001 \
	wolfeGradient        0.9 \
	fdTest               no
lcao-params -1 1e-06 0.001
pcm-variant GLSSA13
spintype z-spin
subspace-rotation-factor 1 yes
symmetries none
symmetry-threshold 0.0001


Applied RMS atom displacement 0 bohrs to make symmetries exact.

---------- Initializing the Grid ----------
R = 
[         8.14         8.14            0  ]
[         8.14        -8.14            0  ]
[            0            0         40.7  ]
unit cell volume = 5393.53
G =
[   0.385945   0.385945         -0  ]
[   0.385945  -0.385945         -0  ]
[         -0         -0   0.154378  ]
Minimum fftbox size, Smin = [  60  60  204  ]
Chosen fftbox size, S = [  60  60  210  ]

---------- Exchange Correlation functional ----------
Initialized LibXC exchange functional 'Hammer, Hansen, and Norskov'
Initialized LibXC correlation functional 'Perdew, Burke & Ernzerhof'

---------- Setting up pseudopotentials ----------
Width of ionic core gaussian charges (only for fluid interactions / plotting) set to 0

Reading pseudopotential file '/data2/jt577/jdftx_eat_withLibXC/build/pseudopotentials/SG15/Ni_ONCV_PBE.upf':
  'Ni' pseudopotential, 'PBE' functional
  Generated using ONCVPSP code by D. R. Hamann
  Author: Martin Schlipf and Francois Gygi  Date: 150915.
  18 valence electrons, 4 orbitals, 6 projectors, 1292 radial grid points, with lMax = 2
  Transforming local potential to a uniform radial grid of dG=0.02 with 1419 points.
  Transforming nonlocal projectors to a uniform radial grid of dG=0.02 with 528 points.
    3S    l: 0   occupation:  2.0   eigenvalue: -4.081355
    3P    l: 1   occupation:  6.0   eigenvalue: -2.623460
    4S    l: 0   occupation:  2.0   eigenvalue: -0.207378
    3D    l: 2   occupation:  8.0   eigenvalue: -0.326118
  Transforming atomic orbitals to a uniform radial grid of dG=0.02 with 528 points.
  WARNING: large normalization error in atomic orbital 1s (integral: 0.000006).
  Core radius for overlap checks: 1.99 bohrs.
  Reading pulay file /data2/jt577/jdftx_eat_withLibXC/build/pseudopotentials/SG15/Ni_ONCV_PBE.pulay ... using dE_dnG = -7.250568e-04 computed for Ecut = 30.

Reading pseudopotential file '/data2/jt577/jdftx_eat_withLibXC/build/pseudopotentials/SG15/Co_ONCV_PBE.upf':
  'Co' pseudopotential, 'PBE' functional
  Generated using ONCVPSP code by D. R. Hamann
  Author: Martin Schlipf and Francois Gygi  Date: 150915.
  17 valence electrons, 4 orbitals, 6 projectors, 1388 radial grid points, with lMax = 2
  Transforming local potential to a uniform radial grid of dG=0.02 with 1419 points.
  Transforming nonlocal projectors to a uniform radial grid of dG=0.02 with 528 points.
    3S    l: 0   occupation:  2.0   eigenvalue: -3.763303
    3P    l: 1   occupation:  6.0   eigenvalue: -2.412101
    4S    l: 0   occupation:  2.0   eigenvalue: -0.201022
    3D    l: 2   occupation:  7.0   eigenvalue: -0.301498
  Transforming atomic orbitals to a uniform radial grid of dG=0.02 with 528 points.
  Core radius for overlap checks: 1.94 bohrs.
  Reading pulay file /data2/jt577/jdftx_eat_withLibXC/build/pseudopotentials/SG15/Co_ONCV_PBE.pulay ... using dE_dnG = -9.787391e-05 computed for Ecut = 30.

Reading pseudopotential file '/data2/jt577/jdftx_eat_withLibXC/build/pseudopotentials/SG15/Cr_ONCV_PBE.upf':
  'Cr' pseudopotential, 'PBE' functional
  Generated using ONCVPSP code by D. R. Hamann
  Author: Martin Schlipf and Francois Gygi  Date: 150915.
  14 valence electrons, 4 orbitals, 6 projectors, 1160 radial grid points, with lMax = 2
  Transforming local potential to a uniform radial grid of dG=0.02 with 1419 points.
  Transforming nonlocal projectors to a uniform radial grid of dG=0.02 with 528 points.
    3S    l: 0   occupation:  2.0   eigenvalue: -2.865131
    3P    l: 1   occupation:  6.0   eigenvalue: -1.810600
    4S    l: 0   occupation:  2.0   eigenvalue: -0.180525
    3D    l: 2   occupation:  4.0   eigenvalue: -0.220312
  Transforming atomic orbitals to a uniform radial grid of dG=0.02 with 528 points.
  WARNING: large normalization error in atomic orbital 1s (integral: 0.000001).
  Core radius for overlap checks: 2.10 bohrs.
  Reading pulay file /data2/jt577/jdftx_eat_withLibXC/build/pseudopotentials/SG15/Cr_ONCV_PBE.pulay ... using dE_dnG = -9.817895e-06 computed for Ecut = 30.

Reading pseudopotential file '/data2/jt577/jdftx_eat_withLibXC/build/pseudopotentials/SG15/V_ONCV_PBE.upf':
  'V' pseudopotential, 'PBE' functional
  Generated using ONCVPSP code by D. R. Hamann
  Author: Martin Schlipf and Francois Gygi  Date: 150915.
  13 valence electrons, 4 orbitals, 6 projectors, 1536 radial grid points, with lMax = 2
  Transforming local potential to a uniform radial grid of dG=0.02 with 1419 points.
  Transforming nonlocal projectors to a uniform radial grid of dG=0.02 with 528 points.
    3S    l: 0   occupation:  2.0   eigenvalue: -2.581105
    3P    l: 1   occupation:  6.0   eigenvalue: -1.618486
    4S    l: 0   occupation:  2.0   eigenvalue: -0.172804
    3D    l: 2   occupation:  3.0   eigenvalue: -0.189795
  Transforming atomic orbitals to a uniform radial grid of dG=0.02 with 528 points.
  Core radius for overlap checks: 1.80 bohrs.
  Reading pulay file /data2/jt577/jdftx_eat_withLibXC/build/pseudopotentials/SG15/V_ONCV_PBE.pulay ... using dE_dnG = -1.698632e-04 computed for Ecut = 30.

Reading pseudopotential file '/data2/jt577/jdftx_eat_withLibXC/build/pseudopotentials/SG15/O_ONCV_PBE.upf':
  'O' pseudopotential, 'PBE' functional
  Generated using ONCVPSP code by D. R. Hamann
  Author: Martin Schlipf and Francois Gygi  Date: 150915.
  6 valence electrons, 2 orbitals, 4 projectors, 936 radial grid points, with lMax = 1
  Transforming local potential to a uniform radial grid of dG=0.02 with 1419 points.
  Transforming nonlocal projectors to a uniform radial grid of dG=0.02 with 528 points.
    2S    l: 0   occupation:  2.0   eigenvalue: -0.880572
    2P    l: 1   occupation:  4.0   eigenvalue: -0.331869
  Transforming atomic orbitals to a uniform radial grid of dG=0.02 with 528 points.
  Core radius for overlap checks: 1.29 bohrs.
  Reading pulay file /data2/jt577/jdftx_eat_withLibXC/build/pseudopotentials/SG15/O_ONCV_PBE.pulay ... using dE_dnG = -8.209514e-03 computed for Ecut = 30.

Initialized 5 species with 33 total atoms.

Folded 1 k-points by 3x3x1 to 9 k-points.

---------- Setting up k-points, bands, fillings ----------
No reducable k-points. 
Computing the number of bands and number of electrons
Calculating initial fillings.
nElectrons: 340.000000   nBands: 228   nStates: 18

----- Setting up reduced wavefunction bases (one per k-point) -----
average nbasis = 42312.000 , ideal nbasis = 42330.081

---------- Setting up ewald sum ----------
Optimum gaussian width for ewald sums = 3.906449 bohr.
Real space sum over 605 unit cells with max indices [  5  5  2  ]
Reciprocal space sum over 5915 terms with max indices [  6  6  17  ]

---------- Allocating electronic variables ----------
Initializing wave functions:  linear combination of atomic orbitals
Ni (M=1) pseudo-atom majority spin occupations:   s ( 1 0.5 )  p ( 3 )  d ( 5 )
Ni (M=1) pseudo-atom minority spin occupations:   s ( 1 0 )  p ( 3 )  d ( 4.5 )
Co (M=1) pseudo-atom majority spin occupations:   s ( 1 0 )  p ( 3 )  d ( 5 )
Co (M=1) pseudo-atom minority spin occupations:   s ( 1 0 )  p ( 3 )  d ( 4 )
Cr (M=1) pseudo-atom majority spin occupations:   s ( 1 0 )  p ( 3 )  d ( 3.5 )
Cr (M=1) pseudo-atom minority spin occupations:   s ( 1 0 )  p ( 3 )  d ( 2.5 )
V (M=1) pseudo-atom majority spin occupations:   s ( 1 0 )  p ( 3 )  d ( 3 )
V (M=1) pseudo-atom minority spin occupations:   s ( 1 0 )  p ( 3 )  d ( 2 )
O pseudo-atom occupations:   s ( 2 )  p ( 4 )
	FillingsUpdate:  mu: -0.601657892  nElectrons: 340.000000  magneticMoment: [ Abs: 0.92267  Tot: +0.00000 ]
LCAOMinimize: Iter:   0  F: -1763.8945606139157007  |grad|_K:  1.165e-02  alpha:  1.000e+00
	FillingsUpdate:  mu: -0.456269866  nElectrons: 340.000000  magneticMoment: [ Abs: 1.98289  Tot: +0.00000 ]
LCAOMinimize: Iter:   1  F: -1770.7879115282862585  |grad|_K:  2.668e-02  alpha:  1.025e-01  linmin:  2.365e-02  cgtest:  4.016e-01  t[s]:     42.96
LCAOMinimize: 	Bad step direction: g.d > 0.
LCAOMinimize: 	Undoing step.
LCAOMinimize: 	Step failed: resetting search direction.
	FillingsUpdate:  mu: -0.456269866  nElectrons: 340.000000  magneticMoment: [ Abs: 1.98289  Tot: +0.00000 ]
LCAOMinimize: Iter:   2  F: -1770.7879115282862585  |grad|_K:  2.668e-02  alpha:  0.000e+00
LCAOMinimize: 	Step increased F by 2.161484e+00, reducing alpha to 2.826924e-03.
	FillingsUpdate:  mu: -0.471677757  nElectrons: 340.000000  magneticMoment: [ Abs: 2.08508  Tot: -0.00000 ]
LCAOMinimize: Iter:   3  F: -1774.4661712904992328  |grad|_K:  4.296e-02  alpha:  2.827e-03  linmin: -7.908e-02  cgtest:  5.261e-01  t[s]:     77.78
	FillingsUpdate:  mu: -0.435827042  nElectrons: 340.000000  magneticMoment: [ Abs: 3.18563  Tot: +0.00000 ]
LCAOMinimize: Iter:   4  F: -1779.4844715852066201  |grad|_K:  4.026e-02  alpha:  3.896e-03  linmin:  9.755e-02  cgtest: -6.088e-01  t[s]:     92.06
LCAOMinimize: 	Bad step direction: g.d > 0.
LCAOMinimize: 	Undoing step.
LCAOMinimize: 	Step failed: resetting search direction.
	FillingsUpdate:  mu: -0.435827042  nElectrons: 340.000000  magneticMoment: [ Abs: 3.18563  Tot: +0.00000 ]
LCAOMinimize: Iter:   5  F: -1779.4844715852066201  |grad|_K:  4.026e-02  alpha:  0.000e+00
LCAOMinimize: 	Predicted alpha/alphaT>3.000000, increasing alphaT to 1.168841e-02.
	FillingsUpdate:  mu: -0.537290385  nElectrons: 340.000000  magneticMoment: [ Abs: 4.15968  Tot: -0.00000 ]
LCAOMinimize: Iter:   6  F: -1785.2229805690417379  |grad|_K:  2.146e-02  alpha:  6.591e-03  linmin:  4.888e-02  cgtest: -3.166e-01  t[s]:    121.27
LCAOMinimize: 	Wrong curvature in test step, increasing alphaT to 1.977396e-02.
	FillingsUpdate:  mu: -0.625340586  nElectrons: 340.000000  magneticMoment: [ Abs: 4.65257  Tot: -0.00000 ]
LCAOMinimize: Iter:   7  F: -1786.6427996853292370  |grad|_K:  2.373e-02  alpha: -1.278e+00  linmin: -1.474e-02  cgtest:  1.034e+00  t[s]:    134.92
LCAOMinimize: 	Step increased F by 3.288205e+02, reducing alpha to 2.596536e-02.
	FillingsUpdate:  mu: -0.386163509  nElectrons: 340.000000  magneticMoment: [ Abs: 4.87862  Tot: -0.00000 ]
LCAOMinimize: Iter:   8  F: -1787.2675717219956368  |grad|_K:  3.744e-02  alpha:  2.597e-02  linmin: -1.011e-02  cgtest: -8.161e-01  t[s]:    159.82
	FillingsUpdate:  mu: -0.199690865  nElectrons: 340.000000  magneticMoment: [ Abs: 6.07888  Tot: -0.00000 ]
LCAOMinimize: Iter:   9  F: -1800.0591277041730791  |grad|_K:  3.516e-02  alpha:  3.715e-03  linmin: -4.039e-02  cgtest:  8.605e-01  t[s]:    174.35
	FillingsUpdate:  mu: -0.281801262  nElectrons: 340.000000  magneticMoment: [ Abs: 6.96525  Tot: +0.00000 ]
LCAOMinimize: Iter:  10  F: -1806.1747609104713774  |grad|_K:  2.098e-02  alpha:  6.612e-03  linmin: -1.038e-01  cgtest:  9.110e-01  t[s]:    189.00
LCAOMinimize: Encountered beta<0, resetting CG.
	FillingsUpdate:  mu: -0.208902319  nElectrons: 340.000000  magneticMoment: [ Abs: 7.55372  Tot: -0.00000 ]
LCAOMinimize: Iter:  11  F: -1807.8743783265974798  |grad|_K:  2.733e-02  alpha:  1.268e-02  linmin:  3.916e-02  cgtest: -1.989e-01  t[s]:    203.73
LCAOMinimize: 	Wrong curvature in test step, increasing alphaT to 3.804185e-02.
	FillingsUpdate:  mu: -0.078880256  nElectrons: 340.000000  magneticMoment: [ Abs: 9.09317  Tot: +0.00000 ]
LCAOMinimize: Iter:  12  F: -1812.1476990946434853  |grad|_K:  3.717e-02  alpha: -1.046e-02  linmin: -2.711e-02  cgtest:  1.011e+00  t[s]:    217.30
LCAOMinimize: 	Step increased F by 3.364270e+02, reducing alpha to 3.358144e-02.
LCAOMinimize: 	Step increased F by 3.773809e+01, reducing alpha to 3.358144e-03.
	FillingsUpdate:  mu: -0.089894239  nElectrons: 340.000000  magneticMoment: [ Abs: 10.04843  Tot: -0.00000 ]
LCAOMinimize: Iter:  13  F: -1815.8519246891307830  |grad|_K:  1.985e-02  alpha:  3.358e-03  linmin: -9.010e-02  cgtest:  1.134e+00  t[s]:    252.50
LCAOMinimize: Encountered beta<0, resetting CG.
	FillingsUpdate:  mu: -0.104100361  nElectrons: 340.000000  magneticMoment: [ Abs: 10.32162  Tot: -0.00000 ]
LCAOMinimize: Iter:  14  F: -1817.8099507963431734  |grad|_K:  9.136e-03  alpha:  9.314e-03  linmin: -5.556e-02  cgtest:  2.898e-01  t[s]:    267.13
LCAOMinimize: 	Predicted alpha/alphaT>3.000000, increasing alphaT to 2.794085e-02.
LCAOMinimize: 	Predicted alpha/alphaT>3.000000, increasing alphaT to 8.382256e-02.
	FillingsUpdate:  mu: +0.094164061  nElectrons: 340.000000  magneticMoment: [ Abs: 11.57762  Tot: +0.00000 ]
LCAOMinimize: Iter:  15  F: -1821.1274909940032103  |grad|_K:  7.255e-03  alpha:  5.084e-02  linmin: -4.611e-02  cgtest:  1.266e-01  t[s]:    290.05
	FillingsUpdate:  mu: +0.064831879  nElectrons: 340.000000  magneticMoment: [ Abs: 11.64069  Tot: +0.00000 ]
LCAOMinimize: Iter:  16  F: -1821.8309069783683753  |grad|_K:  5.314e-03  alpha:  1.723e-02  linmin: -1.509e-02  cgtest:  1.554e-01  t[s]:    304.47
	FillingsUpdate:  mu: +0.046245384  nElectrons: 340.000000  magneticMoment: [ Abs: 11.81986  Tot: -0.00000 ]
LCAOMinimize: Iter:  17  F: -1822.2363099419351329  |grad|_K:  5.465e-03  alpha:  2.699e-02  linmin: -1.268e-03  cgtest:  1.587e-01  t[s]:    318.95
	FillingsUpdate:  mu: -0.011168496  nElectrons: 340.000000  magneticMoment: [ Abs: 13.61999  Tot: +0.00000 ]
LCAOMinimize: Iter:  18  F: -1823.0793033236391238  |grad|_K:  5.065e-03  alpha:  5.418e-02  linmin: -6.443e-03  cgtest:  3.936e-01  t[s]:    333.38
	FillingsUpdate:  mu: +0.061604980  nElectrons: 340.000000  magneticMoment: [ Abs: 15.10448  Tot: -0.00000 ]
LCAOMinimize: Iter:  19  F: -1823.5413899511725049  |grad|_K:  4.314e-03  alpha:  3.962e-02  linmin: -4.827e-03  cgtest: -1.075e-01  t[s]:    348.03
	FillingsUpdate:  mu: +0.007334877  nElectrons: 340.000000  magneticMoment: [ Abs: 15.98599  Tot: -0.00000 ]
LCAOMinimize: Iter:  20  F: -1823.7101260549627568  |grad|_K:  3.004e-03  alpha:  2.225e-02  linmin:  3.513e-03  cgtest: -9.487e-02  t[s]:    362.86
	FillingsUpdate:  mu: -0.005576996  nElectrons: 340.000000  magneticMoment: [ Abs: 16.48976  Tot: +0.00000 ]
LCAOMinimize: Iter:  21  F: -1823.7841623638043984  |grad|_K:  1.431e-03  alpha:  1.854e-02  linmin:  9.894e-04  cgtest:  7.643e-02  t[s]:    377.45
LCAOMinimize: 	Predicted alpha/alphaT>3.000000, increasing alphaT to 5.560802e-02.
	FillingsUpdate:  mu: +0.008330280  nElectrons: 340.000000  magneticMoment: [ Abs: 18.05092  Tot: -0.00000 ]
LCAOMinimize: Iter:  22  F: -1823.8832655733110641  |grad|_K:  1.652e-03  alpha:  1.052e-01  linmin:  2.462e-03  cgtest: -1.240e-01  t[s]:    396.31
	FillingsUpdate:  mu: +0.014725090  nElectrons: 340.000000  magneticMoment: [ Abs: 18.66337  Tot: -0.00000 ]
LCAOMinimize: Iter:  23  F: -1823.9021967752642013  |grad|_K:  1.194e-03  alpha:  1.754e-02  linmin:  3.085e-03  cgtest:  2.077e-01  t[s]:    411.14
LCAOMinimize: 	Predicted alpha/alphaT>3.000000, increasing alphaT to 5.261887e-02.
LCAOMinimize: 	Predicted alpha/alphaT>3.000000, increasing alphaT to 1.578566e-01.
	FillingsUpdate:  mu: +0.005797062  nElectrons: 340.000000  magneticMoment: [ Abs: 21.56176  Tot: -0.00000 ]
LCAOMinimize: Iter:  24  F: -1824.0098323137858642  |grad|_K:  1.200e-03  alpha:  1.682e-01  linmin: -3.219e-03  cgtest:  2.611e-01  t[s]:    434.50
	FillingsUpdate:  mu: +0.026614692  nElectrons: 340.000000  magneticMoment: [ Abs: 23.50466  Tot: -0.00000 ]
LCAOMinimize: Iter:  25  F: -1824.0961733887447735  |grad|_K:  1.484e-03  alpha:  1.252e-01  linmin: -1.251e-03  cgtest: -4.671e-02  t[s]:    449.56
	FillingsUpdate:  mu: +0.009106725  nElectrons: 340.000000  magneticMoment: [ Abs: 24.32550  Tot: +0.00000 ]
LCAOMinimize: Iter:  26  F: -1824.1218055708714019  |grad|_K:  9.633e-04  alpha:  2.921e-02  linmin:  7.280e-03  cgtest: -4.507e-01  t[s]:    464.17
	FillingsUpdate:  mu: +0.004753108  nElectrons: 340.000000  magneticMoment: [ Abs: 25.36209  Tot: -0.00000 ]
LCAOMinimize: Iter:  27  F: -1824.1398204541230825  |grad|_K:  1.025e-03  alpha:  6.045e-02  linmin: -1.411e-03  cgtest:  8.707e-01  t[s]:    478.61
	FillingsUpdate:  mu: -0.001637714  nElectrons: 340.000000  magneticMoment: [ Abs: 25.42087  Tot: -0.00000 ]
LCAOMinimize: Iter:  28  F: -1824.1498195549527281  |grad|_K:  5.551e-04  alpha:  1.880e-02  linmin: -8.259e-03  cgtest:  7.083e-02  t[s]:    493.33
LCAOMinimize: 	Predicted alpha/alphaT>3.000000, increasing alphaT to 5.639365e-02.
	FillingsUpdate:  mu: +0.002132797  nElectrons: 340.000000  magneticMoment: [ Abs: 25.95082  Tot: +0.00000 ]
LCAOMinimize: Iter:  29  F: -1824.1682891966886473  |grad|_K:  4.365e-04  alpha:  1.214e-01  linmin: -2.338e-03  cgtest: -1.765e-01  t[s]:    512.20
	FillingsUpdate:  mu: +0.002489733  nElectrons: 340.000000  magneticMoment: [ Abs: 26.31254  Tot: -0.00000 ]
LCAOMinimize: Iter:  30  F: -1824.1739449460160358  |grad|_K:  6.633e-04  alpha:  6.262e-02  linmin:  2.999e-04  cgtest: -3.748e-02  t[s]:    526.81
LCAOMinimize: None of the convergence criteria satisfied after 30 iterations.


---- Citations for features of the code used in this run ----

   Software package:
      R. Sundararaman, K. Letchworth-Weaver, K.A. Schwarz, D. Gunceler, Y. Ozhabes and T.A. Arias, 'JDFTx: software for joint density-functional theory', SoftwareX 6, 278 (2017)

   Simplified rotationally-invariant DFT+U:
      S. L. Dudarev et al., Phys. Rev. B 57, 1505 (1998)

   LibXC library of exchange-correlation functions:
      M. A. L. Marques, M. J. T. Oliveira and T. Burnus, Comput. Phys. Commun. 183, 2272 (2012)

   Hammer, Hansen, and Norskov exchange functional:
      B. Hammer, L. B. Hansen, and J. K. Nørskov, Phys. Rev. B 59, 7413 (1999)

   Perdew, Burke & Ernzerhof correlation functional:
      J. P. Perdew, K. Burke, and M. Ernzerhof, Phys. Rev. Lett. 77, 3865 (1996)

   Pseudopotentials:
      M Schlipf and F Gygi, Comput. Phys. Commun. 196, 36 (2015)

   Total energy minimization with Auxiliary Hamiltonian:
      C. Freysoldt, S. Boeck, and J. Neugebauer, Phys. Rev. B 79, 241103(R) (2009)

This list may not be complete. Please suggest additional citations or
report any other bugs at https://github.com/shankar1729/jdftx/issues

Initialization completed successfully at t[s]:    533.32


-------- Electronic minimization -----------
	FillingsUpdate:  mu: +0.002489733  nElectrons: 340.000000  magneticMoment: [ Abs: 26.31254  Tot: -0.00000 ]
ElecMinimize: Iter:   0  F: -1824.173944946015354  |grad|_K:  8.652e-04  alpha:  1.000e+00
	FillingsUpdate:  mu: +0.416897196  nElectrons: 340.000000  magneticMoment: [ Abs: 28.01237  Tot: +0.00000 ]
	SubspaceRotationAdjust: set factor to 0.989
ElecMinimize: Iter:   1  F: -1859.854522085239523  |grad|_K:  1.128e-03  alpha:  4.761e-01  linmin:  6.609e-03  t[s]:    623.78
	FillingsUpdate:  mu: +0.758368096  nElectrons: 340.000000  magneticMoment: [ Abs: 27.74996  Tot: -0.00000 ]
	SubspaceRotationAdjust: set factor to 0.594
ElecMinimize: Iter:   2  F: -1860.043345773091460  |grad|_K:  1.592e-03  alpha:  4.827e-02  linmin:  8.559e-03  t[s]:    697.71
	FillingsUpdate:  mu: +0.828447885  nElectrons: 340.000000  magneticMoment: [ Abs: 27.81653  Tot: +0.00000 ]
	SubspaceRotationAdjust: set factor to 0.374
ElecMinimize: Iter:   3  F: -1863.008224547562349  |grad|_K:  1.322e-03  alpha:  3.557e-02  linmin: -1.928e-04  t[s]:    772.41
	FillingsUpdate:  mu: +0.394128883  nElectrons: 340.000000  magneticMoment: [ Abs: 30.36865  Tot: +0.00000 ]
	SubspaceRotationAdjust: set factor to 0.164
ElecMinimize: Iter:   4  F: -1871.549685916921817  |grad|_K:  7.030e-04  alpha:  2.296e-02  linmin:  2.860e-03  t[s]:    848.38
ElecMinimize: 	Predicted alpha/alphaT>3.000000, increasing alphaT to 6.889098e-02.
	FillingsUpdate:  mu: +0.729135066  nElectrons: 340.000000  magneticMoment: [ Abs: 30.79729  Tot: +0.00000 ]
	SubspaceRotationAdjust: set factor to 0.137
ElecMinimize: Iter:   5  F: -1878.246292244047027  |grad|_K:  6.261e-04  alpha:  1.222e-01  linmin: -4.220e-05  t[s]:    955.64
	FillingsUpdate:  mu: +0.251182744  nElectrons: 340.000000  magneticMoment: [ Abs: 30.71976  Tot: +0.00000 ]
	SubspaceRotationAdjust: set factor to 0.16
ElecMinimize: Iter:   6  F: -1886.159526452137470  |grad|_K:  3.791e-04  alpha:  9.856e-02  linmin:  6.149e-04  t[s]:   1033.25
	FillingsUpdate:  mu: +0.337236593  nElectrons: 340.000000  magneticMoment: [ Abs: 31.26808  Tot: -0.00000 ]
	SubspaceRotationAdjust: set factor to 0.161
ElecMinimize: Iter:   7  F: -1887.637102197710192  |grad|_K:  3.803e-04  alpha:  6.619e-02  linmin: -1.632e-04  t[s]:   1109.87
	FillingsUpdate:  mu: +0.356259241  nElectrons: 340.000000  magneticMoment: [ Abs: 31.63321  Tot: -0.00000 ]
	SubspaceRotationAdjust: set factor to 0.175
ElecMinimize: Iter:   8  F: -1889.157176701095295  |grad|_K:  3.184e-04  alpha:  5.884e-02  linmin:  5.118e-05  t[s]:   1184.89
	FillingsUpdate:  mu: +0.347166934  nElectrons: 340.000000  magneticMoment: [ Abs: 31.48770  Tot: -0.00000 ]
	SubspaceRotationAdjust: set factor to 0.154
ElecMinimize: Iter:   9  F: -1890.013609754104891  |grad|_K:  2.841e-04  alpha:  4.534e-02  linmin:  3.421e-04  t[s]:   1261.81
	FillingsUpdate:  mu: +0.310002454  nElectrons: 340.000000  magneticMoment: [ Abs: 31.38998  Tot: -0.00000 ]
	SubspaceRotationAdjust: set factor to 0.122
	SubspaceRotationAdjust: resetting CG because factor has changed by 0.121805
ElecMinimize: 	State modified externally: resetting search direction.
ElecMinimize: Iter:  10  F: -1890.437449797176896  |grad|_K:  2.639e-04  alpha:  3.135e-02
ElecMinimize: 	Predicted alpha/alphaT>3.000000, increasing alphaT to 9.406164e-02.
	FillingsUpdate:  mu: +0.264016568  nElectrons: 340.000000  magneticMoment: [ Abs: 31.49692  Tot: -0.00000 ]
	SubspaceRotationAdjust: set factor to 0.0876
ElecMinimize: Iter:  11  F: -1892.518702924782701  |grad|_K:  1.393e-04  alpha:  1.537e-01  linmin: -1.553e-02  t[s]:   1461.31
	FillingsUpdate:  mu: +0.148492094  nElectrons: 340.000000  magneticMoment: [ Abs: 31.33565  Tot: -0.00000 ]
	SubspaceRotationAdjust: set factor to 0.0579
ElecMinimize: Iter:  12  F: -1893.147179674136396  |grad|_K:  8.078e-05  alpha:  1.512e-01  linmin:  1.786e-04  t[s]:   1537.96
	FillingsUpdate:  mu: +0.142975099  nElectrons: 340.000000  magneticMoment: [ Abs: 31.32998  Tot: +0.00000 ]
	SubspaceRotationAdjust: set factor to 0.067
ElecMinimize: Iter:  13  F: -1893.483489960522320  |grad|_K:  6.101e-05  alpha:  2.980e-01  linmin: -5.025e-04  t[s]:   1613.68
	FillingsUpdate:  mu: +0.148314871  nElectrons: 340.000000  magneticMoment: [ Abs: 31.60449  Tot: +0.00000 ]
	SubspaceRotationAdjust: set factor to 0.0693
ElecMinimize: Iter:  14  F: -1893.753359989968658  |grad|_K:  5.343e-05  alpha:  4.060e-01  linmin:  4.876e-04  t[s]:   1691.12
	FillingsUpdate:  mu: +0.097827573  nElectrons: 340.000000  magneticMoment: [ Abs: 31.93556  Tot: +0.00000 ]
	SubspaceRotationAdjust: set factor to 0.083
ElecMinimize: Iter:  15  F: -1893.912103746693901  |grad|_K:  4.422e-05  alpha:  3.461e-01  linmin: -2.969e-07  t[s]:   1769.58
	FillingsUpdate:  mu: +0.091485956  nElectrons: 340.000000  magneticMoment: [ Abs: 32.22506  Tot: -0.00000 ]
	SubspaceRotationAdjust: set factor to 0.0927
ElecMinimize: Iter:  16  F: -1894.025694983411768  |grad|_K:  3.686e-05  alpha:  3.338e-01  linmin: -3.992e-05  t[s]:   1847.91
	FillingsUpdate:  mu: +0.107439928  nElectrons: 340.000000  magneticMoment: [ Abs: 32.65523  Tot: +0.00000 ]
	SubspaceRotationAdjust: set factor to 0.101
ElecMinimize: Iter:  17  F: -1894.110183003071597  |grad|_K:  3.729e-05  alpha:  3.542e-01  linmin:  2.548e-05  t[s]:   1924.12
	FillingsUpdate:  mu: +0.117819351  nElectrons: 340.000000  magneticMoment: [ Abs: 33.26879  Tot: -0.00000 ]
	SubspaceRotationAdjust: set factor to 0.114
ElecMinimize: Iter:  18  F: -1894.200571091081201  |grad|_K:  3.676e-05  alpha:  3.767e-01  linmin: -8.512e-05  t[s]:   2000.13
	FillingsUpdate:  mu: +0.127501371  nElectrons: 340.000000  magneticMoment: [ Abs: 33.99175  Tot: -0.00000 ]
	SubspaceRotationAdjust: set factor to 0.129
ElecMinimize: Iter:  19  F: -1894.293133381200732  |grad|_K:  3.870e-05  alpha:  3.744e-01  linmin: -7.182e-05  t[s]:   2076.14
	FillingsUpdate:  mu: +0.136121411  nElectrons: 340.000000  magneticMoment: [ Abs: 34.50053  Tot: -0.00000 ]
	SubspaceRotationAdjust: set factor to 0.115
ElecMinimize: Iter:  20  F: -1894.353550814259052  |grad|_K:  5.083e-05  alpha:  2.406e-01  linmin:  1.705e-06  t[s]:   2151.40
	FillingsUpdate:  mu: +0.110717755  nElectrons: 340.000000  magneticMoment: [ Abs: 34.69844  Tot: -0.00000 ]
	SubspaceRotationAdjust: set factor to 0.153
ElecMinimize: Iter:  21  F: -1894.403363654751729  |grad|_K:  3.793e-05  alpha:  6.979e-02  linmin: -5.297e-04  t[s]:   2227.64
	FillingsUpdate:  mu: +0.142953257  nElectrons: 340.000000  magneticMoment: [ Abs: 34.91086  Tot: +0.00000 ]
	SubspaceRotationAdjust: set factor to 0.0948
ElecMinimize: Iter:  22  F: -1894.441079137816587  |grad|_K:  7.018e-05  alpha:  1.074e-01  linmin:  2.042e-04  t[s]:   2305.48
	FillingsUpdate:  mu: +0.157208149  nElectrons: 340.000000  magneticMoment: [ Abs: 35.12085  Tot: +0.00000 ]
	SubspaceRotationAdjust: set factor to 0.0565
ElecMinimize: Iter:  23  F: -1894.456825971779381  |grad|_K:  7.832e-05  alpha:  2.949e-02  linmin:  5.395e-05  t[s]:   2380.17
	FillingsUpdate:  mu: +0.155316643  nElectrons: 340.000000  magneticMoment: [ Abs: 35.47002  Tot: -0.00000 ]
	SubspaceRotationAdjust: set factor to 0.0426
ElecMinimize: Iter:  24  F: -1894.502426034733617  |grad|_K:  6.682e-05  alpha:  4.465e-02  linmin: -4.186e-05  t[s]:   2456.15
	FillingsUpdate:  mu: +0.142987754  nElectrons: 340.000000  magneticMoment: [ Abs: 35.71574  Tot: +0.00000 ]
	SubspaceRotationAdjust: set factor to 0.0675
ElecMinimize: Iter:  25  F: -1894.542458966987397  |grad|_K:  5.557e-05  alpha:  4.874e-02  linmin:  3.373e-05  t[s]:   2531.61
	FillingsUpdate:  mu: +0.110130275  nElectrons: 340.000000  magneticMoment: [ Abs: 35.91228  Tot: -0.00000 ]
	SubspaceRotationAdjust: set factor to 0.0825
ElecMinimize: Iter:  26  F: -1894.567757907615487  |grad|_K:  5.438e-05  alpha:  4.972e-02  linmin: -2.941e-05  t[s]:   2606.10
	FillingsUpdate:  mu: +0.092575672  nElectrons: 340.000000  magneticMoment: [ Abs: 36.14686  Tot: +0.00000 ]
	SubspaceRotationAdjust: set factor to 0.102
ElecMinimize: Iter:  27  F: -1894.595339160886851  |grad|_K:  4.992e-05  alpha:  5.203e-02  linmin:  1.633e-04  t[s]:   2683.17
	FillingsUpdate:  mu: +0.092307355  nElectrons: 340.000000  magneticMoment: [ Abs: 36.14970  Tot: -0.00000 ]
	SubspaceRotationAdjust: set factor to 0.131
ElecMinimize: Iter:  28  F: -1894.595840165458185  |grad|_K:  5.140e-05  alpha:  7.261e-04  linmin: -5.168e-04  t[s]:   2758.80
ElecMinimize: 	Predicted alpha/alphaT>3.000000, increasing alphaT to 2.178330e-03.
ElecMinimize: 	Predicted alpha/alphaT>3.000000, increasing alphaT to 6.534989e-03.
ElecMinimize: 	Predicted alpha/alphaT>3.000000, increasing alphaT to 1.960497e-02.
	FillingsUpdate:  mu: +0.086523070  nElectrons: 340.000000  magneticMoment: [ Abs: 36.24153  Tot: -0.00000 ]
	SubspaceRotationAdjust: set factor to 0.154
ElecMinimize: Iter:  29  F: -1894.606324349107808  |grad|_K:  4.675e-05  alpha:  2.588e-02  linmin:  1.598e-03  t[s]:   2895.87
ElecMinimize: 	Bad step direction: g.d > 0.
ElecMinimize: 	Undoing step.
ElecMinimize: 	Step failed: resetting search direction.
	FillingsUpdate:  mu: +0.086523070  nElectrons: 340.000000  magneticMoment: [ Abs: 36.24153  Tot: -0.00000 ]
	SubspaceRotationAdjust: set factor to 0.165
ElecMinimize: Iter:  30  F: -1894.606324349109627  |grad|_K:  4.843e-05  alpha:  0.000e+00
ElecMinimize: 	Predicted alpha/alphaT>3.000000, increasing alphaT to 7.763478e-02.
ElecMinimize: 	Predicted alpha/alphaT>3.000000, increasing alphaT to 2.329043e-01.
	FillingsUpdate:  mu: +0.129203152  nElectrons: 340.000000  magneticMoment: [ Abs: 36.16779  Tot: +0.00000 ]
	SubspaceRotationAdjust: set factor to 0.125
ElecMinimize: Iter:  31  F: -1894.733902244293176  |grad|_K:  3.862e-05  alpha:  3.276e-01  linmin:  1.038e-02  t[s]:   3080.30
	FillingsUpdate:  mu: +0.119521368  nElectrons: 340.000000  magneticMoment: [ Abs: 36.23850  Tot: -0.00000 ]
	SubspaceRotationAdjust: set factor to 0.0964
ElecMinimize: Iter:  32  F: -1894.757028532898175  |grad|_K:  3.330e-05  alpha:  1.029e-01  linmin:  2.642e-03  t[s]:   3155.55
	FillingsUpdate:  mu: +0.114888243  nElectrons: 340.000000  magneticMoment: [ Abs: 36.61311  Tot: +0.00000 ]
	SubspaceRotationAdjust: set factor to 0.111
ElecMinimize: Iter:  33  F: -1894.790863534930850  |grad|_K:  2.347e-05  alpha:  1.869e-01  linmin:  2.519e-03  t[s]:   3233.54
	FillingsUpdate:  mu: +0.130910527  nElectrons: 340.000000  magneticMoment: [ Abs: 37.04197  Tot: -0.00000 ]
	SubspaceRotationAdjust: set factor to 0.0739
ElecMinimize: Iter:  34  F: -1894.815398320941085  |grad|_K:  2.992e-05  alpha:  2.706e-01  linmin:  1.043e-03  t[s]:   3313.11
	FillingsUpdate:  mu: +0.106805251  nElectrons: 340.000000  magneticMoment: [ Abs: 37.27823  Tot: -0.00000 ]
	SubspaceRotationAdjust: set factor to 0.0793
ElecMinimize: Iter:  35  F: -1894.833244867491885  |grad|_K:  1.749e-05  alpha:  1.260e-01  linmin:  9.998e-04  t[s]:   3389.80
	FillingsUpdate:  mu: +0.107501014  nElectrons: 340.000000  magneticMoment: [ Abs: 37.43342  Tot: +0.00000 ]
	SubspaceRotationAdjust: set factor to 0.0615
ElecMinimize: Iter:  36  F: -1894.848350866917144  |grad|_K:  1.838e-05  alpha:  2.868e-01  linmin: -7.889e-04  t[s]:   3468.51
	FillingsUpdate:  mu: +0.105919358  nElectrons: 340.000000  magneticMoment: [ Abs: 37.61797  Tot: +0.00000 ]
	SubspaceRotationAdjust: set factor to 0.0516
ElecMinimize: Iter:  37  F: -1894.858324602540279  |grad|_K:  1.431e-05  alpha:  1.701e-01  linmin:  3.211e-04  t[s]:   3543.77
	FillingsUpdate:  mu: +0.113037520  nElectrons: 340.000000  magneticMoment: [ Abs: 37.92198  Tot: +0.00000 ]
	SubspaceRotationAdjust: set factor to 0.0657
ElecMinimize: Iter:  38  F: -1894.871277971895097  |grad|_K:  1.426e-05  alpha:  3.664e-01  linmin: -1.338e-04  t[s]:   3620.24
	FillingsUpdate:  mu: +0.099043290  nElectrons: 340.000000  magneticMoment: [ Abs: 38.15077  Tot: -0.00000 ]
	SubspaceRotationAdjust: set factor to 0.0605
ElecMinimize: Iter:  39  F: -1894.880790978979803  |grad|_K:  1.392e-05  alpha:  2.691e-01  linmin: -4.031e-05  t[s]:   3698.48
	FillingsUpdate:  mu: +0.099014533  nElectrons: 340.000000  magneticMoment: [ Abs: 38.57547  Tot: +0.00000 ]
	SubspaceRotationAdjust: set factor to 0.0744
ElecMinimize: Iter:  40  F: -1894.893353783844532  |grad|_K:  1.333e-05  alpha:  3.698e-01  linmin: -2.339e-04  t[s]:   3774.68
	FillingsUpdate:  mu: +0.111274866  nElectrons: 340.000000  magneticMoment: [ Abs: 38.98578  Tot: -0.00000 ]
	SubspaceRotationAdjust: set factor to 0.074
ElecMinimize: Iter:  41  F: -1894.904743808293460  |grad|_K:  1.353e-05  alpha:  3.639e-01  linmin: -5.830e-04  t[s]:   3852.61
	FillingsUpdate:  mu: +0.105577921  nElectrons: 340.000000  magneticMoment: [ Abs: 39.31736  Tot: -0.00000 ]
	SubspaceRotationAdjust: set factor to 0.0711
ElecMinimize: Iter:  42  F: -1894.915012730040871  |grad|_K:  1.156e-05  alpha:  3.133e-01  linmin: -1.541e-04  t[s]:   3927.21
	FillingsUpdate:  mu: +0.106320362  nElectrons: 340.000000  magneticMoment: [ Abs: 39.59902  Tot: +0.00000 ]
	SubspaceRotationAdjust: set factor to 0.0839
ElecMinimize: Iter:  43  F: -1894.923669016974145  |grad|_K:  1.057e-05  alpha:  3.683e-01  linmin: -5.842e-05  t[s]:   4004.57
	FillingsUpdate:  mu: +0.106943099  nElectrons: 340.000000  magneticMoment: [ Abs: 39.80436  Tot: +0.00000 ]
	SubspaceRotationAdjust: set factor to 0.0876
ElecMinimize: Iter:  44  F: -1894.930991527829519  |grad|_K:  1.025e-05  alpha:  3.754e-01  linmin: -1.913e-04  t[s]:   4082.89
	FillingsUpdate:  mu: +0.101829153  nElectrons: 340.000000  magneticMoment: [ Abs: 39.99466  Tot: +0.00000 ]
	SubspaceRotationAdjust: set factor to 0.0956
ElecMinimize: Iter:  45  F: -1894.937869047617824  |grad|_K:  9.357e-06  alpha:  3.721e-01  linmin:  1.560e-05  t[s]:   4160.17
	FillingsUpdate:  mu: +0.099433979  nElectrons: 340.000000  magneticMoment: [ Abs: 40.17746  Tot: -0.00000 ]
	SubspaceRotationAdjust: set factor to 0.112
ElecMinimize: Iter:  46  F: -1894.943101714811064  |grad|_K:  8.481e-06  alpha:  3.393e-01  linmin:  8.286e-04  t[s]:   4237.03
	FillingsUpdate:  mu: +0.100823192  nElectrons: 340.000000  magneticMoment: [ Abs: 40.32866  Tot: -0.00000 ]
	SubspaceRotationAdjust: set factor to 0.116
ElecMinimize: Iter:  47  F: -1894.946322053082440  |grad|_K:  8.842e-06  alpha:  2.646e-01  linmin:  2.531e-04  t[s]:   4312.94
	FillingsUpdate:  mu: +0.099828555  nElectrons: 340.000000  magneticMoment: [ Abs: 40.49625  Tot: -0.00000 ]
	SubspaceRotationAdjust: set factor to 0.163
ElecMinimize: Iter:  48  F: -1894.949905998633767  |grad|_K:  8.925e-06  alpha:  2.671e-01  linmin: -2.007e-04  t[s]:   4391.02
	FillingsUpdate:  mu: +0.101907326  nElectrons: 340.000000  magneticMoment: [ Abs: 40.61937  Tot: -0.00000 ]
	SubspaceRotationAdjust: set factor to 0.181
ElecMinimize: Iter:  49  F: -1894.953490746888974  |grad|_K:  9.014e-06  alpha:  2.539e-01  linmin:  7.392e-05  t[s]:   4465.89
	FillingsUpdate:  mu: +0.102263303  nElectrons: 340.000000  magneticMoment: [ Abs: 40.70903  Tot: +0.00000 ]
	SubspaceRotationAdjust: set factor to 0.202
ElecMinimize: Iter:  50  F: -1894.956385637707172  |grad|_K:  8.614e-06  alpha:  2.071e-01  linmin: -6.014e-05  t[s]:   4540.61
	FillingsUpdate:  mu: +0.102597849  nElectrons: 340.000000  magneticMoment: [ Abs: 40.91416  Tot: +0.00000 ]
	SubspaceRotationAdjust: set factor to 0.239
ElecMinimize: Iter:  51  F: -1894.959713146553440  |grad|_K:  8.336e-06  alpha:  2.543e-01  linmin: -1.585e-04  t[s]:   4615.46
	FillingsUpdate:  mu: +0.104229252  nElectrons: 340.000000  magneticMoment: [ Abs: 41.13349  Tot: -0.00000 ]
	SubspaceRotationAdjust: set factor to 0.247
ElecMinimize: Iter:  52  F: -1894.962640775366481  |grad|_K:  9.744e-06  alpha:  2.366e-01  linmin:  8.674e-05  t[s]:   4691.26
	FillingsUpdate:  mu: +0.102439658  nElectrons: 340.000000  magneticMoment: [ Abs: 41.21232  Tot: -0.00000 ]
	SubspaceRotationAdjust: set factor to 0.209
ElecMinimize: Iter:  53  F: -1894.964821783342586  |grad|_K:  8.629e-06  alpha:  1.349e-01  linmin:  6.782e-06  t[s]:   4768.61
	FillingsUpdate:  mu: +0.100093488  nElectrons: 340.000000  magneticMoment: [ Abs: 41.39787  Tot: -0.00000 ]
	SubspaceRotationAdjust: set factor to 0.235
ElecMinimize: Iter:  54  F: -1894.967601300069873  |grad|_K:  7.103e-06  alpha:  2.140e-01  linmin: -4.931e-05  t[s]:   4843.28
	FillingsUpdate:  mu: +0.102481659  nElectrons: 340.000000  magneticMoment: [ Abs: 41.56335  Tot: +0.00000 ]
	SubspaceRotationAdjust: set factor to 0.253
ElecMinimize: Iter:  55  F: -1894.969826048242794  |grad|_K:  6.555e-06  alpha:  2.514e-01  linmin:  1.643e-05  t[s]:   4922.49
	FillingsUpdate:  mu: +0.103284686  nElectrons: 340.000000  magneticMoment: [ Abs: 41.61664  Tot: +0.00000 ]
	SubspaceRotationAdjust: set factor to 0.24
ElecMinimize: Iter:  56  F: -1894.971326460154614  |grad|_K:  7.373e-06  alpha:  2.001e-01  linmin:  3.129e-05  t[s]:   5000.99
	FillingsUpdate:  mu: +0.101357274  nElectrons: 340.000000  magneticMoment: [ Abs: 41.71653  Tot: -0.00000 ]
	SubspaceRotationAdjust: set factor to 0.192
ElecMinimize: Iter:  57  F: -1894.972393691309890  |grad|_K:  6.058e-06  alpha:  1.151e-01  linmin:  3.806e-05  t[s]:   5078.56
	FillingsUpdate:  mu: +0.101207132  nElectrons: 340.000000  magneticMoment: [ Abs: 41.80341  Tot: +0.00000 ]
	SubspaceRotationAdjust: set factor to 0.196
ElecMinimize: Iter:  58  F: -1894.973669351300032  |grad|_K:  4.754e-06  alpha:  2.028e-01  linmin:  1.993e-04  t[s]:   5154.85
	FillingsUpdate:  mu: +0.101040434  nElectrons: 340.000000  magneticMoment: [ Abs: 41.87755  Tot: -0.00000 ]
	SubspaceRotationAdjust: set factor to 0.226
ElecMinimize: Iter:  59  F: -1894.974601068068523  |grad|_K:  4.078e-06  alpha:  2.422e-01  linmin: -3.364e-05  t[s]:   5228.98
	FillingsUpdate:  mu: +0.099966656  nElectrons: 340.000000  magneticMoment: [ Abs: 41.91121  Tot: -0.00000 ]
	SubspaceRotationAdjust: set factor to 0.257
ElecMinimize: Iter:  60  F: -1894.975335138394712  |grad|_K:  3.624e-06  alpha:  2.525e-01  linmin: -6.656e-05  t[s]:   5303.14
	FillingsUpdate:  mu: +0.100781536  nElectrons: 340.000000  magneticMoment: [ Abs: 41.93843  Tot: +0.00000 ]
	SubspaceRotationAdjust: set factor to 0.277
ElecMinimize: Iter:  61  F: -1894.975895550134283  |grad|_K:  3.898e-06  alpha:  2.435e-01  linmin:  8.959e-05  t[s]:   5382.09
	FillingsUpdate:  mu: +0.101044520  nElectrons: 340.000000  magneticMoment: [ Abs: 41.98778  Tot: -0.00000 ]
	SubspaceRotationAdjust: set factor to 0.238
ElecMinimize: Iter:  62  F: -1894.976248259639533  |grad|_K:  4.249e-06  alpha:  1.381e-01  linmin:  8.649e-05  t[s]:   5459.80
	FillingsUpdate:  mu: +0.100746041  nElectrons: 340.000000  magneticMoment: [ Abs: 41.99231  Tot: +0.00000 ]
	SubspaceRotationAdjust: set factor to 0.207
ElecMinimize: Iter:  63  F: -1894.976683466660234  |grad|_K:  3.544e-06  alpha:  1.399e-01  linmin:  2.003e-04  t[s]:   5535.19
	FillingsUpdate:  mu: +0.100140405  nElectrons: 340.000000  magneticMoment: [ Abs: 42.01454  Tot: +0.00000 ]
	SubspaceRotationAdjust: set factor to 0.246
ElecMinimize: Iter:  64  F: -1894.977137377028839  |grad|_K:  3.135e-06  alpha:  2.112e-01  linmin: -1.216e-04  t[s]:   5612.96
	FillingsUpdate:  mu: +0.100432758  nElectrons: 340.000000  magneticMoment: [ Abs: 42.02963  Tot: -0.00000 ]
	SubspaceRotationAdjust: set factor to 0.282
ElecMinimize: Iter:  65  F: -1894.977569202522091  |grad|_K:  2.939e-06  alpha:  2.479e-01  linmin: -3.402e-05  t[s]:   5689.16
	FillingsUpdate:  mu: +0.101433814  nElectrons: 340.000000  magneticMoment: [ Abs: 42.01793  Tot: -0.00000 ]
	SubspaceRotationAdjust: set factor to 0.309
ElecMinimize: Iter:  66  F: -1894.977915814519747  |grad|_K:  3.179e-06  alpha:  2.286e-01  linmin:  1.002e-04  t[s]:   5764.80
	FillingsUpdate:  mu: +0.100677004  nElectrons: 340.000000  magneticMoment: [ Abs: 42.01705  Tot: +0.00000 ]
	SubspaceRotationAdjust: set factor to 0.274
ElecMinimize: Iter:  67  F: -1894.978143751923653  |grad|_K:  3.081e-06  alpha:  1.373e-01  linmin:  3.462e-05  t[s]:   5842.20
	FillingsUpdate:  mu: +0.101570972  nElectrons: 340.000000  magneticMoment: [ Abs: 41.98703  Tot: +0.00000 ]
	SubspaceRotationAdjust: set factor to 0.238
ElecMinimize: Iter:  68  F: -1894.978377956102577  |grad|_K:  2.760e-06  alpha:  1.427e-01  linmin:  1.072e-04  t[s]:   5919.82
	FillingsUpdate:  mu: +0.101045337  nElectrons: 340.000000  magneticMoment: [ Abs: 41.97430  Tot: +0.00000 ]
	SubspaceRotationAdjust: set factor to 0.235
ElecMinimize: Iter:  69  F: -1894.978601135420831  |grad|_K:  2.319e-06  alpha:  1.700e-01  linmin: -1.451e-04  t[s]:   5994.95
	FillingsUpdate:  mu: +0.101137290  nElectrons: 340.000000  magneticMoment: [ Abs: 41.94177  Tot: +0.00000 ]
	SubspaceRotationAdjust: set factor to 0.253
ElecMinimize: Iter:  70  F: -1894.978825443982942  |grad|_K:  2.087e-06  alpha:  2.343e-01  linmin: -1.923e-05  t[s]:   6071.58
	FillingsUpdate:  mu: +0.100533680  nElectrons: 340.000000  magneticMoment: [ Abs: 41.91691  Tot: -0.00000 ]
	SubspaceRotationAdjust: set factor to 0.268
ElecMinimize: Iter:  71  F: -1894.979013770997199  |grad|_K:  2.026e-06  alpha:  2.478e-01  linmin:  2.267e-05  t[s]:   6146.51
	FillingsUpdate:  mu: +0.101266289  nElectrons: 340.000000  magneticMoment: [ Abs: 41.89269  Tot: -0.00000 ]
	SubspaceRotationAdjust: set factor to 0.257
ElecMinimize: Iter:  72  F: -1894.979158643864139  |grad|_K:  2.033e-06  alpha:  2.041e-01  linmin: -4.593e-05  t[s]:   6223.65
	FillingsUpdate:  mu: +0.100660315  nElectrons: 340.000000  magneticMoment: [ Abs: 41.88709  Tot: +0.00000 ]
	SubspaceRotationAdjust: set factor to 0.214
ElecMinimize: Iter:  73  F: -1894.979257678643307  |grad|_K:  1.901e-06  alpha:  1.352e-01  linmin: -4.765e-06  t[s]:   6300.59
	FillingsUpdate:  mu: +0.100808895  nElectrons: 340.000000  magneticMoment: [ Abs: 41.86403  Tot: +0.00000 ]
	SubspaceRotationAdjust: set factor to 0.225
ElecMinimize: Iter:  74  F: -1894.979365053398624  |grad|_K:  1.534e-06  alpha:  1.700e-01  linmin: -8.925e-05  t[s]:   6375.48
	FillingsUpdate:  mu: +0.100768534  nElectrons: 340.000000  magneticMoment: [ Abs: 41.84631  Tot: -0.00000 ]
	SubspaceRotationAdjust: set factor to 0.262
ElecMinimize: Iter:  75  F: -1894.979473331374265  |grad|_K:  1.462e-06  alpha:  2.623e-01  linmin:  2.926e-05  t[s]:   6454.63
	FillingsUpdate:  mu: +0.100692049  nElectrons: 340.000000  magneticMoment: [ Abs: 41.84051  Tot: +0.00000 ]
	SubspaceRotationAdjust: set factor to 0.274
ElecMinimize: Iter:  76  F: -1894.979561445351010  |grad|_K:  1.665e-06  alpha:  2.370e-01  linmin:  4.361e-05  t[s]:   6534.16
	FillingsUpdate:  mu: +0.101271257  nElectrons: 340.000000  magneticMoment: [ Abs: 41.82689  Tot: +0.00000 ]
	SubspaceRotationAdjust: set factor to 0.236
ElecMinimize: Iter:  77  F: -1894.979625416646286  |grad|_K:  1.644e-06  alpha:  1.350e-01  linmin:  3.453e-05  t[s]:   6612.94
	FillingsUpdate:  mu: +0.100601836  nElectrons: 340.000000  magneticMoment: [ Abs: 41.82043  Tot: -0.00000 ]
	SubspaceRotationAdjust: set factor to 0.233
ElecMinimize: Iter:  78  F: -1894.979711139176743  |grad|_K:  1.482e-06  alpha:  1.839e-01  linmin:  8.963e-05  t[s]:   6689.87
	FillingsUpdate:  mu: +0.100620763  nElectrons: 340.000000  magneticMoment: [ Abs: 41.80881  Tot: -0.00000 ]
	SubspaceRotationAdjust: set factor to 0.263
ElecMinimize: Iter:  79  F: -1894.979806863108934  |grad|_K:  1.465e-06  alpha:  2.535e-01  linmin: -4.878e-06  t[s]:   6764.21
	FillingsUpdate:  mu: +0.100543702  nElectrons: 340.000000  magneticMoment: [ Abs: 41.80184  Tot: -0.00000 ]
	SubspaceRotationAdjust: set factor to 0.297
ElecMinimize: Iter:  80  F: -1894.979908971729856  |grad|_K:  1.521e-06  alpha:  2.732e-01  linmin:  2.039e-05  t[s]:   6840.94
	FillingsUpdate:  mu: +0.100244201  nElectrons: 340.000000  magneticMoment: [ Abs: 41.79461  Tot: -0.00000 ]
	SubspaceRotationAdjust: set factor to 0.339
ElecMinimize: Iter:  81  F: -1894.980015565434769  |grad|_K:  1.649e-06  alpha:  2.652e-01  linmin:  7.002e-05  t[s]:   6918.23
	FillingsUpdate:  mu: +0.100574764  nElectrons: 340.000000  magneticMoment: [ Abs: 41.78369  Tot: -0.00000 ]
	SubspaceRotationAdjust: set factor to 0.362
ElecMinimize: Iter:  82  F: -1894.980114290560778  |grad|_K:  1.898e-06  alpha:  2.110e-01  linmin: -6.131e-06  t[s]:   6994.42
	FillingsUpdate:  mu: +0.100139909  nElectrons: 340.000000  magneticMoment: [ Abs: 41.78877  Tot: -0.00000 ]
	SubspaceRotationAdjust: set factor to 0.337
ElecMinimize: Iter:  83  F: -1894.980194198793697  |grad|_K:  2.025e-06  alpha:  1.272e-01  linmin: -2.136e-06  t[s]:   7073.15
	FillingsUpdate:  mu: +0.100312020  nElectrons: 340.000000  magneticMoment: [ Abs: 41.77893  Tot: +0.00000 ]
	SubspaceRotationAdjust: set factor to 0.361
ElecMinimize: Iter:  84  F: -1894.980292099400685  |grad|_K:  1.782e-06  alpha:  1.369e-01  linmin: -5.189e-05  t[s]:   7148.42
	FillingsUpdate:  mu: +0.100077401  nElectrons: 340.000000  magneticMoment: [ Abs: 41.77501  Tot: -0.00000 ]
	SubspaceRotationAdjust: set factor to 0.442
ElecMinimize: Iter:  85  F: -1894.980405097998073  |grad|_K:  1.730e-06  alpha:  2.028e-01  linmin:  2.353e-05  t[s]:   7223.48
	FillingsUpdate:  mu: +0.100007055  nElectrons: 340.000000  magneticMoment: [ Abs: 41.77516  Tot: +0.00000 ]
	SubspaceRotationAdjust: set factor to 0.536
ElecMinimize: Iter:  86  F: -1894.980509093535829  |grad|_K:  1.806e-06  alpha:  2.003e-01  linmin: -1.110e-05  t[s]:   7301.82
	FillingsUpdate:  mu: +0.100701432  nElectrons: 340.000000  magneticMoment: [ Abs: 41.76914  Tot: -0.00000 ]
	SubspaceRotationAdjust: set factor to 0.469
ElecMinimize: Iter:  87  F: -1894.980590149007639  |grad|_K:  2.172e-06  alpha:  1.439e-01  linmin: -2.510e-05  t[s]:   7378.86
	FillingsUpdate:  mu: +0.100298499  nElectrons: 340.000000  magneticMoment: [ Abs: 41.78007  Tot: -0.00000 ]
	SubspaceRotationAdjust: set factor to 0.418
ElecMinimize: Iter:  88  F: -1894.980654100276297  |grad|_K:  1.875e-06  alpha:  7.770e-02  linmin:  3.345e-06  t[s]:   7454.59
	FillingsUpdate:  mu: +0.100229580  nElectrons: 340.000000  magneticMoment: [ Abs: 41.77601  Tot: +0.00000 ]
	SubspaceRotationAdjust: set factor to 0.525
ElecMinimize: Iter:  89  F: -1894.980745660185448  |grad|_K:  1.593e-06  alpha:  1.490e-01  linmin: -5.272e-05  t[s]:   7531.34
	FillingsUpdate:  mu: +0.100257551  nElectrons: 340.000000  magneticMoment: [ Abs: 41.77498  Tot: +0.00000 ]
	SubspaceRotationAdjust: set factor to 0.65
ElecMinimize: Iter:  90  F: -1894.980834758970786  |grad|_K:  1.635e-06  alpha:  1.997e-01  linmin: -1.712e-05  t[s]:   7607.40
	FillingsUpdate:  mu: +0.100371506  nElectrons: 340.000000  magneticMoment: [ Abs: 41.78647  Tot: +0.00000 ]
	SubspaceRotationAdjust: set factor to 0.489
ElecMinimize: Iter:  91  F: -1894.980893796630426  |grad|_K:  2.191e-06  alpha:  1.258e-01  linmin: -3.570e-06  t[s]:   7683.51
	FillingsUpdate:  mu: +0.100488935  nElectrons: 340.000000  magneticMoment: [ Abs: 41.78044  Tot: +0.00000 ]
	SubspaceRotationAdjust: set factor to 0.454
ElecMinimize: Iter:  92  F: -1894.980947531932770  |grad|_K:  1.602e-06  alpha:  6.538e-02  linmin:  3.482e-05  t[s]:   7760.22
	FillingsUpdate:  mu: +0.100427259  nElectrons: 340.000000  magneticMoment: [ Abs: 41.78500  Tot: -0.00000 ]
	SubspaceRotationAdjust: set factor to 0.606
ElecMinimize: Iter:  93  F: -1894.981026258823249  |grad|_K:  1.471e-06  alpha:  1.781e-01  linmin:  2.951e-05  t[s]:   7838.17
	FillingsUpdate:  mu: +0.100428985  nElectrons: 340.000000  magneticMoment: [ Abs: 41.79223  Tot: +0.00000 ]
	SubspaceRotationAdjust: set factor to 0.515
ElecMinimize: Iter:  94  F: -1894.981093011432904  |grad|_K:  1.878e-06  alpha:  1.783e-01  linmin:  3.037e-05  t[s]:   7916.16
	FillingsUpdate:  mu: +0.100692766  nElectrons: 340.000000  magneticMoment: [ Abs: 41.78417  Tot: -0.00000 ]
	SubspaceRotationAdjust: set factor to 0.46
ElecMinimize: Iter:  95  F: -1894.981133567258212  |grad|_K:  1.736e-06  alpha:  6.816e-02  linmin:  8.149e-05  t[s]:   7990.77
	FillingsUpdate:  mu: +0.100521425  nElectrons: 340.000000  magneticMoment: [ Abs: 41.79073  Tot: -0.00000 ]
	SubspaceRotationAdjust: set factor to 0.605
ElecMinimize: Iter:  96  F: -1894.981211449689681  |grad|_K:  1.572e-06  alpha:  1.520e-01  linmin:  7.070e-05  t[s]:   8065.07
	FillingsUpdate:  mu: +0.100635986  nElectrons: 340.000000  magneticMoment: [ Abs: 41.79861  Tot: +0.00000 ]
	SubspaceRotationAdjust: set factor to 0.514
ElecMinimize: Iter:  97  F: -1894.981292427992912  |grad|_K:  2.136e-06  alpha:  1.919e-01  linmin:  8.906e-05  t[s]:   8141.13
	FillingsUpdate:  mu: +0.100970644  nElectrons: 340.000000  magneticMoment: [ Abs: 41.79018  Tot: +0.00000 ]
	SubspaceRotationAdjust: set factor to 0.469
ElecMinimize: Iter:  98  F: -1894.981342158864663  |grad|_K:  1.974e-06  alpha:  6.449e-02  linmin:  3.845e-05  t[s]:   8217.58
	FillingsUpdate:  mu: +0.101033034  nElectrons: 340.000000  magneticMoment: [ Abs: 41.79796  Tot: -0.00000 ]
	SubspaceRotationAdjust: set factor to 0.654
ElecMinimize: Iter:  99  F: -1894.981444611698407  |grad|_K:  1.823e-06  alpha:  1.522e-01  linmin:  1.693e-05  t[s]:   8295.52
	FillingsUpdate:  mu: +0.101253145  nElectrons: 340.000000  magneticMoment: [ Abs: 41.81126  Tot: +0.00000 ]
	SubspaceRotationAdjust: set factor to 0.477
ElecMinimize: Iter: 100  F: -1894.981526956566086  |grad|_K:  2.752e-06  alpha:  1.425e-01  linmin:  4.186e-05  t[s]:   8374.43
	FillingsUpdate:  mu: +0.101083848  nElectrons: 340.000000  magneticMoment: [ Abs: 41.80385  Tot: +0.00000 ]
	SubspaceRotationAdjust: set factor to 0.511
ElecMinimize: Iter: 101  F: -1894.981597435014464  |grad|_K:  1.911e-06  alpha:  5.121e-02  linmin: -2.180e-04  t[s]:   8451.58
ElecMinimize: 	Predicted alpha/alphaT>3.000000, increasing alphaT to 1.536241e-01.
	FillingsUpdate:  mu: +0.101606946  nElectrons: 340.000000  magneticMoment: [ Abs: 41.80379  Tot: +0.00000 ]
	SubspaceRotationAdjust: set factor to 0.409
ElecMinimize: Iter: 102  F: -1894.981705666827338  |grad|_K:  2.588e-06  alpha:  1.636e-01  linmin:  8.791e-05  t[s]:   8561.44
	FillingsUpdate:  mu: +0.101032247  nElectrons: 340.000000  magneticMoment: [ Abs: 41.81741  Tot: -0.00000 ]
	SubspaceRotationAdjust: set factor to 0.448
ElecMinimize: Iter: 103  F: -1894.981763866253687  |grad|_K:  1.923e-06  alpha:  4.840e-02  linmin: -1.956e-04  t[s]:   8638.42
	FillingsUpdate:  mu: +0.101673864  nElectrons: 340.000000  magneticMoment: [ Abs: 41.83144  Tot: -0.00000 ]
	SubspaceRotationAdjust: set factor to 0.319
ElecMinimize: Iter: 104  F: -1894.981850487047950  |grad|_K:  2.751e-06  alpha:  1.294e-01  linmin:  1.312e-05  t[s]:   8715.51
	FillingsUpdate:  mu: +0.101358031  nElectrons: 340.000000  magneticMoment: [ Abs: 41.82581  Tot: +0.00000 ]
	SubspaceRotationAdjust: set factor to 0.467
ElecMinimize: Iter: 105  F: -1894.981917368802669  |grad|_K:  1.738e-06  alpha:  5.070e-02  linmin: -2.323e-05  t[s]:   8793.48
	FillingsUpdate:  mu: +0.102029074  nElectrons: 340.000000  magneticMoment: [ Abs: 41.81843  Tot: +0.00000 ]
	SubspaceRotationAdjust: set factor to 0.344
ElecMinimize: Iter: 106  F: -1894.981972773836105  |grad|_K:  2.485e-06  alpha:  1.042e-01  linmin: -4.828e-05  t[s]:   8872.81
	FillingsUpdate:  mu: +0.101589297  nElectrons: 340.000000  magneticMoment: [ Abs: 41.82638  Tot: +0.00000 ]
	SubspaceRotationAdjust: set factor to 0.574
ElecMinimize: Iter: 107  F: -1894.982045437721126  |grad|_K:  1.609e-06  alpha:  6.648e-02  linmin: -9.543e-06  t[s]:   8949.30
	FillingsUpdate:  mu: +0.101655608  nElectrons: 340.000000  magneticMoment: [ Abs: 41.83590  Tot: -0.00000 ]
	SubspaceRotationAdjust: set factor to 0.416
ElecMinimize: Iter: 108  F: -1894.982089250053377  |grad|_K:  2.289e-06  alpha:  9.733e-02  linmin:  3.983e-05  t[s]:   9028.06
	FillingsUpdate:  mu: +0.101691855  nElectrons: 340.000000  magneticMoment: [ Abs: 41.83063  Tot: -0.00000 ]
	SubspaceRotationAdjust: set factor to 0.658
ElecMinimize: Iter: 109  F: -1894.982147326681343  |grad|_K:  1.453e-06  alpha:  6.473e-02  linmin: -1.971e-06  t[s]:   9105.80
	FillingsUpdate:  mu: +0.102242678  nElectrons: 340.000000  magneticMoment: [ Abs: 41.82336  Tot: +0.00000 ]
	SubspaceRotationAdjust: set factor to 0.458
ElecMinimize: Iter: 110  F: -1894.982190834456105  |grad|_K:  2.156e-06  alpha:  1.175e-01  linmin: -8.081e-05  t[s]:   9183.57
	FillingsUpdate:  mu: +0.101813285  nElectrons: 340.000000  magneticMoment: [ Abs: 41.83026  Tot: -0.00000 ]
	SubspaceRotationAdjust: set factor to 0.492
ElecMinimize: Iter: 111  F: -1894.982229597706237  |grad|_K:  1.323e-06  alpha:  4.665e-02  linmin: -4.767e-05  t[s]:   9261.31
ElecMinimize: 	Predicted alpha/alphaT>3.000000, increasing alphaT to 1.399646e-01.
	FillingsUpdate:  mu: +0.101859215  nElectrons: 340.000000  magneticMoment: [ Abs: 41.83295  Tot: +0.00000 ]
	SubspaceRotationAdjust: set factor to 0.406
ElecMinimize: Iter: 112  F: -1894.982277638492633  |grad|_K:  1.667e-06  alpha:  1.565e-01  linmin:  1.765e-05  t[s]:   9370.19
	FillingsUpdate:  mu: +0.102026793  nElectrons: 340.000000  magneticMoment: [ Abs: 41.82511  Tot: +0.00000 ]
	SubspaceRotationAdjust: set factor to 0.371
ElecMinimize: Iter: 113  F: -1894.982303228020783  |grad|_K:  1.272e-06  alpha:  5.405e-02  linmin:  7.528e-05  t[s]:   9447.05
	FillingsUpdate:  mu: +0.102240974  nElectrons: 340.000000  magneticMoment: [ Abs: 41.82163  Tot: +0.00000 ]
	SubspaceRotationAdjust: set factor to 0.374
ElecMinimize: Iter: 114  F: -1894.982344698590168  |grad|_K:  1.354e-06  alpha:  1.491e-01  linmin: -1.579e-05  t[s]:   9520.20
	FillingsUpdate:  mu: +0.101965580  nElectrons: 340.000000  magneticMoment: [ Abs: 41.82631  Tot: -0.00000 ]
	SubspaceRotationAdjust: set factor to 0.349
ElecMinimize: Iter: 115  F: -1894.982366564798667  |grad|_K:  1.153e-06  alpha:  6.781e-02  linmin: -2.549e-05  t[s]:   9596.50
	FillingsUpdate:  mu: +0.101911688  nElectrons: 340.000000  magneticMoment: [ Abs: 41.82321  Tot: +0.00000 ]
	SubspaceRotationAdjust: set factor to 0.359
ElecMinimize: Iter: 116  F: -1894.982400925043294  |grad|_K:  1.189e-06  alpha:  1.479e-01  linmin:  1.300e-05  t[s]:   9674.76
	FillingsUpdate:  mu: +0.102041074  nElectrons: 340.000000  magneticMoment: [ Abs: 41.81507  Tot: +0.00000 ]
	SubspaceRotationAdjust: set factor to 0.342
ElecMinimize: Iter: 117  F: -1894.982419203518248  |grad|_K:  1.066e-06  alpha:  7.496e-02  linmin:  2.228e-05  t[s]:   9753.76
	FillingsUpdate:  mu: +0.102093848  nElectrons: 340.000000  magneticMoment: [ Abs: 41.81067  Tot: -0.00000 ]
	SubspaceRotationAdjust: set factor to 0.394
ElecMinimize: Iter: 118  F: -1894.982449549601597  |grad|_K:  1.079e-06  alpha:  1.540e-01  linmin:  1.025e-06  t[s]:   9830.38
	FillingsUpdate:  mu: +0.101927483  nElectrons: 340.000000  magneticMoment: [ Abs: 41.81393  Tot: +0.00000 ]
	SubspaceRotationAdjust: set factor to 0.376
ElecMinimize: Iter: 119  F: -1894.982466771568625  |grad|_K:  1.090e-06  alpha:  8.492e-02  linmin: -2.671e-06  t[s]:   9907.47
	FillingsUpdate:  mu: +0.101958526  nElectrons: 340.000000  magneticMoment: [ Abs: 41.80912  Tot: -0.00000 ]
	SubspaceRotationAdjust: set factor to 0.55
ElecMinimize: Iter: 120  F: -1894.982496339910085  |grad|_K:  1.009e-06  alpha:  1.430e-01  linmin:  7.057e-06  t[s]:   9984.09
	FillingsUpdate:  mu: +0.102167501  nElectrons: 340.000000  magneticMoment: [ Abs: 41.80081  Tot: -0.00000 ]
	SubspaceRotationAdjust: set factor to 0.437
ElecMinimize: Iter: 121  F: -1894.982515653782002  |grad|_K:  1.333e-06  alpha:  1.092e-01  linmin: -5.063e-06  t[s]:  10058.84
	FillingsUpdate:  mu: +0.101873469  nElectrons: 340.000000  magneticMoment: [ Abs: 41.80064  Tot: +0.00000 ]
	SubspaceRotationAdjust: set factor to 0.52
ElecMinimize: Iter: 122  F: -1894.982541149021472  |grad|_K:  1.023e-06  alpha:  8.233e-02  linmin: -1.074e-06  t[s]:  10134.84
	FillingsUpdate:  mu: +0.101876154  nElectrons: 340.000000  magneticMoment: [ Abs: 41.79752  Tot: +0.00000 ]
	SubspaceRotationAdjust: set factor to 0.59
ElecMinimize: Iter: 123  F: -1894.982574159297201  |grad|_K:  1.198e-06  alpha:  1.812e-01  linmin: -4.779e-06  t[s]:  10210.43
	FillingsUpdate:  mu: +0.102120752  nElectrons: 340.000000  magneticMoment: [ Abs: 41.78947  Tot: +0.00000 ]
	SubspaceRotationAdjust: set factor to 0.528
ElecMinimize: Iter: 124  F: -1894.982594242569121  |grad|_K:  1.381e-06  alpha:  8.049e-02  linmin:  9.175e-06  t[s]:  10286.53
	FillingsUpdate:  mu: +0.101986534  nElectrons: 340.000000  magneticMoment: [ Abs: 41.78927  Tot: +0.00000 ]
	SubspaceRotationAdjust: set factor to 0.65
ElecMinimize: Iter: 125  F: -1894.982626989545224  |grad|_K:  1.132e-06  alpha:  9.879e-02  linmin: -1.113e-05  t[s]:  10362.79
	FillingsUpdate:  mu: +0.101944319  nElectrons: 340.000000  magneticMoment: [ Abs: 41.78603  Tot: +0.00000 ]
	SubspaceRotationAdjust: set factor to 0.724
ElecMinimize: Iter: 126  F: -1894.982665716058136  |grad|_K:  1.347e-06  alpha:  1.731e-01  linmin:  6.408e-06  t[s]:  10437.45
	FillingsUpdate:  mu: +0.102174449  nElectrons: 340.000000  magneticMoment: [ Abs: 41.77755  Tot: +0.00000 ]
	SubspaceRotationAdjust: set factor to 0.597
ElecMinimize: Iter: 127  F: -1894.982688569972652  |grad|_K:  1.624e-06  alpha:  7.307e-02  linmin:  2.468e-05  t[s]:  10513.58
	FillingsUpdate:  mu: +0.101976837  nElectrons: 340.000000  magneticMoment: [ Abs: 41.77900  Tot: -0.00000 ]
	SubspaceRotationAdjust: set factor to 0.704
ElecMinimize: Iter: 128  F: -1894.982725333342160  |grad|_K:  1.273e-06  alpha:  8.048e-02  linmin: -1.129e-05  t[s]:  10591.24
	FillingsUpdate:  mu: +0.102012670  nElectrons: 340.000000  magneticMoment: [ Abs: 41.77783  Tot: -0.00000 ]
	SubspaceRotationAdjust: set factor to 0.894
ElecMinimize: Iter: 129  F: -1894.982772691796526  |grad|_K:  1.429e-06  alpha:  1.676e-01  linmin:  1.566e-05  t[s]:  10668.10
	FillingsUpdate:  mu: +0.102272817  nElectrons: 340.000000  magneticMoment: [ Abs: 41.77078  Tot: -0.00000 ]
	SubspaceRotationAdjust: set factor to 0.657
ElecMinimize: Iter: 130  F: -1894.982803845844046  |grad|_K:  1.997e-06  alpha:  8.903e-02  linmin:  2.183e-05  t[s]:  10744.75
	FillingsUpdate:  mu: +0.101993504  nElectrons: 340.000000  magneticMoment: [ Abs: 41.77607  Tot: +0.00000 ]
	SubspaceRotationAdjust: set factor to 0.671
ElecMinimize: Iter: 131  F: -1894.982839940873873  |grad|_K:  1.465e-06  alpha:  5.205e-02  linmin: -8.007e-06  t[s]:  10820.17
	FillingsUpdate:  mu: +0.102062873  nElectrons: 340.000000  magneticMoment: [ Abs: 41.77716  Tot: +0.00000 ]
	SubspaceRotationAdjust: set factor to 0.908
	SubspaceRotationAdjust: resetting CG because factor has changed by 7.45661
ElecMinimize: 	State modified externally: resetting search direction.
ElecMinimize: Iter: 132  F: -1894.982894421518267  |grad|_K:  1.584e-06  alpha:  1.454e-01
	FillingsUpdate:  mu: +0.102988253  nElectrons: 340.000000  magneticMoment: [ Abs: 41.76853  Tot: -0.00000 ]
	SubspaceRotationAdjust: set factor to 0.491
ElecMinimize: Iter: 133  F: -1894.982949579926299  |grad|_K:  3.276e-06  alpha:  1.266e-01  linmin: -1.170e-04  t[s]:  10989.51
	FillingsUpdate:  mu: +0.102248370  nElectrons: 340.000000  magneticMoment: [ Abs: 41.78216  Tot: -0.00000 ]
	SubspaceRotationAdjust: set factor to 0.435
ElecMinimize: Iter: 134  F: -1894.983078951479229  |grad|_K:  1.337e-06  alpha:  6.872e-02  linmin: -1.673e-05  t[s]:  11065.96
ElecMinimize: 	Predicted alpha/alphaT>3.000000, increasing alphaT to 2.061502e-01.
	FillingsUpdate:  mu: +0.101476387  nElectrons: 340.000000  magneticMoment: [ Abs: 41.77636  Tot: +0.00000 ]
	SubspaceRotationAdjust: set factor to 0.439
ElecMinimize: Iter: 135  F: -1894.983203990362199  |grad|_K:  1.222e-06  alpha:  3.998e-01  linmin: -1.063e-04  t[s]:  11173.20
	FillingsUpdate:  mu: +0.102471123  nElectrons: 340.000000  magneticMoment: [ Abs: 41.78197  Tot: +0.00000 ]
	SubspaceRotationAdjust: set factor to 0.296
ElecMinimize: Iter: 136  F: -1894.983270711277555  |grad|_K:  1.373e-06  alpha:  2.546e-01  linmin: -5.368e-07  t[s]:  11248.70
	FillingsUpdate:  mu: +0.102398165  nElectrons: 340.000000  magneticMoment: [ Abs: 41.79042  Tot: +0.00000 ]
	SubspaceRotationAdjust: set factor to 0.216
ElecMinimize: Iter: 137  F: -1894.983297064497947  |grad|_K:  9.913e-07  alpha:  7.911e-02  linmin: -2.009e-04  t[s]:  11325.63
	FillingsUpdate:  mu: +0.101847412  nElectrons: 340.000000  magneticMoment: [ Abs: 41.78411  Tot: +0.00000 ]
	SubspaceRotationAdjust: set factor to 0.251
ElecMinimize: Iter: 138  F: -1894.983333905771588  |grad|_K:  6.691e-07  alpha:  2.124e-01  linmin: -8.581e-05  t[s]:  11401.46
	FillingsUpdate:  mu: +0.102111420  nElectrons: 340.000000  magneticMoment: [ Abs: 41.78039  Tot: +0.00000 ]
	SubspaceRotationAdjust: set factor to 0.173
ElecMinimize: Iter: 139  F: -1894.983351703562903  |grad|_K:  7.725e-07  alpha:  2.274e-01  linmin: -1.438e-05  t[s]:  11479.40
	FillingsUpdate:  mu: +0.102074792  nElectrons: 340.000000  magneticMoment: [ Abs: 41.78698  Tot: +0.00000 ]
	SubspaceRotationAdjust: set factor to 0.149
ElecMinimize: Iter: 140  F: -1894.983366892946833  |grad|_K:  5.158e-07  alpha:  1.454e-01  linmin: -1.331e-05  t[s]:  11555.40
	FillingsUpdate:  mu: +0.102135720  nElectrons: 340.000000  magneticMoment: [ Abs: 41.79015  Tot: -0.00000 ]
	SubspaceRotationAdjust: set factor to 0.155
ElecMinimize: Iter: 141  F: -1894.983380294271683  |grad|_K:  4.979e-07  alpha:  2.892e-01  linmin:  4.553e-06  t[s]:  11631.91
	FillingsUpdate:  mu: +0.102084552  nElectrons: 340.000000  magneticMoment: [ Abs: 41.78666  Tot: +0.00000 ]
	SubspaceRotationAdjust: set factor to 0.129
ElecMinimize: Iter: 142  F: -1894.983390086609461  |grad|_K:  4.680e-07  alpha:  2.270e-01  linmin: -1.005e-05  t[s]:  11707.99
	FillingsUpdate:  mu: +0.101975160  nElectrons: 340.000000  magneticMoment: [ Abs: 41.78733  Tot: -0.00000 ]
	SubspaceRotationAdjust: set factor to 0.162
ElecMinimize: Iter: 143  F: -1894.983401810862460  |grad|_K:  4.496e-07  alpha:  3.072e-01  linmin: -8.421e-06  t[s]:  11786.27
	FillingsUpdate:  mu: +0.102017096  nElectrons: 340.000000  magneticMoment: [ Abs: 41.79186  Tot: +0.00000 ]
	SubspaceRotationAdjust: set factor to 0.152
ElecMinimize: Iter: 144  F: -1894.983413286973018  |grad|_K:  5.198e-07  alpha:  3.259e-01  linmin:  3.034e-05  t[s]:  11862.08
	FillingsUpdate:  mu: +0.102111105  nElectrons: 340.000000  magneticMoment: [ Abs: 41.79055  Tot: -0.00000 ]
	SubspaceRotationAdjust: set factor to 0.138
ElecMinimize: Iter: 145  F: -1894.983424790509844  |grad|_K:  4.517e-07  alpha:  2.450e-01  linmin: -1.090e-06  t[s]:  11941.14
	FillingsUpdate:  mu: +0.102145200  nElectrons: 340.000000  magneticMoment: [ Abs: 41.79081  Tot: +0.00000 ]
	SubspaceRotationAdjust: set factor to 0.163
ElecMinimize: Iter: 146  F: -1894.983438090375785  |grad|_K:  4.832e-07  alpha:  3.745e-01  linmin:  8.171e-06  t[s]:  12018.93
	FillingsUpdate:  mu: +0.102014264  nElectrons: 340.000000  magneticMoment: [ Abs: 41.79538  Tot: +0.00000 ]
	SubspaceRotationAdjust: set factor to 0.134
ElecMinimize: Iter: 147  F: -1894.983449545386520  |grad|_K:  4.986e-07  alpha:  2.818e-01  linmin:  1.792e-06  t[s]:  12097.67
	FillingsUpdate:  mu: +0.101968471  nElectrons: 340.000000  magneticMoment: [ Abs: 41.79439  Tot: -0.00000 ]
	SubspaceRotationAdjust: set factor to 0.138
ElecMinimize: Iter: 148  F: -1894.983463107615307  |grad|_K:  4.508e-07  alpha:  3.134e-01  linmin: -1.445e-06  t[s]:  12174.45
	FillingsUpdate:  mu: +0.102062742  nElectrons: 340.000000  magneticMoment: [ Abs: 41.79526  Tot: +0.00000 ]
	SubspaceRotationAdjust: set factor to 0.152
ElecMinimize: Iter: 149  F: -1894.983475854956168  |grad|_K:  4.487e-07  alpha:  3.603e-01  linmin: -2.083e-06  t[s]:  12250.45
	FillingsUpdate:  mu: +0.102069250  nElectrons: 340.000000  magneticMoment: [ Abs: 41.80064  Tot: -0.00000 ]
	SubspaceRotationAdjust: set factor to 0.131
ElecMinimize: Iter: 150  F: -1894.983486334599547  |grad|_K:  4.430e-07  alpha:  2.987e-01  linmin:  8.106e-06  t[s]:  12326.81
	FillingsUpdate:  mu: +0.102050028  nElectrons: 340.000000  magneticMoment: [ Abs: 41.80050  Tot: -0.00000 ]
	SubspaceRotationAdjust: set factor to 0.129
ElecMinimize: Iter: 151  F: -1894.983497343153431  |grad|_K:  4.199e-07  alpha:  3.223e-01  linmin: -1.792e-07  t[s]:  12402.66
	FillingsUpdate:  mu: +0.102043510  nElectrons: 340.000000  magneticMoment: [ Abs: 41.80220  Tot: -0.00000 ]
	SubspaceRotationAdjust: set factor to 0.146
ElecMinimize: Iter: 152  F: -1894.983508661894120  |grad|_K:  4.153e-07  alpha:  3.686e-01  linmin: -9.824e-07  t[s]:  12480.77
	FillingsUpdate:  mu: +0.102025610  nElectrons: 340.000000  magneticMoment: [ Abs: 41.80729  Tot: -0.00000 ]
	SubspaceRotationAdjust: set factor to 0.136
ElecMinimize: Iter: 153  F: -1894.983519146613162  |grad|_K:  4.351e-07  alpha:  3.491e-01  linmin:  1.731e-06  t[s]:  12558.58
	FillingsUpdate:  mu: +0.102037106  nElectrons: 340.000000  magneticMoment: [ Abs: 41.80701  Tot: -0.00000 ]
	SubspaceRotationAdjust: set factor to 0.125
ElecMinimize: Iter: 154  F: -1894.983529526612529  |grad|_K:  4.241e-07  alpha:  3.150e-01  linmin: -7.400e-06  t[s]:  12637.74
	FillingsUpdate:  mu: +0.101973144  nElectrons: 340.000000  magneticMoment: [ Abs: 41.81045  Tot: +0.00000 ]
	SubspaceRotationAdjust: set factor to 0.142
ElecMinimize: Iter: 155  F: -1894.983542577998151  |grad|_K:  4.528e-07  alpha:  4.166e-01  linmin:  5.522e-06  t[s]:  12714.22
	FillingsUpdate:  mu: +0.101912604  nElectrons: 340.000000  magneticMoment: [ Abs: 41.81677  Tot: +0.00000 ]
	SubspaceRotationAdjust: set factor to 0.139
ElecMinimize: Iter: 156  F: -1894.983556997359528  |grad|_K:  5.177e-07  alpha:  4.042e-01  linmin:  7.285e-06  t[s]:  12790.44
	FillingsUpdate:  mu: +0.101935185  nElectrons: 340.000000  magneticMoment: [ Abs: 41.81756  Tot: +0.00000 ]
	SubspaceRotationAdjust: set factor to 0.122
	SubspaceRotationAdjust: resetting CG because factor has changed by 0.134483
ElecMinimize: 	State modified externally: resetting search direction.
ElecMinimize: Iter: 157  F: -1894.983573022029987  |grad|_K:  5.289e-07  alpha:  3.439e-01
	FillingsUpdate:  mu: +0.101885129  nElectrons: 340.000000  magneticMoment: [ Abs: 41.82030  Tot: +0.00000 ]
	SubspaceRotationAdjust: set factor to 0.15
ElecMinimize: Iter: 158  F: -1894.983582445400771  |grad|_K:  2.764e-07  alpha:  1.933e-01  linmin: -3.941e-05  t[s]:  12955.01
	FillingsUpdate:  mu: +0.101916962  nElectrons: 340.000000  magneticMoment: [ Abs: 41.81875  Tot: -0.00000 ]
	SubspaceRotationAdjust: set factor to 0.157
ElecMinimize: Iter: 159  F: -1894.983587327746818  |grad|_K:  2.590e-07  alpha:  3.669e-01  linmin: -1.751e-05  t[s]:  13030.68
	FillingsUpdate:  mu: +0.101904608  nElectrons: 340.000000  magneticMoment: [ Abs: 41.82078  Tot: +0.00000 ]
	SubspaceRotationAdjust: set factor to 0.161
ElecMinimize: Iter: 160  F: -1894.983593118516183  |grad|_K:  2.916e-07  alpha:  4.957e-01  linmin: -1.824e-06  t[s]:  13107.49
	FillingsUpdate:  mu: +0.101943764  nElectrons: 340.000000  magneticMoment: [ Abs: 41.81856  Tot: -0.00000 ]
	SubspaceRotationAdjust: set factor to 0.146
ElecMinimize: Iter: 161  F: -1894.983599084915113  |grad|_K:  3.360e-07  alpha:  4.032e-01  linmin: -6.500e-06  t[s]:  13184.70
	FillingsUpdate:  mu: +0.101895713  nElectrons: 340.000000  magneticMoment: [ Abs: 41.82165  Tot: +0.00000 ]
	SubspaceRotationAdjust: set factor to 0.123
ElecMinimize: Iter: 162  F: -1894.983606804625879  |grad|_K:  3.529e-07  alpha:  3.925e-01  linmin: -5.259e-06  t[s]:  13261.60
	FillingsUpdate:  mu: +0.101906378  nElectrons: 340.000000  magneticMoment: [ Abs: 41.81992  Tot: -0.00000 ]
	SubspaceRotationAdjust: set factor to 0.111
ElecMinimize: Iter: 163  F: -1894.983615922087665  |grad|_K:  3.459e-07  alpha:  4.202e-01  linmin: -1.604e-06  t[s]:  13337.94
	FillingsUpdate:  mu: +0.101858565  nElectrons: 340.000000  magneticMoment: [ Abs: 41.82127  Tot: -0.00000 ]
	SubspaceRotationAdjust: set factor to 0.115
ElecMinimize: Iter: 164  F: -1894.983625534118573  |grad|_K:  3.224e-07  alpha:  4.613e-01  linmin: -3.556e-06  t[s]:  13413.81
	FillingsUpdate:  mu: +0.101811876  nElectrons: 340.000000  magneticMoment: [ Abs: 41.82141  Tot: -0.00000 ]
	SubspaceRotationAdjust: set factor to 0.123
ElecMinimize: Iter: 165  F: -1894.983634654817251  |grad|_K:  3.420e-07  alpha:  5.038e-01  linmin: -2.444e-06  t[s]:  13489.66
	FillingsUpdate:  mu: +0.101824797  nElectrons: 340.000000  magneticMoment: [ Abs: 41.82147  Tot: +0.00000 ]
	SubspaceRotationAdjust: set factor to 0.131
ElecMinimize: Iter: 166  F: -1894.983644005862516  |grad|_K:  3.442e-07  alpha:  4.591e-01  linmin:  7.667e-07  t[s]:  13569.10
	FillingsUpdate:  mu: +0.101845761  nElectrons: 340.000000  magneticMoment: [ Abs: 41.82375  Tot: -0.00000 ]
	SubspaceRotationAdjust: set factor to 0.134
ElecMinimize: Iter: 167  F: -1894.983652614528410  |grad|_K:  3.165e-07  alpha:  4.173e-01  linmin: -2.195e-06  t[s]:  13645.67
	FillingsUpdate:  mu: +0.101839631  nElectrons: 340.000000  magneticMoment: [ Abs: 41.82222  Tot: -0.00000 ]
	SubspaceRotationAdjust: set factor to 0.132
ElecMinimize: Iter: 168  F: -1894.983659799341467  |grad|_K:  3.162e-07  alpha:  4.118e-01  linmin: -5.636e-06  t[s]:  13725.33
	FillingsUpdate:  mu: +0.101774440  nElectrons: 340.000000  magneticMoment: [ Abs: 41.82444  Tot: +0.00000 ]
	SubspaceRotationAdjust: set factor to 0.129
ElecMinimize: Iter: 169  F: -1894.983667044800541  |grad|_K:  3.007e-07  alpha:  4.160e-01  linmin: -1.186e-05  t[s]:  13801.45
	FillingsUpdate:  mu: +0.101811667  nElectrons: 340.000000  magneticMoment: [ Abs: 41.82393  Tot: +0.00000 ]
	SubspaceRotationAdjust: set factor to 0.135
ElecMinimize: Iter: 170  F: -1894.983673930335954  |grad|_K:  2.962e-07  alpha:  4.369e-01  linmin:  5.866e-06  t[s]:  13877.04
	FillingsUpdate:  mu: +0.101828193  nElectrons: 340.000000  magneticMoment: [ Abs: 41.82545  Tot: -0.00000 ]
	SubspaceRotationAdjust: set factor to 0.148
ElecMinimize: Iter: 171  F: -1894.983680728601939  |grad|_K:  3.099e-07  alpha:  4.451e-01  linmin: -9.691e-07  t[s]:  13954.36
	FillingsUpdate:  mu: +0.101808712  nElectrons: 340.000000  magneticMoment: [ Abs: 41.82459  Tot: -0.00000 ]
	SubspaceRotationAdjust: set factor to 0.164
ElecMinimize: Iter: 172  F: -1894.983689152333000  |grad|_K:  3.414e-07  alpha:  5.037e-01  linmin: -6.722e-07  t[s]:  14029.65
	FillingsUpdate:  mu: +0.101802189  nElectrons: 340.000000  magneticMoment: [ Abs: 41.82423  Tot: -0.00000 ]
	SubspaceRotationAdjust: set factor to 0.184
ElecMinimize: Iter: 173  F: -1894.983699845841556  |grad|_K:  3.897e-07  alpha:  5.269e-01  linmin: -2.116e-06  t[s]:  14109.85
	FillingsUpdate:  mu: +0.101844569  nElectrons: 340.000000  magneticMoment: [ Abs: 41.82609  Tot: -0.00000 ]
	SubspaceRotationAdjust: set factor to 0.194
ElecMinimize: Iter: 174  F: -1894.983714201400517  |grad|_K:  4.645e-07  alpha:  5.428e-01  linmin: -5.322e-07  t[s]:  14187.78
	FillingsUpdate:  mu: +0.101838073  nElectrons: 340.000000  magneticMoment: [ Abs: 41.82179  Tot: -0.00000 ]
	SubspaceRotationAdjust: set factor to 0.176
ElecMinimize: Iter: 175  F: -1894.983729783515173  |grad|_K:  6.090e-07  alpha:  4.153e-01  linmin: -5.373e-06  t[s]:  14266.39
	FillingsUpdate:  mu: +0.101660565  nElectrons: 340.000000  magneticMoment: [ Abs: 41.82477  Tot: -0.00000 ]
	SubspaceRotationAdjust: set factor to 0.137
ElecMinimize: Iter: 176  F: -1894.983749048719346  |grad|_K:  6.399e-07  alpha:  2.979e-01  linmin:  9.752e-07  t[s]:  14343.54
	FillingsUpdate:  mu: +0.101641680  nElectrons: 340.000000  magneticMoment: [ Abs: 41.82149  Tot: +0.00000 ]
	SubspaceRotationAdjust: set factor to 0.146
ElecMinimize: Iter: 177  F: -1894.983774037643570  |grad|_K:  5.388e-07  alpha:  3.505e-01  linmin: -2.830e-06  t[s]:  14421.95
	FillingsUpdate:  mu: +0.101896996  nElectrons: 340.000000  magneticMoment: [ Abs: 41.82158  Tot: -0.00000 ]
	SubspaceRotationAdjust: set factor to 0.163
ElecMinimize: Iter: 178  F: -1894.983796472201448  |grad|_K:  6.165e-07  alpha:  4.438e-01  linmin:  5.233e-06  t[s]:  14499.11
	FillingsUpdate:  mu: +0.102172899  nElectrons: 340.000000  magneticMoment: [ Abs: 41.82760  Tot: -0.00000 ]
	SubspaceRotationAdjust: set factor to 0.154
ElecMinimize: Iter: 179  F: -1894.983828789231438  |grad|_K:  8.055e-07  alpha:  4.889e-01  linmin:  8.953e-06  t[s]:  14578.67
	FillingsUpdate:  mu: +0.102056351  nElectrons: 340.000000  magneticMoment: [ Abs: 41.82288  Tot: -0.00000 ]
	SubspaceRotationAdjust: set factor to 0.131
ElecMinimize: Iter: 180  F: -1894.983864624424768  |grad|_K:  7.400e-07  alpha:  3.180e-01  linmin:  6.884e-08  t[s]:  14657.24
	FillingsUpdate:  mu: +0.101850804  nElectrons: 340.000000  magneticMoment: [ Abs: 41.82616  Tot: -0.00000 ]
	SubspaceRotationAdjust: set factor to 0.151
ElecMinimize: Iter: 181  F: -1894.983897319231573  |grad|_K:  6.591e-07  alpha:  3.429e-01  linmin:  8.481e-06  t[s]:  14735.75
	FillingsUpdate:  mu: +0.101892605  nElectrons: 340.000000  magneticMoment: [ Abs: 41.83052  Tot: -0.00000 ]
	SubspaceRotationAdjust: set factor to 0.179
ElecMinimize: Iter: 182  F: -1894.983929156868044  |grad|_K:  6.645e-07  alpha:  4.217e-01  linmin:  1.342e-05  t[s]:  14815.46
	FillingsUpdate:  mu: +0.101996087  nElectrons: 340.000000  magneticMoment: [ Abs: 41.83025  Tot: +0.00000 ]
	SubspaceRotationAdjust: set factor to 0.174
ElecMinimize: Iter: 183  F: -1894.983956867611369  |grad|_K:  7.509e-07  alpha:  3.612e-01  linmin: -3.276e-06  t[s]:  14892.68
	FillingsUpdate:  mu: +0.101989632  nElectrons: 340.000000  magneticMoment: [ Abs: 41.84132  Tot: +0.00000 ]
	SubspaceRotationAdjust: set factor to 0.163
ElecMinimize: Iter: 184  F: -1894.983988137131064  |grad|_K:  7.673e-07  alpha:  3.182e-01  linmin:  9.339e-06  t[s]:  14971.00
	FillingsUpdate:  mu: +0.101987582  nElectrons: 340.000000  magneticMoment: [ Abs: 41.84863  Tot: +0.00000 ]
	SubspaceRotationAdjust: set factor to 0.182
ElecMinimize: Iter: 185  F: -1894.984031426357660  |grad|_K:  7.653e-07  alpha:  4.237e-01  linmin:  2.618e-05  t[s]:  15046.44
	FillingsUpdate:  mu: +0.102018450  nElectrons: 340.000000  magneticMoment: [ Abs: 41.85834  Tot: -0.00000 ]
	SubspaceRotationAdjust: set factor to 0.207
ElecMinimize: Iter: 186  F: -1894.984075640055380  |grad|_K:  7.512e-07  alpha:  4.359e-01  linmin:  1.761e-05  t[s]:  15123.64
	FillingsUpdate:  mu: +0.102095017  nElectrons: 340.000000  magneticMoment: [ Abs: 41.87155  Tot: +0.00000 ]
	SubspaceRotationAdjust: set factor to 0.191
ElecMinimize: Iter: 187  F: -1894.984108361714789  |grad|_K:  8.199e-07  alpha:  3.337e-01  linmin:  6.169e-06  t[s]:  15199.90
	FillingsUpdate:  mu: +0.102019995  nElectrons: 340.000000  magneticMoment: [ Abs: 41.87220  Tot: +0.00000 ]
	SubspaceRotationAdjust: set factor to 0.161
ElecMinimize: Iter: 188  F: -1894.984133945171607  |grad|_K:  6.644e-07  alpha:  2.193e-01  linmin:  9.852e-07  t[s]:  15277.95
	FillingsUpdate:  mu: +0.102075638  nElectrons: 340.000000  magneticMoment: [ Abs: 41.87818  Tot: +0.00000 ]
	SubspaceRotationAdjust: set factor to 0.191
ElecMinimize: Iter: 189  F: -1894.984160409976994  |grad|_K:  5.402e-07  alpha:  3.446e-01  linmin:  1.311e-05  t[s]:  15356.24
	FillingsUpdate:  mu: +0.102175360  nElectrons: 340.000000  magneticMoment: [ Abs: 41.88066  Tot: +0.00000 ]
	SubspaceRotationAdjust: set factor to 0.231
ElecMinimize: Iter: 190  F: -1894.984178034625529  |grad|_K:  4.826e-07  alpha:  3.476e-01  linmin:  4.445e-06  t[s]:  15433.83
	FillingsUpdate:  mu: +0.102215525  nElectrons: 340.000000  magneticMoment: [ Abs: 41.87827  Tot: -0.00000 ]
	SubspaceRotationAdjust: set factor to 0.2
ElecMinimize: Iter: 191  F: -1894.984190351788129  |grad|_K:  5.103e-07  alpha:  3.039e-01  linmin: -4.530e-06  t[s]:  15505.81
	FillingsUpdate:  mu: +0.102149600  nElectrons: 340.000000  magneticMoment: [ Abs: 41.88125  Tot: -0.00000 ]
	SubspaceRotationAdjust: set factor to 0.182
ElecMinimize: Iter: 192  F: -1894.984200015378974  |grad|_K:  4.544e-07  alpha:  2.128e-01  linmin:  2.148e-06  t[s]:  15582.87
	FillingsUpdate:  mu: +0.102078337  nElectrons: 340.000000  magneticMoment: [ Abs: 41.87876  Tot: +0.00000 ]
[...]
	SubspaceRotationAdjust: set factor to 0.503
ElecMinimize: Iter:  23  F: -1895.100566808529038  |grad|_K:  1.357e-07  alpha:  4.755e-01  linmin:  9.749e-07  t[s]: 205923.22
	FillingsUpdate:  mu: +0.106756370  nElectrons: 340.000000  magneticMoment: [ Abs: 41.52883  Tot: -0.00000 ]
	SubspaceRotationAdjust: set factor to 0.552
ElecMinimize: Iter:  24  F: -1895.100568185854627  |grad|_K:  1.277e-07  alpha:  4.296e-01  linmin: -1.630e-07  t[s]: 206003.54
	FillingsUpdate:  mu: +0.106765997  nElectrons: 340.000000  magneticMoment: [ Abs: 41.52855  Tot: -0.00000 ]
	SubspaceRotationAdjust: set factor to 0.545
ElecMinimize: Iter:  25  F: -1895.100569193125239  |grad|_K:  1.308e-07  alpha:  3.546e-01  linmin: -8.068e-07  t[s]: 206079.80
	FillingsUpdate:  mu: +0.106769011  nElectrons: 340.000000  magneticMoment: [ Abs: 41.52838  Tot: +0.00000 ]
	SubspaceRotationAdjust: set factor to 0.42
ElecMinimize: Iter:  26  F: -1895.100569795762794  |grad|_K:  1.194e-07  alpha:  2.016e-01  linmin: -7.576e-06  t[s]: 206157.46
	FillingsUpdate:  mu: +0.106791683  nElectrons: 340.000000  magneticMoment: [ Abs: 41.52807  Tot: -0.00000 ]
	SubspaceRotationAdjust: set factor to 0.44
ElecMinimize: Iter:  27  F: -1895.100570477431347  |grad|_K:  9.138e-08  alpha:  2.744e-01  linmin: -9.679e-06  t[s]: 206235.96
	FillingsUpdate:  mu: +0.106756679  nElectrons: 340.000000  magneticMoment: [ Abs: 41.52759  Tot: +0.00000 ]
	SubspaceRotationAdjust: set factor to 0.541
ElecMinimize: Iter:  28  F: -1895.100571042182310  |grad|_K:  7.981e-08  alpha:  3.883e-01  linmin:  3.635e-06  t[s]: 206313.83
	FillingsUpdate:  mu: +0.106744198  nElectrons: 340.000000  magneticMoment: [ Abs: 41.52729  Tot: +0.00000 ]
	SubspaceRotationAdjust: set factor to 0.582
ElecMinimize: Iter:  29  F: -1895.100571476019695  |grad|_K:  8.458e-08  alpha:  3.912e-01  linmin:  3.878e-06  t[s]: 206390.28
	FillingsUpdate:  mu: +0.106771451  nElectrons: 340.000000  magneticMoment: [ Abs: 41.52717  Tot: +0.00000 ]
	SubspaceRotationAdjust: set factor to 0.476
ElecMinimize: Iter:  30  F: -1895.100571759393233  |grad|_K:  8.785e-08  alpha:  2.279e-01  linmin:  2.767e-06  t[s]: 206465.60
ElecMinimize: Converged (|Delta F|<1.000000e-06 for 5 iters).
Setting wave functions to eigenvectors of Hamiltonian

# Ionic positions in lattice coordinates:
ion Ni   0.008401020518142  -0.244724143109330   0.199704574745862 1
ion Ni   0.000263479425119   0.303031632806251   0.189305111356919 1
ion Ni   0.250000000000000   0.250000000000000  -0.150000000000000 0
ion Ni  -0.250000000000000   0.250000000000000  -0.150000000000000 0
ion Co   0.504528227195309   0.002350911606004   0.175756154076342 1
ion Co   0.250000000000000   0.750000000000000  -0.150000000000000 0
ion Cr   0.503769158566308   0.509823020800196   0.175940335695996 1
ion Cr  -0.250000000000000   0.750000000000000  -0.150000000000000 0
ion V   0.234260796732439   0.252901741620243   0.067085713773427 1
ion V   0.235252394603202   0.752753872058359   0.063873575575235 1
ion V  -0.261506421972026   0.252985995438841   0.063039189826335 1
ion V  -0.257233258580516   0.753023700850268   0.062548655982400 1
ion V   0.000000000000000   0.000000000000000  -0.050000000000000 0
ion V   0.500000000000000   0.000000000000000  -0.050000000000000 0
ion V   0.000000000000000   0.500000000000000  -0.050000000000000 0
ion V   0.500000000000000   0.500000000000000  -0.050000000000000 0
ion O   0.283445544302006   0.256240875999157   0.155894728928130 1
ion O   0.283274453718671   0.757478754593770   0.158995645800190 1
ion O  -0.287103414919012   0.254073194197717   0.162861820480862 1
ion O  -0.266188741393489   0.755831334203122   0.160802223246883 1
ion O  -0.004009463940924   0.013978568037023   0.051180983981180 1
ion O   0.486008689886792   0.010276429030281   0.051009891845411 1
ion O  -0.005240406695187   0.492782323340681   0.050798719753503 1
ion O   0.483254300901992   0.492547404552315   0.050099776415909 1
ion O   0.250000000000000   0.250000000000000  -0.050000000000000 0
ion O   0.250000000000000   0.750000000000000  -0.050000000000000 0
ion O  -0.250000000000000   0.250000000000000  -0.050000000000000 0
ion O  -0.250000000000000   0.750000000000000  -0.050000000000000 0
ion O   0.000000000000000   0.000000000000000  -0.150000000000000 0
ion O   0.500000000000000   0.000000000000000  -0.150000000000000 0
ion O   0.000000000000000   0.500000000000000  -0.150000000000000 0
ion O   0.500000000000000   0.500000000000000  -0.150000000000000 0
ion O   0.089089283508564  -0.146541389744592   0.269339784755696 1

# Forces in Lattice coordinates:
force Ni   0.009214746843535   0.009728433390736   0.067540428403165 1
force Ni   0.001458260894519  -0.007201678038968   0.012073199417928 1
force Ni  -0.010725526963699   0.000493276220213  -0.065189331306509 0
force Ni   0.004842861335814   0.000622324160037  -0.011279778591025 0
force Co  -0.004071143254516  -0.018635870120168   0.028549279688480 1
force Co   0.011980830203565  -0.000629178861742  -0.791331523582012 0
force Cr  -0.012393585572844   0.008625933775808  -0.027695515561002 1
force Cr   0.037304988821012  -0.000309441446144  -1.955281651814111 0
force V  -0.011049992038100  -0.002763975041169  -0.070041099800061 1
force V  -0.004658254954786  -0.002229450929906   0.003611477264345 1
force V   0.005461905408784   0.000000809459492  -0.003258464208120 1
force V  -0.001862163849448  -0.001716364221066  -0.000560358056662 1
force V   0.017545399208020   0.056120985562398  -0.053970756302769 0
force V  -0.037010420321381   0.081538532246592   0.076106888601024 0
force V   0.016323282950156  -0.043940634515366  -0.059293844885171 0
force V  -0.043609618614006  -0.075393550703793   0.031571794832119 0
force O   0.008465983022211   0.000686332689233   0.019214736302127 1
force O   0.012972432237427   0.003283181863766   0.000499642279569 1
force O   0.014502091349399   0.010142677491130   0.040117169463982 1
force O  -0.018957726563207  -0.000671762650903   0.000236132654541 1
force O   0.008056631143560  -0.000593568850536  -0.002721265344755 1
force O  -0.002463635176744  -0.006347300252562   0.030647457179926 1
force O   0.002097732728625  -0.001032758052342   0.001082020627824 1
force O  -0.008299795580601   0.001178216926670   0.009824578495425 1
force O  -0.003233703837300   0.002390854625335   0.322615202214059 0
force O  -0.017309708997352   0.001905976785081   0.453739273703112 0
force O  -0.016420878292680   0.002734790735668   0.128407573696971 0
force O  -0.005227582036340   0.001235679476373   1.340328125550144 0
force O  -0.009766180230748   0.035033352204035   0.073351891488196 0
force O   0.029565072886958   0.026238747506365   0.174312877742326 0
force O  -0.009728350818642  -0.037403384968074   0.065725434375034 0
force O   0.030901367870040  -0.026810365603129   0.162304556050927 0
force O  -0.002444193730825  -0.003710109166082  -0.093907976773096 1

# Energy components:
   Eewald =     4296.3446940401690881
       EH =     5998.1343071465917092
     Eloc =   -12364.6202421948237316
      Enl =     -464.3304065070777824
   Epulay =       -0.0004828466650297
      Exc =     -236.5830184571202039
       KE =      874.6262150464899605
        U =        1.3293069599115848
-------------------------------------
     Etot =    -1895.0996268125243205
       TS =        0.0009449468689518
-------------------------------------
        F =    -1895.1005717593932332

IonicMinimize: Iter:  50  F: -1895.100571759393233  |grad|_K:  7.688e-04  alpha:  1.000e+00  linmin:  2.010e-02  t[s]: 206476.96

#--- Lowdin population analysis ---
# oxidation-state Ni +3.551 +3.563 +3.784 +3.820
# magnetic-moments Ni +0.152 +0.735 -1.013 -1.046
# oxidation-state Co +1.280 +1.287
# magnetic-moments Co -2.730 -2.779
# oxidation-state Cr +2.915 +2.907
# magnetic-moments Cr +4.016 +3.978
# oxidation-state V +1.308 +1.074 +1.121 +1.097 +1.070 +1.071 +1.071 +1.071
# magnetic-moments V +2.065 +2.825 -2.714 -2.828 -2.676 +2.693 -2.671 +2.691
# oxidation-state O -0.807 -0.796 -0.880 -0.846 -0.911 -0.941 -0.913 -0.931 -0.892 -0.950 -0.886 -0.924 -0.874 -0.869 -0.874 -0.870 -0.422
# magnetic-moments O -0.099 -0.199 -0.013 -0.015 +0.015 -0.005 +0.021 +0.011 -0.080 -0.048 -0.083 +0.027 -0.219 -0.257 -0.220 -0.256 +0.826


-------- Electronic minimization -----------
	FillingsUpdate:  mu: +0.100558320  nElectrons: 340.000000  magneticMoment: [ Abs: 41.52689  Tot: -0.00000 ]
ElecMinimize: Iter:   0  F: -1894.971466165804941  |grad|_K:  5.812e-05  alpha:  1.000e+00
	FillingsUpdate:  mu: +0.108827191  nElectrons: 340.000000  magneticMoment: [ Abs: 41.55537  Tot: +0.00000 ]
	SubspaceRotationAdjust: set factor to 0.541
ElecMinimize: Iter:   1  F: -1895.090632412911873  |grad|_K:  1.163e-05  alpha:  2.025e-01  linmin: -1.843e-04  t[s]: 206580.44
	FillingsUpdate:  mu: +0.104256656  nElectrons: 340.000000  magneticMoment: [ Abs: 41.53068  Tot: -0.00000 ]
	SubspaceRotationAdjust: set factor to 0.653
ElecMinimize: Iter:   2  F: -1895.097258772169880  |grad|_K:  5.604e-06  alpha:  2.804e-01  linmin: -3.768e-04  t[s]: 206658.33
	FillingsUpdate:  mu: +0.104602474  nElectrons: 340.000000  magneticMoment: [ Abs: 41.53164  Tot: +0.00000 ]
	SubspaceRotationAdjust: set factor to 0.401
ElecMinimize: Iter:   3  F: -1895.098483713772566  |grad|_K:  6.350e-06  alpha:  2.142e-01  linmin:  4.566e-04  t[s]: 206735.60
	FillingsUpdate:  mu: +0.107581313  nElectrons: 340.000000  magneticMoment: [ Abs: 41.53163  Tot: -0.00000 ]
	SubspaceRotationAdjust: set factor to 0.412
ElecMinimize: Iter:   4  F: -1895.099496272182705  |grad|_K:  3.261e-06  alpha:  1.520e-01  linmin: -5.404e-05  t[s]: 206815.60
	FillingsUpdate:  mu: +0.106234104  nElectrons: 340.000000  magneticMoment: [ Abs: 41.52456  Tot: +0.00000 ]
	SubspaceRotationAdjust: set factor to 0.54
ElecMinimize: Iter:   5  F: -1895.100188013400611  |grad|_K:  2.215e-06  alpha:  3.714e-01  linmin: -9.908e-06  t[s]: 206893.24
	FillingsUpdate:  mu: +0.105873162  nElectrons: 340.000000  magneticMoment: [ Abs: 41.52374  Tot: -0.00000 ]
	SubspaceRotationAdjust: set factor to 0.407
ElecMinimize: Iter:   6  F: -1895.100405754414624  |grad|_K:  2.165e-06  alpha:  2.476e-01  linmin:  1.390e-06  t[s]: 206969.01
	FillingsUpdate:  mu: +0.106819141  nElectrons: 340.000000  magneticMoment: [ Abs: 41.52426  Tot: -0.00000 ]
	SubspaceRotationAdjust: set factor to 0.285
ElecMinimize: Iter:   7  F: -1895.100543698764341  |grad|_K:  9.752e-07  alpha:  1.715e-01  linmin: -2.058e-05  t[s]: 207042.22
	FillingsUpdate:  mu: +0.106772070  nElectrons: 340.000000  magneticMoment: [ Abs: 41.52394  Tot: +0.00000 ]
	SubspaceRotationAdjust: set factor to 0.325
ElecMinimize: Iter:   8  F: -1895.100598865775055  |grad|_K:  6.192e-07  alpha:  3.326e-01  linmin:  3.554e-06  t[s]: 207121.72
	FillingsUpdate:  mu: +0.106705980  nElectrons: 340.000000  magneticMoment: [ Abs: 41.52376  Tot: +0.00000 ]
	SubspaceRotationAdjust: set factor to 0.36
ElecMinimize: Iter:   9  F: -1895.100618208427477  |grad|_K:  3.734e-07  alpha:  2.898e-01  linmin:  3.552e-07  t[s]: 207199.76
	FillingsUpdate:  mu: +0.106721636  nElectrons: 340.000000  magneticMoment: [ Abs: 41.52373  Tot: -0.00000 ]
	SubspaceRotationAdjust: set factor to 0.369
ElecMinimize: Iter:  10  F: -1895.100625983301597  |grad|_K:  2.593e-07  alpha:  3.202e-01  linmin: -6.985e-06  t[s]: 207276.27
	FillingsUpdate:  mu: +0.106683586  nElectrons: 340.000000  magneticMoment: [ Abs: 41.52369  Tot: -0.00000 ]
	SubspaceRotationAdjust: set factor to 0.316
ElecMinimize: Iter:  11  F: -1895.100629579738552  |grad|_K:  2.055e-07  alpha:  3.070e-01  linmin:  1.703e-05  t[s]: 207352.59
	FillingsUpdate:  mu: +0.106714685  nElectrons: 340.000000  magneticMoment: [ Abs: 41.52369  Tot: +0.00000 ]
	SubspaceRotationAdjust: set factor to 0.269
ElecMinimize: Iter:  12  F: -1895.100631673730959  |grad|_K:  1.487e-07  alpha:  2.852e-01  linmin: -1.169e-05  t[s]: 207426.66
	FillingsUpdate:  mu: +0.106704510  nElectrons: 340.000000  magneticMoment: [ Abs: 41.52364  Tot: +0.00000 ]
	SubspaceRotationAdjust: set factor to 0.302
ElecMinimize: Iter:  13  F: -1895.100633039505055  |grad|_K:  1.095e-07  alpha:  3.544e-01  linmin:  2.432e-06  t[s]: 207504.56
	FillingsUpdate:  mu: +0.106694511  nElectrons: 340.000000  magneticMoment: [ Abs: 41.52354  Tot: -0.00000 ]
	SubspaceRotationAdjust: set factor to 0.347
ElecMinimize: Iter:  14  F: -1895.100633775965889  |grad|_K:  8.273e-08  alpha:  3.528e-01  linmin: -1.206e-06  t[s]: 207581.27
	FillingsUpdate:  mu: +0.106700482  nElectrons: 340.000000  magneticMoment: [ Abs: 41.52346  Tot: +0.00000 ]
	SubspaceRotationAdjust: set factor to 0.339
ElecMinimize: Iter:  15  F: -1895.100634167104545  |grad|_K:  6.548e-08  alpha:  3.281e-01  linmin: -2.339e-06  t[s]: 207660.97
	FillingsUpdate:  mu: +0.106692029  nElectrons: 340.000000  magneticMoment: [ Abs: 41.52339  Tot: +0.00000 ]
	SubspaceRotationAdjust: set factor to 0.308
ElecMinimize: Iter:  16  F: -1895.100634400546824  |grad|_K:  5.139e-08  alpha:  3.126e-01  linmin: -5.456e-06  t[s]: 207738.83
	FillingsUpdate:  mu: +0.106694525  nElectrons: 340.000000  magneticMoment: [ Abs: 41.52331  Tot: +0.00000 ]
	SubspaceRotationAdjust: set factor to 0.322
ElecMinimize: Iter:  17  F: -1895.100634565959353  |grad|_K:  4.368e-08  alpha:  3.596e-01  linmin:  2.312e-06  t[s]: 207816.34
	FillingsUpdate:  mu: +0.106690186  nElectrons: 340.000000  magneticMoment: [ Abs: 41.52322  Tot: -0.00000 ]
	SubspaceRotationAdjust: set factor to 0.384
ElecMinimize: Iter:  18  F: -1895.100634699029570  |grad|_K:  4.064e-08  alpha:  4.006e-01  linmin:  5.110e-06  t[s]: 207895.46
ElecMinimize: Converged (|Delta F|<1.000000e-06 for 5 iters).
Setting wave functions to eigenvectors of Hamiltonian

# Ionic positions in lattice coordinates:
ion Ni   0.008624118752110  -0.244730213004077   0.199677285649688 1
ion Ni   0.001092132241141   0.301516920701314   0.189245155271226 1
ion Ni   0.250000000000000   0.250000000000000  -0.150000000000000 0
ion Ni  -0.250000000000000   0.250000000000000  -0.150000000000000 0
ion Co   0.504925027171770   0.002217099363695   0.175854329025252 1
ion Co   0.250000000000000   0.750000000000000  -0.150000000000000 0
ion Cr   0.503548783568843   0.510546250244118   0.175658078616308 1
ion Cr  -0.250000000000000   0.750000000000000  -0.150000000000000 0
ion V   0.233803837226400   0.252849964831961   0.066901208527376 1
ion V   0.234715055894049   0.752850526375559   0.063890720493705 1
ion V  -0.261646277251285   0.253204901881525   0.063000889889340 1
ion V  -0.257859969958232   0.753176725612020   0.062519049512701 1
ion V   0.000000000000000   0.000000000000000  -0.050000000000000 0
ion V   0.500000000000000   0.000000000000000  -0.050000000000000 0
ion V   0.000000000000000   0.500000000000000  -0.050000000000000 0
ion V   0.500000000000000   0.500000000000000  -0.050000000000000 0
ion O   0.284495010921730   0.256275729201331   0.155766339302372 1
ion O   0.283431978637803   0.758115620247793   0.158877929192350 1
ion O  -0.286509925814933   0.254525303369029   0.162930128781218 1
ion O  -0.266807933384331   0.756110618591671   0.160759816279343 1
ion O  -0.003981049136694   0.014107527649367   0.051112384091087 1
ion O   0.485695248494052   0.010069448989980   0.051030404786122 1
ion O  -0.005662972868161   0.493076250757093   0.050717898791946 1
ion O   0.482568831042355   0.492692536090304   0.050086493576315 1
ion O   0.250000000000000   0.250000000000000  -0.050000000000000 0
ion O   0.250000000000000   0.750000000000000  -0.050000000000000 0
ion O  -0.250000000000000   0.250000000000000  -0.050000000000000 0
ion O  -0.250000000000000   0.750000000000000  -0.050000000000000 0
ion O   0.000000000000000   0.000000000000000  -0.150000000000000 0
ion O   0.500000000000000   0.000000000000000  -0.150000000000000 0
ion O   0.000000000000000   0.500000000000000  -0.150000000000000 0
ion O   0.500000000000000   0.500000000000000  -0.150000000000000 0
ion O   0.090460939297403  -0.148042133632238   0.269104527093887 1

# Forces in Lattice coordinates:
force Ni  -0.006079517622480  -0.009811103087964  -0.039283482930584 1
force Ni   0.004321597649782   0.003478779707410  -0.017871946795880 1
force Ni  -0.011889728582823   0.000542775086225  -0.059459682286162 0
force Ni   0.006012671734514   0.000666693284802  -0.004432857534669 0
force Co  -0.000371023358547  -0.008653376620955   0.034883209846024 1
force Co   0.010761050272286  -0.000668999911334  -0.785280686685129 0
force Cr  -0.003772282490696  -0.002204274919835  -0.000208702002419 1
force Cr   0.038013504581104  -0.000313509826965  -1.954918967185960 0
force V  -0.003567869281458  -0.000456093805074  -0.033228270989202 1
force V  -0.003487880515549  -0.001428456552522  -0.012816346131485 1
force V   0.002318354827854  -0.001962834133601  -0.002532616512466 1
force V   0.001163846951612  -0.001593014443621  -0.018054617574739 1
force V   0.017515175069469   0.055419985619217  -0.069754853306360 0
force V  -0.037813116722544   0.080450475635092   0.071122927201321 0
force V   0.015785991921642  -0.042554462724439  -0.073405977982437 0
force V  -0.044930505712463  -0.074213062976157   0.023223559987278 0
force O   0.000386781406104  -0.000587952682607   0.015544084789347 1
force O   0.003498998330604  -0.001048972580170  -0.003206034545925 1
force O   0.008150854668460   0.008614943530896   0.038860388339965 1
force O  -0.004281216274472  -0.001499108987275   0.010589583578750 1
force O   0.003995153397965  -0.001677311674539  -0.001693919115705 1
force O  -0.001532886649231  -0.003661545129104   0.015636277071724 1
force O   0.002702605699499  -0.002452102791079   0.004199853175440 1
force O  -0.005837759229624  -0.000251442720490   0.003296287886768 1
force O  -0.004108473599580   0.002470162764725   0.326333450584227 0
force O  -0.018224620927964   0.001821068405473   0.449158410487672 0
force O  -0.016448064297498   0.002905687839053   0.126128963614663 0
force O  -0.005218767496670   0.001409171677103   1.336789482976052 0
force O  -0.009827497518567   0.035349572391058   0.074305705746635 0
force O   0.029621200337037   0.026403138323609   0.175343508031158 0
force O  -0.009655051063353  -0.037892327316185   0.066331030872453 0
force O   0.031106841200734  -0.026951094581778   0.163179699338958 0
force O   0.003722162688845   0.004439110112828   0.010822444335567 1

# Energy components:
   Eewald =     4298.3469358685615589
       EH =     6000.1448904324770410
     Eloc =   -12368.6373523086294881
      Enl =     -464.3297137047545675
   Epulay =       -0.0004828466650297
      Exc =     -236.5849254569538118
       KE =      874.6312435210988951
        U =        1.3297155695330503
-------------------------------------
     Etot =    -1895.0996889253324298
       TS =        0.0009457736971499
-------------------------------------
        F =    -1895.1006346990295697

IonicMinimize: Iter:  51  F: -1895.100634699029570  |grad|_K:  4.116e-04  alpha:  1.000e+00  linmin: -7.542e-03  t[s]: 207907.35
IonicMinimize: Converged (|Delta F|<1.000000e-04 for 3 iters).

#--- Lowdin population analysis ---
# oxidation-state Ni +3.553 +3.562 +3.784 +3.820
# magnetic-moments Ni +0.154 +0.735 -1.013 -1.046
# oxidation-state Co +1.280 +1.287
# magnetic-moments Co -2.730 -2.779
# oxidation-state Cr +2.913 +2.907
# magnetic-moments Cr +4.015 +3.978
# oxidation-state V +1.308 +1.075 +1.118 +1.096 +1.072 +1.071 +1.073 +1.071
# magnetic-moments V +2.065 +2.823 -2.719 -2.828 -2.674 +2.693 -2.668 +2.691
# oxidation-state O -0.808 -0.795 -0.880 -0.847 -0.910 -0.941 -0.913 -0.931 -0.892 -0.950 -0.886 -0.923 -0.874 -0.869 -0.875 -0.870 -0.422
# magnetic-moments O -0.098 -0.200 -0.012 -0.016 +0.015 -0.005 +0.021 +0.012 -0.079 -0.048 -0.083 +0.027 -0.219 -0.256 -0.220 -0.256 +0.827


Dumping 'run.ionpos' ... done
Dumping 'run.lattice' ... done
Dumping 'run.Ecomponents' ... done
End date and time: Mon May 12 03:44:53 2025  (Duration: 2-9:45:10.45)
Done!
