
*************** JDFTx 1.7.0  ***************

Start date and time: Fri May  2 00:46:41 2025
Executable /data2/jt577/jdftx_eat_withLibXC/build/jdftx with command-line: -i /data2/jt577/March_2025/pure_RSO/ionic_relax_noMagnetism/pure_CoO/runs/calc_20250501-224536/OH/OH.in
Running on hosts (process indices):  node3220 (0-8)
Divided in process groups (process indices):  0 (0)  1 (1)  2 (2)  3 (3)  4 (4)  5 (5)  6 (6)  7 (7)  8 (8)
Resource initialization completed at t[s]:      0.00
Run totals: 9 processes, 36 threads, 0 GPUs


Input parsed successfully to the following command list (including defaults):

add-mix 
basis kpoint-dependent
coords-type Lattice
core-overlap-check vector
coulomb-interaction Periodic
davidson-band-ratio 1.1
dump End IonicPositions Lattice Ecomponents
dump-name OH.$VAR
elec-cutoff 30
elec-eigen-algo Davidson
elec-ex-corr gga-x-rpbe gga-c-pbe
elec-smearing Fermi 0.001
electronic-minimize  \
	dirUpdateScheme      FletcherReeves \
	linminMethod         DirUpdateRecommended \
	nIterations          1000 \
	history              15 \
	knormThreshold       0 \
	energyDiffThreshold  1e-06 \
	nEnergyDiff          5 \
	alphaTstart          1 \
	alphaTmin            1e-10 \
	updateTestStepSize   yes \
	alphaTreduceFactor   0.1 \
	alphaTincreaseFactor 3 \
	nAlphaAdjustMax      3 \
	wolfeEnergy          0.0001 \
	wolfeGradient        0.9 \
	fdTest               no
exchange-regularization WignerSeitzTruncated
fluid None
fluid-ex-corr (null) lda-PZ
fluid-gummel-loop 10 1.000000e-05
fluid-minimize  \
	dirUpdateScheme      PolakRibiere \
	linminMethod         DirUpdateRecommended \
	nIterations          100 \
	history              15 \
	knormThreshold       0 \
	energyDiffThreshold  0 \
	nEnergyDiff          2 \
	alphaTstart          1 \
	alphaTmin            1e-10 \
	updateTestStepSize   yes \
	alphaTreduceFactor   0.1 \
	alphaTincreaseFactor 3 \
	nAlphaAdjustMax      3 \
	wolfeEnergy          0.0001 \
	wolfeGradient        0.9 \
	fdTest               no
fluid-solvent H2O 55.338 ScalarEOS \
	epsBulk 78.4 \
	pMol 0.92466 \
	epsInf 1.77 \
	Pvap 1.06736e-10 \
	sigmaBulk 4.62e-05 \
	Rvdw 2.61727 \
	Res 1.42 \
	tauNuc 343133 \
	poleEl 15 7 1
forces-output-coords Positions
initial-state OH.$VAR
ion Co  0.000000000000000   0.000000000000000   0.150000000000000 0
ion Co  0.500000000000000   0.000000000000000   0.150000000000000 0
ion Co  0.000000000000000   0.500000000000000   0.150000000000000 0
ion Co  0.500000000000000   0.500000000000000   0.150000000000000 0
ion Co  0.250000000000000   0.250000000000000   0.050000000000000 0
ion Co  0.250000000000000   0.750000000000000   0.050000000000000 0
ion Co -0.250000000000000   0.250000000000000   0.050000000000000 0
ion Co -0.250000000000000   0.750000000000000   0.050000000000000 0
ion Co  0.000000000000000   0.000000000000000  -0.050000000000000 0
ion Co  0.500000000000000   0.000000000000000  -0.050000000000000 0
ion Co  0.000000000000000   0.500000000000000  -0.050000000000000 0
ion Co  0.500000000000000   0.500000000000000  -0.050000000000000 0
ion Co  0.250000000000000   0.250000000000000  -0.150000000000000 0
ion Co  0.250000000000000   0.750000000000000  -0.150000000000000 0
ion Co -0.250000000000000   0.250000000000000  -0.150000000000000 0
ion Co -0.250000000000000   0.750000000000000  -0.150000000000000 0
ion O  0.250000000000000   0.250000000000000   0.150000000000000 0
ion O  0.250000000000000   0.750000000000000   0.150000000000000 0
ion O -0.250000000000000   0.250000000000000   0.150000000000000 0
ion O -0.250000000000000   0.750000000000000   0.150000000000000 0
ion O  0.000000000000000   0.000000000000000   0.050000000000000 0
ion O  0.500000000000000   0.000000000000000   0.050000000000000 0
ion O  0.000000000000000   0.500000000000000   0.050000000000000 0
ion O  0.500000000000000   0.500000000000000   0.050000000000000 0
ion O  0.250000000000000   0.250000000000000  -0.050000000000000 0
ion O  0.250000000000000   0.750000000000000  -0.050000000000000 0
ion O -0.250000000000000   0.250000000000000  -0.050000000000000 0
ion O -0.250000000000000   0.750000000000000  -0.050000000000000 0
ion O  0.000000000000000   0.000000000000000  -0.150000000000000 0
ion O  0.500000000000000   0.000000000000000  -0.150000000000000 0
ion O  0.000000000000000   0.500000000000000  -0.150000000000000 0
ion O  0.500000000000000   0.500000000000000  -0.150000000000000 0
ion O  0.000000000000000   0.000000000000000   0.230000000000000 1
ion H  0.100000000000000   0.100000000000000   0.250000000000000 1
ion-species SG15/$ID_ONCV_PBE.upf
ion-width 0
ionic-minimize  \
	dirUpdateScheme      L-BFGS \
	linminMethod         DirUpdateRecommended \
	nIterations          1000 \
	history              15 \
	knormThreshold       0.0001 \
	energyDiffThreshold  0.0001 \
	nEnergyDiff          3 \
	alphaTstart          1 \
	alphaTmin            1e-10 \
	updateTestStepSize   yes \
	alphaTreduceFactor   0.1 \
	alphaTincreaseFactor 3 \
	nAlphaAdjustMax      3 \
	wolfeEnergy          0.0001 \
	wolfeGradient        0.9 \
	fdTest               no
kpoint   0.500000000000   0.500000000000   0.500000000000  1.00000000000000
kpoint-folding 3 3 1 
latt-move-scale 1 1 1
latt-scale 1 1 1 
lattice  \
	   8.010000000000000    8.010000000000000    0.000000000000000  \
	   8.010000000000000   -8.010000000000000    0.000000000000000  \
	   0.000000000000000    0.000000000000000   40.049999999999997 
lattice-minimize  \
	dirUpdateScheme      L-BFGS \
	linminMethod         DirUpdateRecommended \
	nIterations          0 \
	history              15 \
	knormThreshold       0 \
	energyDiffThreshold  1e-06 \
	nEnergyDiff          2 \
	alphaTstart          1 \
	alphaTmin            1e-10 \
	updateTestStepSize   yes \
	alphaTreduceFactor   0.1 \
	alphaTincreaseFactor 3 \
	nAlphaAdjustMax      3 \
	wolfeEnergy          0.0001 \
	wolfeGradient        0.9 \
	fdTest               no
lcao-params -1 1e-06 0.001
pcm-variant GLSSA13
spintype no-spin
subspace-rotation-factor 1 yes
symmetries none
symmetry-threshold 0.0001


Applied RMS atom displacement 0 bohrs to make symmetries exact.

---------- Initializing the Grid ----------
R = 
[         8.01         8.01            0  ]
[         8.01        -8.01            0  ]
[            0            0        40.05  ]
unit cell volume = 5139.22
G =
[   0.392209   0.392209         -0  ]
[   0.392209  -0.392209         -0  ]
[         -0         -0   0.156884  ]
Minimum fftbox size, Smin = [  56  56  200  ]
Chosen fftbox size, S = [  56  56  200  ]

---------- Exchange Correlation functional ----------
Initialized LibXC exchange functional 'Hammer, Hansen, and Norskov'
Initialized LibXC correlation functional 'Perdew, Burke & Ernzerhof'

---------- Setting up pseudopotentials ----------
Width of ionic core gaussian charges (only for fluid interactions / plotting) set to 0

Reading pseudopotential file '/data2/jt577/jdftx_eat_withLibXC/build/pseudopotentials/SG15/Co_ONCV_PBE.upf':
  'Co' pseudopotential, 'PBE' functional
  Generated using ONCVPSP code by D. R. Hamann
  Author: Martin Schlipf and Francois Gygi  Date: 150915.
  17 valence electrons, 4 orbitals, 6 projectors, 1388 radial grid points, with lMax = 2
  Transforming local potential to a uniform radial grid of dG=0.02 with 1355 points.
  Transforming nonlocal projectors to a uniform radial grid of dG=0.02 with 528 points.
    3S    l: 0   occupation:  2.0   eigenvalue: -3.763303
    3P    l: 1   occupation:  6.0   eigenvalue: -2.412101
    4S    l: 0   occupation:  2.0   eigenvalue: -0.201022
    3D    l: 2   occupation:  7.0   eigenvalue: -0.301498
  Transforming atomic orbitals to a uniform radial grid of dG=0.02 with 528 points.
  Core radius for overlap checks: 1.94 bohrs.
  Reading pulay file /data2/jt577/jdftx_eat_withLibXC/build/pseudopotentials/SG15/Co_ONCV_PBE.pulay ... using dE_dnG = -9.787391e-05 computed for Ecut = 30.

Reading pseudopotential file '/data2/jt577/jdftx_eat_withLibXC/build/pseudopotentials/SG15/O_ONCV_PBE.upf':
  'O' pseudopotential, 'PBE' functional
  Generated using ONCVPSP code by D. R. Hamann
  Author: Martin Schlipf and Francois Gygi  Date: 150915.
  6 valence electrons, 2 orbitals, 4 projectors, 936 radial grid points, with lMax = 1
  Transforming local potential to a uniform radial grid of dG=0.02 with 1355 points.
  Transforming nonlocal projectors to a uniform radial grid of dG=0.02 with 528 points.
    2S    l: 0   occupation:  2.0   eigenvalue: -0.880572
    2P    l: 1   occupation:  4.0   eigenvalue: -0.331869
  Transforming atomic orbitals to a uniform radial grid of dG=0.02 with 528 points.
  Core radius for overlap checks: 1.29 bohrs.
  Reading pulay file /data2/jt577/jdftx_eat_withLibXC/build/pseudopotentials/SG15/O_ONCV_PBE.pulay ... using dE_dnG = -8.209514e-03 computed for Ecut = 30.

Reading pseudopotential file '/data2/jt577/jdftx_eat_withLibXC/build/pseudopotentials/SG15/H_ONCV_PBE.upf':
  'H' pseudopotential, 'PBE' functional
  Generated using ONCVPSP code by D. R. Hamann
  Author: Martin Schlipf and Francois Gygi  Date: 150915.
  1 valence electrons, 1 orbitals, 2 projectors, 1166 radial grid points, with lMax = 0
  Transforming local potential to a uniform radial grid of dG=0.02 with 1355 points.
  Transforming nonlocal projectors to a uniform radial grid of dG=0.02 with 528 points.
    1S    l: 0   occupation:  1.0   eigenvalue: -0.238602
  Transforming atomic orbitals to a uniform radial grid of dG=0.02 with 528 points.
  Core radius for overlap checks: 1.01 bohrs.
  Reading pulay file /data2/jt577/jdftx_eat_withLibXC/build/pseudopotentials/SG15/H_ONCV_PBE.pulay ... using dE_dnG = -8.245991e-05 computed for Ecut = 30.

Initialized 3 species with 34 total atoms.

Folded 1 k-points by 3x3x1 to 9 k-points.

---------- Setting up k-points, bands, fillings ----------
No reducable k-points. 
Computing the number of bands and number of electrons
Calculating initial fillings.
nElectrons: 375.000000   nBands: 229   nStates: 9

----- Setting up reduced wavefunction bases (one per k-point) -----
average nbasis = 40341.333 , ideal nbasis = 40334.198

---------- Setting up ewald sum ----------
Optimum gaussian width for ewald sums = 3.824982 bohr.
Real space sum over 605 unit cells with max indices [  5  5  2  ]
Reciprocal space sum over 5915 terms with max indices [  6  6  17  ]

---------- Allocating electronic variables ----------
Initializing wave functions:  linear combination of atomic orbitals
Co pseudo-atom occupations:   s ( 2 0 )  p ( 6 )  d ( 9 )
O pseudo-atom occupations:   s ( 2 )  p ( 4 )
H pseudo-atom occupations:   s ( 1 )
	FillingsUpdate:  mu: -0.357456522  nElectrons: 375.000000
LCAOMinimize: Iter:   0  F: -2399.6001681716024905  |grad|_K:  5.528e-02  alpha:  1.000e+00
LCAOMinimize: 	Step increased F by 4.827883e+02, reducing alpha to 4.314602e-02.
LCAOMinimize: 	Step increased F by 7.912672e+01, reducing alpha to 4.314602e-03.
	FillingsUpdate:  mu: -0.195392105  nElectrons: 375.000000
LCAOMinimize: Iter:   1  F: -2404.4071918872787137  |grad|_K:  2.862e-02  alpha:  4.315e-03  linmin: -1.473e-01  cgtest:  7.511e-01  t[s]:     60.60
LCAOMinimize: Encountered beta<0, resetting CG.
	FillingsUpdate:  mu: +0.079334506  nElectrons: 375.000000
LCAOMinimize: Iter:   2  F: -2405.8148808852229195  |grad|_K:  2.484e-02  alpha:  8.428e-03  linmin:  2.687e-02  cgtest: -2.329e-01  t[s]:     74.10
	FillingsUpdate:  mu: +0.278534443  nElectrons: 375.000000
LCAOMinimize: Iter:   3  F: -2406.4102489811712076  |grad|_K:  2.766e-02  alpha:  6.294e-03  linmin: -4.128e-04  cgtest:  4.759e-01  t[s]:     87.37
LCAOMinimize: 	Predicted alpha/alphaT>3.000000, increasing alphaT to 1.888273e-02.
	FillingsUpdate:  mu: -0.028393734  nElectrons: 375.000000
LCAOMinimize: Iter:   4  F: -2411.3957377943047504  |grad|_K:  5.177e-02  alpha:  2.535e-02  linmin: -5.934e-03  cgtest: -2.976e-01  t[s]:    104.40
	FillingsUpdate:  mu: +0.514317472  nElectrons: 375.000000
LCAOMinimize: Iter:   5  F: -2432.4288446317491434  |grad|_K:  1.724e-02  alpha:  2.134e-02  linmin:  7.904e-03  cgtest:  3.329e-01  t[s]:    117.88
LCAOMinimize: 	Wrong curvature in test step, increasing alphaT to 6.402855e-02.
	FillingsUpdate:  mu: +0.484898052  nElectrons: 375.000000
LCAOMinimize: Iter:   6  F: -2435.8016860646148416  |grad|_K:  1.403e-02  alpha: -9.176e-02  linmin: -1.823e-01  cgtest:  3.341e-01  t[s]:    130.05
LCAOMinimize: 	Step increased F by 1.020299e+02, reducing alpha to 2.415173e-02.
	FillingsUpdate:  mu: +0.572381357  nElectrons: 375.000000
LCAOMinimize: Iter:   7  F: -2436.8204666786950838  |grad|_K:  2.152e-02  alpha:  2.415e-02  linmin: -1.548e-02  cgtest:  2.355e-01  t[s]:    153.13
	FillingsUpdate:  mu: +0.252752758  nElectrons: 375.000000
LCAOMinimize: Iter:   8  F: -2437.3780387463461921  |grad|_K:  7.732e-03  alpha:  1.130e-02  linmin:  3.288e-02  cgtest: -4.013e-01  t[s]:    166.29
LCAOMinimize: 	Predicted alpha/alphaT>3.000000, increasing alphaT to 3.390449e-02.
	FillingsUpdate:  mu: +0.260736864  nElectrons: 375.000000
LCAOMinimize: Iter:   9  F: -2437.7351409544594389  |grad|_K:  1.400e-02  alpha:  3.155e-02  linmin:  1.620e-02  cgtest: -2.520e-01  t[s]:    183.23
	FillingsUpdate:  mu: +0.241326500  nElectrons: 375.000000
LCAOMinimize: Iter:  10  F: -2437.8156113099371396  |grad|_K:  1.239e-02  alpha:  1.907e-03  linmin: -1.431e-02  cgtest:  1.005e+00  t[s]:    196.57
LCAOMinimize: Encountered beta<0, resetting CG.
	FillingsUpdate:  mu: +0.154655510  nElectrons: 375.000000
LCAOMinimize: Iter:  11  F: -2438.0296081602791674  |grad|_K:  3.523e-03  alpha:  5.669e-03  linmin: -4.718e-02  cgtest:  2.430e-01  t[s]:    209.73
LCAOMinimize: 	Predicted alpha/alphaT>3.000000, increasing alphaT to 1.700586e-02.
	FillingsUpdate:  mu: +0.186729615  nElectrons: 375.000000
LCAOMinimize: Iter:  12  F: -2438.1127457781585690  |grad|_K:  2.341e-03  alpha:  2.646e-02  linmin: -3.000e-02  cgtest:  1.716e-01  t[s]:    226.61
	FillingsUpdate:  mu: +0.202480646  nElectrons: 375.000000
LCAOMinimize: Iter:  13  F: -2438.1372449538257570  |grad|_K:  2.760e-03  alpha:  1.782e-02  linmin: -1.560e-04  cgtest: -1.962e-01  t[s]:    239.78
	FillingsUpdate:  mu: +0.193250820  nElectrons: 375.000000
LCAOMinimize: Iter:  14  F: -2438.1700183392549661  |grad|_K:  1.466e-03  alpha:  1.880e-02  linmin:  5.621e-02  cgtest:  5.386e-02  t[s]:    253.21
	FillingsUpdate:  mu: +0.217304246  nElectrons: 375.000000
LCAOMinimize: Iter:  15  F: -2438.1796923300698836  |grad|_K:  3.094e-03  alpha:  4.714e-02  linmin:  1.329e-02  cgtest:  5.705e-01  t[s]:    266.35
	FillingsUpdate:  mu: +0.213586129  nElectrons: 375.000000
LCAOMinimize: Iter:  16  F: -2438.1914460751208935  |grad|_K:  2.441e-03  alpha:  4.896e-03  linmin: -1.940e-02  cgtest:  9.342e-01  t[s]:    279.89
LCAOMinimize: Encountered beta<0, resetting CG.
	FillingsUpdate:  mu: +0.209729156  nElectrons: 375.000000
LCAOMinimize: Iter:  17  F: -2438.2062567101293098  |grad|_K:  1.558e-03  alpha:  9.711e-03  linmin: -5.020e-02  cgtest:  2.980e-01  t[s]:    293.56
	FillingsUpdate:  mu: +0.204874349  nElectrons: 375.000000
LCAOMinimize: Iter:  18  F: -2438.2149547413032451  |grad|_K:  1.087e-03  alpha:  1.405e-02  linmin:  3.503e-03  cgtest: -2.271e-01  t[s]:    306.86
	FillingsUpdate:  mu: +0.196605661  nElectrons: 375.000000
LCAOMinimize: Iter:  19  F: -2438.2192016951225924  |grad|_K:  4.693e-04  alpha:  1.530e-02  linmin: -2.308e-02  cgtest:  1.709e-01  t[s]:    319.90
LCAOMinimize: 	Predicted alpha/alphaT>3.000000, increasing alphaT to 4.590985e-02.
	FillingsUpdate:  mu: +0.201123727  nElectrons: 375.000000
LCAOMinimize: Iter:  20  F: -2438.2238806209384165  |grad|_K:  6.680e-04  alpha:  8.756e-02  linmin:  3.545e-03  cgtest: -1.526e-01  t[s]:    336.91
	FillingsUpdate:  mu: +0.201074243  nElectrons: 375.000000
LCAOMinimize: Iter:  21  F: -2438.2250378495077712  |grad|_K:  6.130e-04  alpha:  6.492e-03  linmin: -4.165e-02  cgtest:  9.266e-01  t[s]:    350.30
LCAOMinimize: Encountered beta<0, resetting CG.
LCAOMinimize: 	Predicted alpha/alphaT>3.000000, increasing alphaT to 1.947587e-02.
	FillingsUpdate:  mu: +0.200709030  nElectrons: 375.000000
LCAOMinimize: Iter:  22  F: -2438.2274012870007027  |grad|_K:  2.988e-04  alpha:  2.648e-02  linmin:  2.731e-03  cgtest: -2.308e-02  t[s]:    367.58
	FillingsUpdate:  mu: +0.203370339  nElectrons: 375.000000
LCAOMinimize: Iter:  23  F: -2438.2278607917151021  |grad|_K:  4.777e-04  alpha:  2.168e-02  linmin:  2.649e-04  cgtest:  1.473e-02  t[s]:    380.56
	FillingsUpdate:  mu: +0.204418122  nElectrons: 375.000000
LCAOMinimize: Iter:  24  F: -2438.2302520966673001  |grad|_K:  4.159e-04  alpha:  4.643e-02  linmin:  5.284e-03  cgtest:  1.588e-01  t[s]:    394.69
	FillingsUpdate:  mu: +0.207322886  nElectrons: 375.000000
LCAOMinimize: Iter:  25  F: -2438.2321869123898068  |grad|_K:  7.942e-04  alpha:  5.100e-02  linmin: -3.018e-05  cgtest:  4.882e-02  t[s]:    408.37
	FillingsUpdate:  mu: +0.201875031  nElectrons: 375.000000
LCAOMinimize: Iter:  26  F: -2438.2334505485728187  |grad|_K:  2.879e-04  alpha:  6.360e-03  linmin: -2.185e-02  cgtest:  7.510e-01  t[s]:    421.97
LCAOMinimize: Encountered beta<0, resetting CG.
	FillingsUpdate:  mu: +0.202297616  nElectrons: 375.000000
LCAOMinimize: Iter:  27  F: -2438.2336831559341590  |grad|_K:  2.795e-04  alpha:  1.183e-02  linmin:  8.919e-04  cgtest: -5.254e-03  t[s]:    436.71
	FillingsUpdate:  mu: +0.201183785  nElectrons: 375.000000
LCAOMinimize: Iter:  28  F: -2438.2340387275107787  |grad|_K:  1.900e-04  alpha:  1.928e-02  linmin:  7.476e-04  cgtest:  3.774e-02  t[s]:    450.81
LCAOMinimize: 	Predicted alpha/alphaT>3.000000, increasing alphaT to 5.785236e-02.
	FillingsUpdate:  mu: +0.199534016  nElectrons: 375.000000
LCAOMinimize: Iter:  29  F: -2438.2345828567440549  |grad|_K:  1.804e-04  alpha:  6.358e-02  linmin: -4.722e-04  cgtest:  1.038e-02  t[s]:    469.23
	FillingsUpdate:  mu: +0.199560522  nElectrons: 375.000000
LCAOMinimize: Iter:  30  F: -2438.2348139717510094  |grad|_K:  2.781e-04  alpha:  2.919e-02  linmin: -3.278e-04  cgtest: -2.339e-03  t[s]:    483.54
LCAOMinimize: None of the convergence criteria satisfied after 30 iterations.


---- Citations for features of the code used in this run ----

   Software package:
      R. Sundararaman, K. Letchworth-Weaver, K.A. Schwarz, D. Gunceler, Y. Ozhabes and T.A. Arias, 'JDFTx: software for joint density-functional theory', SoftwareX 6, 278 (2017)

   LibXC library of exchange-correlation functions:
      M. A. L. Marques, M. J. T. Oliveira and T. Burnus, Comput. Phys. Commun. 183, 2272 (2012)

   Hammer, Hansen, and Norskov exchange functional:
      B. Hammer, L. B. Hansen, and J. K. Nørskov, Phys. Rev. B 59, 7413 (1999)

   Perdew, Burke & Ernzerhof correlation functional:
      J. P. Perdew, K. Burke, and M. Ernzerhof, Phys. Rev. Lett. 77, 3865 (1996)

   Pseudopotentials:
      M Schlipf and F Gygi, Comput. Phys. Commun. 196, 36 (2015)

   Total energy minimization with Auxiliary Hamiltonian:
      C. Freysoldt, S. Boeck, and J. Neugebauer, Phys. Rev. B 79, 241103(R) (2009)

This list may not be complete. Please suggest additional citations or
report any other bugs at https://github.com/shankar1729/jdftx/issues

Initialization completed successfully at t[s]:    489.32


-------- Electronic minimization -----------
	FillingsUpdate:  mu: +0.199560532  nElectrons: 375.000000
ElecMinimize: Iter:   0  F: -2438.234813971742824  |grad|_K:  1.844e-04  alpha:  1.000e+00
	FillingsUpdate:  mu: +0.277410999  nElectrons: 375.000000
	SubspaceRotationAdjust: set factor to 0.513
ElecMinimize: Iter:   1  F: -2438.976663562747035  |grad|_K:  6.893e-04  alpha:  2.569e-01  linmin: -9.301e-05  t[s]:    538.95
	FillingsUpdate:  mu: +0.189422883  nElectrons: 375.000000
	SubspaceRotationAdjust: set factor to 0.2
ElecMinimize: Iter:   2  F: -2439.212994785260889  |grad|_K:  3.201e-04  alpha:  1.080e-02  linmin:  1.809e-03  t[s]:    572.53
	FillingsUpdate:  mu: +0.137349531  nElectrons: 375.000000
	SubspaceRotationAdjust: set factor to 0.27
ElecMinimize: Iter:   3  F: -2439.288552603291009  |grad|_K:  1.409e-04  alpha:  1.868e-02  linmin:  1.324e-05  t[s]:    606.49
ElecMinimize: 	Predicted alpha/alphaT>3.000000, increasing alphaT to 5.605060e-02.
	FillingsUpdate:  mu: +0.204944036  nElectrons: 375.000000
	SubspaceRotationAdjust: set factor to 0.156
ElecMinimize: Iter:   4  F: -2439.448257918231775  |grad|_K:  2.536e-04  alpha:  9.693e-02  linmin: -1.484e-06  t[s]:    649.82
	FillingsUpdate:  mu: +0.142840920  nElectrons: 375.000000
	SubspaceRotationAdjust: set factor to 0.329
ElecMinimize: Iter:   5  F: -2439.660624574863505  |grad|_K:  8.367e-05  alpha:  3.716e-02  linmin: -2.068e-04  t[s]:    684.03
	FillingsUpdate:  mu: +0.180659320  nElectrons: 375.000000
	SubspaceRotationAdjust: set factor to 0.192
ElecMinimize: Iter:   6  F: -2439.710810001139635  |grad|_K:  1.612e-04  alpha:  8.354e-02  linmin:  1.302e-04  t[s]:    717.86
	FillingsUpdate:  mu: +0.145430076  nElectrons: 375.000000
	SubspaceRotationAdjust: set factor to 0.254
ElecMinimize: Iter:   7  F: -2439.819458696493712  |grad|_K:  6.153e-05  alpha:  5.189e-02  linmin:  1.698e-07  t[s]:    751.77
	FillingsUpdate:  mu: +0.166175815  nElectrons: 375.000000
	SubspaceRotationAdjust: set factor to 0.147
ElecMinimize: Iter:   8  F: -2439.851679556715226  |grad|_K:  1.059e-04  alpha:  1.041e-01  linmin:  1.652e-04  t[s]:    786.04
	FillingsUpdate:  mu: +0.130251993  nElectrons: 375.000000
	SubspaceRotationAdjust: set factor to 0.192
ElecMinimize: Iter:   9  F: -2439.884989660769861  |grad|_K:  4.655e-05  alpha:  3.474e-02  linmin: -2.221e-04  t[s]:    820.13
ElecMinimize: 	Predicted alpha/alphaT>3.000000, increasing alphaT to 1.042294e-01.
	FillingsUpdate:  mu: +0.141932088  nElectrons: 375.000000
	SubspaceRotationAdjust: set factor to 0.109
	SubspaceRotationAdjust: resetting CG because factor has changed by 0.108694
ElecMinimize: 	State modified externally: resetting search direction.
ElecMinimize: Iter:  10  F: -2439.906724295426557  |grad|_K:  6.457e-05  alpha:  1.150e-01
	FillingsUpdate:  mu: +0.128967790  nElectrons: 375.000000
	SubspaceRotationAdjust: set factor to 0.148
ElecMinimize: Iter:  11  F: -2439.921667599521243  |grad|_K:  2.776e-05  alpha:  4.349e-02  linmin:  7.324e-04  t[s]:    912.23
ElecMinimize: 	Predicted alpha/alphaT>3.000000, increasing alphaT to 1.304831e-01.
	FillingsUpdate:  mu: +0.128903727  nElectrons: 375.000000
	SubspaceRotationAdjust: set factor to 0.131
ElecMinimize: Iter:  12  F: -2439.936909367549561  |grad|_K:  2.160e-05  alpha:  2.394e-01  linmin:  2.219e-05  t[s]:    955.43
	FillingsUpdate:  mu: +0.132994879  nElectrons: 375.000000
	SubspaceRotationAdjust: set factor to 0.0803
ElecMinimize: Iter:  13  F: -2439.946905638833869  |grad|_K:  3.003e-05  alpha:  2.577e-01  linmin:  7.958e-05  t[s]:    989.16
	FillingsUpdate:  mu: +0.125582396  nElectrons: 375.000000
	SubspaceRotationAdjust: set factor to 0.0612
ElecMinimize: Iter:  14  F: -2439.951240832917847  |grad|_K:  1.909e-05  alpha:  5.579e-02  linmin: -2.644e-04  t[s]:   1022.77
ElecMinimize: 	Predicted alpha/alphaT>3.000000, increasing alphaT to 1.673668e-01.
	FillingsUpdate:  mu: +0.132813573  nElectrons: 375.000000
	SubspaceRotationAdjust: set factor to 0.0588
ElecMinimize: Iter:  15  F: -2439.962110718552140  |grad|_K:  2.183e-05  alpha:  3.442e-01  linmin:  1.545e-05  t[s]:   1066.56
	FillingsUpdate:  mu: +0.131675424  nElectrons: 375.000000
	SubspaceRotationAdjust: set factor to 0.0451
ElecMinimize: Iter:  16  F: -2439.966749951940528  |grad|_K:  1.920e-05  alpha:  1.138e-01  linmin: -1.009e-04  t[s]:   1100.43
	FillingsUpdate:  mu: +0.129313674  nElectrons: 375.000000
	SubspaceRotationAdjust: set factor to 0.0704
ElecMinimize: Iter:  17  F: -2439.973793318159096  |grad|_K:  1.478e-05  alpha:  2.228e-01  linmin: -3.350e-06  t[s]:   1133.93
	FillingsUpdate:  mu: +0.130352931  nElectrons: 375.000000
	SubspaceRotationAdjust: set factor to 0.057
ElecMinimize: Iter:  18  F: -2439.976975591121118  |grad|_K:  1.767e-05  alpha:  1.739e-01  linmin:  8.607e-06  t[s]:   1168.38
	FillingsUpdate:  mu: +0.121369632  nElectrons: 375.000000
	SubspaceRotationAdjust: set factor to 0.0482
ElecMinimize: Iter:  19  F: -2439.981596465144776  |grad|_K:  1.111e-05  alpha:  1.779e-01  linmin:  1.446e-05  t[s]:   1202.20
	FillingsUpdate:  mu: +0.119152860  nElectrons: 375.000000
	SubspaceRotationAdjust: set factor to 0.0497
ElecMinimize: Iter:  20  F: -2439.984960957545354  |grad|_K:  8.312e-06  alpha:  3.282e-01  linmin: -3.284e-06  t[s]:   1236.20
	FillingsUpdate:  mu: +0.120884295  nElectrons: 375.000000
	SubspaceRotationAdjust: set factor to 0.0545
ElecMinimize: Iter:  21  F: -2439.987496445740817  |grad|_K:  8.354e-06  alpha:  4.395e-01  linmin: -2.606e-05  t[s]:   1269.66
	FillingsUpdate:  mu: +0.124456276  nElectrons: 375.000000
	SubspaceRotationAdjust: set factor to 0.0506
ElecMinimize: Iter:  22  F: -2439.989807365102934  |grad|_K:  1.031e-05  alpha:  3.941e-01  linmin: -1.888e-05  t[s]:   1303.48
	FillingsUpdate:  mu: +0.124398186  nElectrons: 375.000000
	SubspaceRotationAdjust: set factor to 0.0336
ElecMinimize: Iter:  23  F: -2439.991124217919605  |grad|_K:  8.783e-06  alpha:  1.473e-01  linmin: -2.454e-05  t[s]:   1337.28
	FillingsUpdate:  mu: +0.122599414  nElectrons: 375.000000
	SubspaceRotationAdjust: set factor to 0.0353
ElecMinimize: Iter:  24  F: -2439.992637235468010  |grad|_K:  5.406e-06  alpha:  2.331e-01  linmin: -1.539e-05  t[s]:   1371.01
	FillingsUpdate:  mu: +0.124207908  nElectrons: 375.000000
	SubspaceRotationAdjust: set factor to 0.0382
ElecMinimize: Iter:  25  F: -2439.993478467381465  |grad|_K:  4.762e-06  alpha:  3.437e-01  linmin: -9.466e-06  t[s]:   1404.88
	FillingsUpdate:  mu: +0.125575228  nElectrons: 375.000000
	SubspaceRotationAdjust: set factor to 0.0309
ElecMinimize: Iter:  26  F: -2439.993999496964079  |grad|_K:  4.921e-06  alpha:  2.749e-01  linmin: -4.974e-06  t[s]:   1438.42
	FillingsUpdate:  mu: +0.124307049  nElectrons: 375.000000
	SubspaceRotationAdjust: set factor to 0.025
ElecMinimize: Iter:  27  F: -2439.994455320101224  |grad|_K:  3.692e-06  alpha:  2.254e-01  linmin: -3.812e-06  t[s]:   1472.18
	FillingsUpdate:  mu: +0.124392263  nElectrons: 375.000000
	SubspaceRotationAdjust: set factor to 0.0288
ElecMinimize: Iter:  28  F: -2439.994888463806546  |grad|_K:  3.357e-06  alpha:  3.807e-01  linmin: -4.826e-06  t[s]:   1506.08
	FillingsUpdate:  mu: +0.125076883  nElectrons: 375.000000
	SubspaceRotationAdjust: set factor to 0.0269
ElecMinimize: Iter:  29  F: -2439.995229413013931  |grad|_K:  3.334e-06  alpha:  3.623e-01  linmin: -7.116e-06  t[s]:   1539.97
	FillingsUpdate:  mu: +0.124642356  nElectrons: 375.000000
	SubspaceRotationAdjust: set factor to 0.022
ElecMinimize: Iter:  30  F: -2439.995502026219128  |grad|_K:  2.912e-06  alpha:  2.936e-01  linmin: -6.388e-06  t[s]:   1573.55
	FillingsUpdate:  mu: +0.124494236  nElectrons: 375.000000
	SubspaceRotationAdjust: set factor to 0.0239
ElecMinimize: Iter:  31  F: -2439.995738952266493  |grad|_K:  2.300e-06  alpha:  3.344e-01  linmin: -8.074e-06  t[s]:   1607.20
	FillingsUpdate:  mu: +0.124868082  nElectrons: 375.000000
	SubspaceRotationAdjust: set factor to 0.025
ElecMinimize: Iter:  32  F: -2439.995899171677138  |grad|_K:  2.207e-06  alpha:  3.626e-01  linmin: -5.249e-06  t[s]:   1641.13
	FillingsUpdate:  mu: +0.124738631  nElectrons: 375.000000
	SubspaceRotationAdjust: set factor to 0.0227
ElecMinimize: Iter:  33  F: -2439.996043143536554  |grad|_K:  2.142e-06  alpha:  3.540e-01  linmin: -4.594e-06  t[s]:   1674.80
	FillingsUpdate:  mu: +0.124666438  nElectrons: 375.000000
	SubspaceRotationAdjust: set factor to 0.0232
ElecMinimize: Iter:  34  F: -2439.996187815610028  |grad|_K:  1.982e-06  alpha:  3.777e-01  linmin: -5.249e-06  t[s]:   1708.67
	FillingsUpdate:  mu: +0.125004911  nElectrons: 375.000000
	SubspaceRotationAdjust: set factor to 0.0249
ElecMinimize: Iter:  35  F: -2439.996310513918615  |grad|_K:  1.778e-06  alpha:  3.738e-01  linmin: -4.604e-06  t[s]:   1742.46
	FillingsUpdate:  mu: +0.125154117  nElectrons: 375.000000
	SubspaceRotationAdjust: set factor to 0.0233
ElecMinimize: Iter:  36  F: -2439.996404965977490  |grad|_K:  1.681e-06  alpha:  3.578e-01  linmin: -3.215e-06  t[s]:   1776.30
	FillingsUpdate:  mu: +0.125139354  nElectrons: 375.000000
	SubspaceRotationAdjust: set factor to 0.0223
ElecMinimize: Iter:  37  F: -2439.996481702057281  |grad|_K:  1.414e-06  alpha:  3.254e-01  linmin: -1.944e-06  t[s]:   1810.87
	FillingsUpdate:  mu: +0.125198080  nElectrons: 375.000000
	SubspaceRotationAdjust: set factor to 0.0244
ElecMinimize: Iter:  38  F: -2439.996540465662292  |grad|_K:  1.178e-06  alpha:  3.524e-01  linmin: -1.336e-06  t[s]:   1844.76
	FillingsUpdate:  mu: +0.125293376  nElectrons: 375.000000
	SubspaceRotationAdjust: set factor to 0.0238
ElecMinimize: Iter:  39  F: -2439.996581739486373  |grad|_K:  1.087e-06  alpha:  3.565e-01  linmin: -1.375e-06  t[s]:   1878.53
	FillingsUpdate:  mu: +0.125324461  nElectrons: 375.000000
	SubspaceRotationAdjust: set factor to 0.0217
ElecMinimize: Iter:  40  F: -2439.996615907748037  |grad|_K:  9.655e-07  alpha:  3.469e-01  linmin: -5.886e-07  t[s]:   1912.30
	FillingsUpdate:  mu: +0.125252309  nElectrons: 375.000000
	SubspaceRotationAdjust: set factor to 0.023
ElecMinimize: Iter:  41  F: -2439.996642509403955  |grad|_K:  7.865e-07  alpha:  3.422e-01  linmin: -3.555e-07  t[s]:   1946.19
	FillingsUpdate:  mu: +0.125231789  nElectrons: 375.000000
	SubspaceRotationAdjust: set factor to 0.024
ElecMinimize: Iter:  42  F: -2439.996659961989280  |grad|_K:  6.801e-07  alpha:  3.383e-01  linmin: -8.790e-07  t[s]:   1979.76
	FillingsUpdate:  mu: +0.125227997  nElectrons: 375.000000
	SubspaceRotationAdjust: set factor to 0.0226
ElecMinimize: Iter:  43  F: -2439.996673542423650  |grad|_K:  6.172e-07  alpha:  3.520e-01  linmin: -1.416e-06  t[s]:   2014.86
	FillingsUpdate:  mu: +0.125175948  nElectrons: 375.000000
	SubspaceRotationAdjust: set factor to 0.0232
ElecMinimize: Iter:  44  F: -2439.996684954029661  |grad|_K:  5.387e-07  alpha:  3.592e-01  linmin: -1.936e-06  t[s]:   2048.94
	FillingsUpdate:  mu: +0.125174926  nElectrons: 375.000000
	SubspaceRotationAdjust: set factor to 0.0252
ElecMinimize: Iter:  45  F: -2439.996694263589688  |grad|_K:  5.016e-07  alpha:  3.845e-01  linmin: -2.427e-06  t[s]:   2082.90
	FillingsUpdate:  mu: +0.125199953  nElectrons: 375.000000
	SubspaceRotationAdjust: set factor to 0.0252
ElecMinimize: Iter:  46  F: -2439.996701952220974  |grad|_K:  4.857e-07  alpha:  3.663e-01  linmin: -2.505e-06  t[s]:   2117.25
	FillingsUpdate:  mu: +0.125180158  nElectrons: 375.000000
	SubspaceRotationAdjust: set factor to 0.0248
ElecMinimize: Iter:  47  F: -2439.996709109308995  |grad|_K:  4.479e-07  alpha:  3.635e-01  linmin: -2.952e-06  t[s]:   2151.19
	FillingsUpdate:  mu: +0.125172662  nElectrons: 375.000000
	SubspaceRotationAdjust: set factor to 0.0264
ElecMinimize: Iter:  48  F: -2439.996715441911419  |grad|_K:  4.086e-07  alpha:  3.782e-01  linmin: -2.738e-06  t[s]:   2185.03
	FillingsUpdate:  mu: +0.125162004  nElectrons: 375.000000
	SubspaceRotationAdjust: set factor to 0.0279
ElecMinimize: Iter:  49  F: -2439.996720985705906  |grad|_K:  4.104e-07  alpha:  3.979e-01  linmin: -2.595e-06  t[s]:   2219.01
	FillingsUpdate:  mu: +0.125126567  nElectrons: 375.000000
	SubspaceRotationAdjust: set factor to 0.0274
ElecMinimize: Iter:  50  F: -2439.996726294607015  |grad|_K:  3.983e-07  alpha:  3.777e-01  linmin: -2.394e-06  t[s]:   2253.01
	FillingsUpdate:  mu: +0.125105899  nElectrons: 375.000000
	SubspaceRotationAdjust: set factor to 0.0257
ElecMinimize: Iter:  51  F: -2439.996730940852558  |grad|_K:  3.683e-07  alpha:  3.508e-01  linmin: -1.857e-06  t[s]:   2286.81
	FillingsUpdate:  mu: +0.125062544  nElectrons: 375.000000
	SubspaceRotationAdjust: set factor to 0.0259
ElecMinimize: Iter:  52  F: -2439.996734982319140  |grad|_K:  3.340e-07  alpha:  3.570e-01  linmin: -1.618e-06  t[s]:   2320.53
	FillingsUpdate:  mu: +0.125033005  nElectrons: 375.000000
	SubspaceRotationAdjust: set factor to 0.0275
ElecMinimize: Iter:  53  F: -2439.996738479828764  |grad|_K:  3.040e-07  alpha:  3.756e-01  linmin: -1.028e-06  t[s]:   2354.24
	FillingsUpdate:  mu: +0.125013687  nElectrons: 375.000000
	SubspaceRotationAdjust: set factor to 0.0277
ElecMinimize: Iter:  54  F: -2439.996741261452826  |grad|_K:  2.701e-07  alpha:  3.609e-01  linmin: -1.018e-06  t[s]:   2387.85
	FillingsUpdate:  mu: +0.124983936  nElectrons: 375.000000
	SubspaceRotationAdjust: set factor to 0.0263
ElecMinimize: Iter:  55  F: -2439.996743215317565  |grad|_K:  2.402e-07  alpha:  3.210e-01  linmin: -7.351e-07  t[s]:   2421.40
	FillingsUpdate:  mu: +0.124968876  nElectrons: 375.000000
	SubspaceRotationAdjust: set factor to 0.0261
ElecMinimize: Iter:  56  F: -2439.996744882528219  |grad|_K:  2.114e-07  alpha:  3.466e-01  linmin: -3.406e-07  t[s]:   2455.36
	FillingsUpdate:  mu: +0.124945953  nElectrons: 375.000000
	SubspaceRotationAdjust: set factor to 0.0279
ElecMinimize: Iter:  57  F: -2439.996746264650028  |grad|_K:  1.863e-07  alpha:  3.707e-01  linmin: -3.198e-07  t[s]:   2489.27
	FillingsUpdate:  mu: +0.124926126  nElectrons: 375.000000
	SubspaceRotationAdjust: set factor to 0.0294
ElecMinimize: Iter:  58  F: -2439.996747276533824  |grad|_K:  1.672e-07  alpha:  3.495e-01  linmin: -1.151e-06  t[s]:   2522.59
	FillingsUpdate:  mu: +0.124918082  nElectrons: 375.000000
	SubspaceRotationAdjust: set factor to 0.029
ElecMinimize: Iter:  59  F: -2439.996748065680094  |grad|_K:  1.563e-07  alpha:  3.385e-01  linmin:  3.216e-07  t[s]:   2556.34
	FillingsUpdate:  mu: +0.124901965  nElectrons: 375.000000
	SubspaceRotationAdjust: set factor to 0.028
ElecMinimize: Iter:  60  F: -2439.996748783409657  |grad|_K:  1.434e-07  alpha:  3.522e-01  linmin: -7.101e-07  t[s]:   2590.06
	FillingsUpdate:  mu: +0.124893240  nElectrons: 375.000000
	SubspaceRotationAdjust: set factor to 0.0283
ElecMinimize: Iter:  61  F: -2439.996749396915675  |grad|_K:  1.314e-07  alpha:  3.579e-01  linmin: -8.805e-08  t[s]:   2623.97
	FillingsUpdate:  mu: +0.124880634  nElectrons: 375.000000
	SubspaceRotationAdjust: set factor to 0.03
ElecMinimize: Iter:  62  F: -2439.996749917598663  |grad|_K:  1.242e-07  alpha:  3.615e-01  linmin:  7.559e-07  t[s]:   2658.09
	FillingsUpdate:  mu: +0.124871153  nElectrons: 375.000000
	SubspaceRotationAdjust: set factor to 0.0317
ElecMinimize: Iter:  63  F: -2439.996750391894238  |grad|_K:  1.173e-07  alpha:  3.692e-01  linmin: -6.506e-07  t[s]:   2691.65
ElecMinimize: Converged (|Delta F|<1.000000e-06 for 5 iters).
Setting wave functions to eigenvectors of Hamiltonian

# Ionic positions in lattice coordinates:
ion Co   0.000000000000000   0.000000000000000   0.150000000000000 0
ion Co   0.500000000000000   0.000000000000000   0.150000000000000 0
ion Co   0.000000000000000   0.500000000000000   0.150000000000000 0
ion Co   0.500000000000000   0.500000000000000   0.150000000000000 0
ion Co   0.250000000000000   0.250000000000000   0.050000000000000 0
ion Co   0.250000000000000   0.750000000000000   0.050000000000000 0
ion Co  -0.250000000000000   0.250000000000000   0.050000000000000 0
ion Co  -0.250000000000000   0.750000000000000   0.050000000000000 0
ion Co   0.000000000000000   0.000000000000000  -0.050000000000000 0
ion Co   0.500000000000000   0.000000000000000  -0.050000000000000 0
ion Co   0.000000000000000   0.500000000000000  -0.050000000000000 0
ion Co   0.500000000000000   0.500000000000000  -0.050000000000000 0
ion Co   0.250000000000000   0.250000000000000  -0.150000000000000 0
ion Co   0.250000000000000   0.750000000000000  -0.150000000000000 0
ion Co  -0.250000000000000   0.250000000000000  -0.150000000000000 0
ion Co  -0.250000000000000   0.750000000000000  -0.150000000000000 0
ion O   0.250000000000000   0.250000000000000   0.150000000000000 0
ion O   0.250000000000000   0.750000000000000   0.150000000000000 0
ion O  -0.250000000000000   0.250000000000000   0.150000000000000 0
ion O  -0.250000000000000   0.750000000000000   0.150000000000000 0
ion O   0.000000000000000   0.000000000000000   0.050000000000000 0
ion O   0.500000000000000   0.000000000000000   0.050000000000000 0
ion O   0.000000000000000   0.500000000000000   0.050000000000000 0
ion O   0.500000000000000   0.500000000000000   0.050000000000000 0
ion O   0.250000000000000   0.250000000000000  -0.050000000000000 0
ion O   0.250000000000000   0.750000000000000  -0.050000000000000 0
ion O  -0.250000000000000   0.250000000000000  -0.050000000000000 0
ion O  -0.250000000000000   0.750000000000000  -0.050000000000000 0
ion O   0.000000000000000   0.000000000000000  -0.150000000000000 0
ion O   0.500000000000000   0.000000000000000  -0.150000000000000 0
ion O   0.000000000000000   0.500000000000000  -0.150000000000000 0
ion O   0.500000000000000   0.500000000000000  -0.150000000000000 0
ion O   0.000000000000000   0.000000000000000   0.230000000000000 1
ion H   0.100000000000000   0.100000000000000   0.250000000000000 1

# Forces in Lattice coordinates:
force Co   0.057058756517739   0.057058840670023  -1.302260976474054 0
force Co   0.020251975736097  -0.013323353137446  -0.088282562053859 0
force Co  -0.013322691433163   0.020249196078851  -0.088243024775903 0
force Co   0.015459911513815   0.015464108791677  -0.174303191425057 0
force Co   0.015329475474811   0.015299575988885   0.311228882676835 0
force Co   0.010934983437445  -0.012857892606922   0.354366647574712 0
force Co  -0.012885880809153   0.010901204253430   0.354357225695980 0
force Co  -0.016942836514827  -0.016911691074344   0.393820279243235 0
force Co  -0.002898975811456  -0.002890225091607  -0.584989829322244 0
force Co   0.000594282798658   0.000422898647467  -0.334576608878762 0
force Co   0.000416953328792   0.000589014701444  -0.334610325438508 0
force Co  -0.000117367649096  -0.000119379399735  -0.304941667957735 0
force Co   0.004641229374998   0.004635217524618   0.102220727955581 0
force Co   0.003486012927625  -0.004059246767229   0.099264911013239 0
force Co  -0.004063093281826   0.003480362002922   0.099246692971894 0
force Co  -0.003588597958818  -0.003581620703941   0.109524480827455 0
force O   0.037810615555455   0.037777221768925  -0.690347643344221 0
force O   0.058750119678129  -0.055754825781080  -0.850416003462961 0
force O  -0.055757931159711   0.058729489870641  -0.850507869166890 0
force O  -0.058640331275919  -0.058632342378668  -0.803551818920605 0
force O  -0.005266164527557  -0.005261197979043  -0.113180015224550 0
force O  -0.000895127032815   0.000308212898585  -0.185038490246303 0
force O   0.000306152316726  -0.000911628012661  -0.184982101551269 0
force O  -0.000062782751212  -0.000073427677372  -0.150491579300348 0
force O  -0.003294960128424  -0.003283440076501   0.275208139426963 0
force O  -0.000865590863917   0.001242967968624   0.269080730482269 0
force O   0.001231416007585  -0.000848915763129   0.269054915839250 0
force O   0.002451034864418   0.002456171386304   0.250661826263192 0
force O  -0.000026541065690  -0.000016859262985   0.746486439723911 0
force O   0.000142165402715  -0.000211862018166   0.474348765540803 0
force O  -0.000234642375396   0.000142216488434   0.474309529272132 0
force O   0.000224470453348   0.000221295087426   0.406027837436163 0
force O  -0.232065398676134  -0.232105666963005   2.037223816943325 1
force H   0.183785630096264   0.183784677833508   0.203971668551372 1

# Energy components:
   Eewald =     6598.4764652633057267
       EH =     8808.4845495836088958
     Eloc =   -17937.3252002891749726
      Enl =     -752.5877457847357164
   Epulay =        0.0001960516836434
      Exc =     -281.1686409788555920
       KE =     1124.1306763084080558
-------------------------------------
     Etot =    -2439.9896998457593327
       TS =        0.0070505461348558
-------------------------------------
        F =    -2439.9967503918942384

IonicMinimize: Iter:   0  F: -2439.996750391894238  |grad|_K:  2.575e-02  t[s]:   2701.11

#--- Lowdin population analysis ---
# oxidation-state Co +1.106 +0.951 +0.951 +0.937 +0.926 +0.927 +0.927 +0.926 +0.932 +0.922 +0.922 +0.920 +0.916 +0.916 +0.916 +0.915
# oxidation-state O -0.825 -0.807 -0.807 -0.807 -0.851 -0.817 -0.817 -0.816 -0.819 -0.820 -0.820 -0.820 -0.832 -0.837 -0.837 -0.841 -0.694
# oxidation-state H +0.396


-------- Electronic minimization -----------
	FillingsUpdate:  mu: +0.135376773  nElectrons: 375.000000
ElecMinimize: Iter:   0  F: -2439.889844654553144  |grad|_K:  8.100e-05  alpha:  1.000e+00
	FillingsUpdate:  mu: +0.130425343  nElectrons: 375.000000
	SubspaceRotationAdjust: set factor to 0.0314
ElecMinimize: Iter:   1  F: -2439.987093915155128  |grad|_K:  2.529e-05  alpha:  1.904e-01  linmin:  1.402e-01  t[s]:   2758.64
	FillingsUpdate:  mu: +0.128820346  nElectrons: 375.000000
	SubspaceRotationAdjust: set factor to 0.029
ElecMinimize: Iter:   2  F: -2439.997713975993520  |grad|_K:  7.527e-06  alpha:  2.131e-01  linmin: -4.627e-03  t[s]:   2792.47
	FillingsUpdate:  mu: +0.128829126  nElectrons: 375.000000
	SubspaceRotationAdjust: set factor to 0.0212
ElecMinimize: Iter:   3  F: -2439.999166192062603  |grad|_K:  5.557e-06  alpha:  3.067e-01  linmin: -1.065e-04  t[s]:   2826.14
	FillingsUpdate:  mu: +0.125744352  nElectrons: 375.000000
	SubspaceRotationAdjust: set factor to 0.0131
ElecMinimize: Iter:   4  F: -2439.999615323760736  |grad|_K:  2.591e-06  alpha:  1.744e-01  linmin: -2.493e-06  t[s]:   2860.23
	FillingsUpdate:  mu: +0.125139347  nElectrons: 375.000000
	SubspaceRotationAdjust: set factor to 0.017
ElecMinimize: Iter:   5  F: -2439.999830295189895  |grad|_K:  1.557e-06  alpha:  3.839e-01  linmin: -5.146e-05  t[s]:   2894.17
	FillingsUpdate:  mu: +0.124756094  nElectrons: 375.000000
	SubspaceRotationAdjust: set factor to 0.0157
ElecMinimize: Iter:   6  F: -2439.999896291858477  |grad|_K:  1.082e-06  alpha:  3.263e-01  linmin:  3.495e-05  t[s]:   2928.08
	FillingsUpdate:  mu: +0.124612582  nElectrons: 375.000000
	SubspaceRotationAdjust: set factor to 0.0178
ElecMinimize: Iter:   7  F: -2439.999929421376237  |grad|_K:  7.196e-07  alpha:  3.394e-01  linmin:  8.506e-05  t[s]:   2962.18
	FillingsUpdate:  mu: +0.124581852  nElectrons: 375.000000
	SubspaceRotationAdjust: set factor to 0.0207
ElecMinimize: Iter:   8  F: -2439.999947331478324  |grad|_K:  5.730e-07  alpha:  4.151e-01  linmin:  7.754e-05  t[s]:   2996.20
	FillingsUpdate:  mu: +0.124514835  nElectrons: 375.000000
	SubspaceRotationAdjust: set factor to 0.0233
ElecMinimize: Iter:   9  F: -2439.999957715158871  |grad|_K:  5.470e-07  alpha:  3.797e-01  linmin:  3.613e-05  t[s]:   3030.20
	FillingsUpdate:  mu: +0.124460765  nElectrons: 375.000000
	SubspaceRotationAdjust: set factor to 0.0281
ElecMinimize: Iter:  10  F: -2439.999968190115851  |grad|_K:  5.541e-07  alpha:  4.203e-01  linmin:  3.089e-05  t[s]:   3063.84
	FillingsUpdate:  mu: +0.124402632  nElectrons: 375.000000
	SubspaceRotationAdjust: set factor to 0.032
ElecMinimize: Iter:  11  F: -2439.999981108282554  |grad|_K:  6.479e-07  alpha:  5.052e-01  linmin:  1.634e-05  t[s]:   3097.40
	FillingsUpdate:  mu: +0.124296484  nElectrons: 375.000000
	SubspaceRotationAdjust: set factor to 0.0319
ElecMinimize: Iter:  12  F: -2439.999996738486061  |grad|_K:  8.106e-07  alpha:  4.471e-01  linmin: -1.355e-05  t[s]:   3131.11
	FillingsUpdate:  mu: +0.124185288  nElectrons: 375.000000
	SubspaceRotationAdjust: set factor to 0.0282
ElecMinimize: Iter:  13  F: -2440.000017539335204  |grad|_K:  8.497e-07  alpha:  3.791e-01  linmin: -7.154e-06  t[s]:   3164.74
	FillingsUpdate:  mu: +0.123999659  nElectrons: 375.000000
	SubspaceRotationAdjust: set factor to 0.0251
ElecMinimize: Iter:  14  F: -2440.000041608461743  |grad|_K:  9.190e-07  alpha:  3.994e-01  linmin: -4.128e-05  t[s]:   3198.32
	FillingsUpdate:  mu: +0.123846407  nElectrons: 375.000000
	SubspaceRotationAdjust: set factor to 0.0256
ElecMinimize: Iter:  15  F: -2440.000066771838647  |grad|_K:  8.356e-07  alpha:  3.554e-01  linmin: -1.980e-05  t[s]:   3231.92
	FillingsUpdate:  mu: +0.123747432  nElectrons: 375.000000
	SubspaceRotationAdjust: set factor to 0.0269
ElecMinimize: Iter:  16  F: -2440.000089151543307  |grad|_K:  7.583e-07  alpha:  3.833e-01  linmin: -2.094e-05  t[s]:   3265.65
	FillingsUpdate:  mu: +0.123649128  nElectrons: 375.000000
	SubspaceRotationAdjust: set factor to 0.0247
ElecMinimize: Iter:  17  F: -2440.000105353534764  |grad|_K:  6.356e-07  alpha:  3.372e-01  linmin: -1.912e-05  t[s]:   3299.34
	FillingsUpdate:  mu: +0.123617874  nElectrons: 375.000000
	SubspaceRotationAdjust: set factor to 0.0214
ElecMinimize: Iter:  18  F: -2440.000116239662475  |grad|_K:  5.196e-07  alpha:  3.225e-01  linmin: -3.382e-06  t[s]:   3333.53
	FillingsUpdate:  mu: +0.123573296  nElectrons: 375.000000
	SubspaceRotationAdjust: set factor to 0.0222
ElecMinimize: Iter:  19  F: -2440.000123711206470  |grad|_K:  4.163e-07  alpha:  3.318e-01  linmin: -5.542e-06  t[s]:   3366.90
	FillingsUpdate:  mu: +0.123572770  nElectrons: 375.000000
	SubspaceRotationAdjust: set factor to 0.0261
ElecMinimize: Iter:  20  F: -2440.000128532294184  |grad|_K:  3.566e-07  alpha:  3.335e-01  linmin: -1.320e-07  t[s]:   3400.44
	FillingsUpdate:  mu: +0.123597927  nElectrons: 375.000000
	SubspaceRotationAdjust: set factor to 0.0279
ElecMinimize: Iter:  21  F: -2440.000132001653128  |grad|_K:  3.125e-07  alpha:  3.272e-01  linmin:  2.892e-06  t[s]:   3434.77
	FillingsUpdate:  mu: +0.123607960  nElectrons: 375.000000
	SubspaceRotationAdjust: set factor to 0.0291
ElecMinimize: Iter:  22  F: -2440.000134966762289  |grad|_K:  2.934e-07  alpha:  3.641e-01  linmin: -2.817e-06  t[s]:   3468.98
	FillingsUpdate:  mu: +0.123651423  nElectrons: 375.000000
	SubspaceRotationAdjust: set factor to 0.0323
ElecMinimize: Iter:  23  F: -2440.000137872149480  |grad|_K:  2.926e-07  alpha:  4.048e-01  linmin:  9.776e-06  t[s]:   3502.80
	FillingsUpdate:  mu: +0.123695530  nElectrons: 375.000000
	SubspaceRotationAdjust: set factor to 0.0369
ElecMinimize: Iter:  24  F: -2440.000140764817388  |grad|_K:  3.053e-07  alpha:  4.058e-01  linmin:  3.547e-06  t[s]:   3536.91
	FillingsUpdate:  mu: +0.123747803  nElectrons: 375.000000
	SubspaceRotationAdjust: set factor to 0.0405
ElecMinimize: Iter:  25  F: -2440.000143695620409  |grad|_K:  3.029e-07  alpha:  3.772e-01  linmin:  8.258e-07  t[s]:   3570.73
	FillingsUpdate:  mu: +0.123817266  nElectrons: 375.000000
	SubspaceRotationAdjust: set factor to 0.039
ElecMinimize: Iter:  26  F: -2440.000146487558595  |grad|_K:  3.056e-07  alpha:  3.649e-01  linmin:  7.242e-06  t[s]:   3605.89
	FillingsUpdate:  mu: +0.123841872  nElectrons: 375.000000
	SubspaceRotationAdjust: set factor to 0.0295
ElecMinimize: Iter:  27  F: -2440.000148315474235  |grad|_K:  2.889e-07  alpha:  2.355e-01  linmin: -9.783e-07  t[s]:   3639.51
	FillingsUpdate:  mu: +0.123884223  nElectrons: 375.000000
	SubspaceRotationAdjust: set factor to 0.0249
ElecMinimize: Iter:  28  F: -2440.000150038731590  |grad|_K:  2.165e-07  alpha:  2.477e-01  linmin:  5.920e-06  t[s]:   3673.55
	FillingsUpdate:  mu: +0.123915999  nElectrons: 375.000000
	SubspaceRotationAdjust: set factor to 0.0272
ElecMinimize: Iter:  29  F: -2440.000151344828282  |grad|_K:  1.803e-07  alpha:  3.347e-01  linmin:  1.050e-06  t[s]:   3707.15
	FillingsUpdate:  mu: +0.123930317  nElectrons: 375.000000
	SubspaceRotationAdjust: set factor to 0.0249
ElecMinimize: Iter:  30  F: -2440.000152124201577  |grad|_K:  1.446e-07  alpha:  2.877e-01  linmin: -2.638e-06  t[s]:   3740.89
	FillingsUpdate:  mu: +0.123945624  nElectrons: 375.000000
	SubspaceRotationAdjust: set factor to 0.022
ElecMinimize: Iter:  31  F: -2440.000152639931457  |grad|_K:  1.129e-07  alpha:  2.958e-01  linmin: -4.205e-06  t[s]:   3774.77
	FillingsUpdate:  mu: +0.123949737  nElectrons: 375.000000
	SubspaceRotationAdjust: set factor to 0.0239
ElecMinimize: Iter:  32  F: -2440.000152957607497  |grad|_K:  8.950e-08  alpha:  2.986e-01  linmin:  1.230e-06  t[s]:   3808.68
	FillingsUpdate:  mu: +0.123952728  nElectrons: 375.000000
	SubspaceRotationAdjust: set factor to 0.0259
ElecMinimize: Iter:  33  F: -2440.000153161083290  |grad|_K:  7.113e-08  alpha:  3.048e-01  linmin:  2.170e-06  t[s]:   3842.10
	FillingsUpdate:  mu: +0.123957131  nElectrons: 375.000000
	SubspaceRotationAdjust: set factor to 0.0264
ElecMinimize: Iter:  34  F: -2440.000153292079176  |grad|_K:  6.039e-08  alpha:  3.110e-01  linmin:  3.368e-06  t[s]:   3875.65
ElecMinimize: Converged (|Delta F|<1.000000e-06 for 5 iters).
Setting wave functions to eigenvectors of Hamiltonian

# Ionic positions in lattice coordinates:
ion Co   0.000000000000000   0.000000000000000   0.150000000000000 0
ion Co   0.500000000000000   0.000000000000000   0.150000000000000 0
ion Co   0.000000000000000   0.500000000000000   0.150000000000000 0
ion Co   0.500000000000000   0.500000000000000   0.150000000000000 0
ion Co   0.250000000000000   0.250000000000000   0.050000000000000 0
ion Co   0.250000000000000   0.750000000000000   0.050000000000000 0
ion Co  -0.250000000000000   0.250000000000000   0.050000000000000 0
ion Co  -0.250000000000000   0.750000000000000   0.050000000000000 0
ion Co   0.000000000000000   0.000000000000000  -0.050000000000000 0
ion Co   0.500000000000000   0.000000000000000  -0.050000000000000 0
ion Co   0.000000000000000   0.500000000000000  -0.050000000000000 0
ion Co   0.500000000000000   0.500000000000000  -0.050000000000000 0
ion Co   0.250000000000000   0.250000000000000  -0.150000000000000 0
ion Co   0.250000000000000   0.750000000000000  -0.150000000000000 0
ion Co  -0.250000000000000   0.250000000000000  -0.150000000000000 0
ion Co  -0.250000000000000   0.750000000000000  -0.150000000000000 0
ion O   0.250000000000000   0.250000000000000   0.150000000000000 0
ion O   0.250000000000000   0.750000000000000   0.150000000000000 0
ion O  -0.250000000000000   0.250000000000000   0.150000000000000 0
ion O  -0.250000000000000   0.750000000000000   0.150000000000000 0
ion O   0.000000000000000   0.000000000000000   0.050000000000000 0
ion O   0.500000000000000   0.000000000000000   0.050000000000000 0
ion O   0.000000000000000   0.500000000000000   0.050000000000000 0
ion O   0.500000000000000   0.500000000000000   0.050000000000000 0
ion O   0.250000000000000   0.250000000000000  -0.050000000000000 0
ion O   0.250000000000000   0.750000000000000  -0.050000000000000 0
ion O  -0.250000000000000   0.250000000000000  -0.050000000000000 0
ion O  -0.250000000000000   0.750000000000000  -0.050000000000000 0
ion O   0.000000000000000   0.000000000000000  -0.150000000000000 0
ion O   0.500000000000000   0.000000000000000  -0.150000000000000 0
ion O   0.000000000000000   0.500000000000000  -0.150000000000000 0
ion O   0.500000000000000   0.500000000000000  -0.150000000000000 0
ion O  -0.001808486884186  -0.001808800695159   0.231270087681873 1
ion H   0.101432242391270   0.101432234970281   0.250127164183691 1

# Forces in Lattice coordinates:
force Co   0.042950650007997   0.042956320931395  -0.797526255512985 0
force Co   0.020663275242922  -0.013364473357763  -0.093129524006776 0
force Co  -0.013365206429619   0.020668733568760  -0.093142884773819 0
force Co   0.014904534913728   0.014905796394140  -0.177329934594490 0
force Co   0.014954264514816   0.014954308134213   0.291818825347565 0
force Co   0.010893216030375  -0.012530372030039   0.335006268327974 0
force Co  -0.012527347358702   0.010894303086927   0.335004096769418 0
force Co  -0.016615905047468  -0.016618160612180   0.373657571522661 0
force Co  -0.002217688344562  -0.002216885019829  -0.605914560104524 0
force Co   0.000210990500740   0.000612935155526  -0.355795201409986 0
force Co   0.000614246730995   0.000211257508530  -0.355793080321000 0
force Co  -0.000364492623733  -0.000363967112928  -0.324569866788797 0
force Co   0.004549335088977   0.004549418648684   0.103116248414501 0
force Co   0.003519657589620  -0.004030231808027   0.100771460904092 0
force Co  -0.004030535453254   0.003519879601508   0.100777418130595 0
force Co  -0.003634887054326  -0.003633611518834   0.111468238065928 0
force O   0.034269731075732   0.034276342964507  -0.691631648038369 0
force O   0.056275886453220  -0.053249007609771  -0.846477946990413 0
force O  -0.053219601897336   0.056303645560008  -0.846369986345120 0
force O  -0.055293290421559  -0.055326818433934  -0.812249564558908 0
force O  -0.006231344813558  -0.006230830632474  -0.114167242554387 0
force O  -0.000629023054246   0.000245059566319  -0.208353486903464 0
force O   0.000241348577162  -0.000635461715804  -0.208194015779607 0
force O  -0.000086844402862  -0.000082074679069  -0.194765562329373 0
force O  -0.003881110613705  -0.003891701391467   0.251740713702413 0
force O  -0.001577945201454   0.001941318380751   0.246349487780432 0
force O   0.001929143576878  -0.001580553097080   0.246311858271491 0
force O   0.003275966612835   0.003283398393347   0.226438080649551 0
force O   0.000185790671900   0.000186378479449   0.737497953700878 0
force O  -0.000030614205855  -0.000012283136564   0.469657638011938 0
force O  -0.000009941725653  -0.000026654594290   0.469648496045526 0
force O  -0.000032529870555  -0.000030487948457   0.399924127819945 0
force O  -0.122833942838106  -0.122763211138039   1.799735539751262 1
force H   0.074537905032766   0.074542155597417   0.001333459105593 1

# Energy components:
   Eewald =     6595.3042873749145656
       EH =     8805.0393208351306384
     Eloc =   -17930.6760984229695168
      Enl =     -752.5734636261493051
   Epulay =        0.0001960516836434
      Exc =     -281.1535739100477258
       KE =     1124.0662073285261613
-------------------------------------
     Etot =    -2439.9931243689115945
       TS =        0.0070289231677333
-------------------------------------
        F =    -2440.0001532920791760

IonicMinimize: Iter:   1  F: -2440.000153292079176  |grad|_K:  1.975e-02  alpha:  1.000e+00  linmin: -5.883e-01  t[s]:   3885.25

#--- Lowdin population analysis ---
# oxidation-state Co +1.099 +0.942 +0.942 +0.927 +0.923 +0.925 +0.925 +0.925 +0.932 +0.922 +0.922 +0.920 +0.926 +0.926 +0.926 +0.926
# oxidation-state O -0.825 -0.807 -0.807 -0.806 -0.850 -0.817 -0.817 -0.816 -0.818 -0.819 -0.819 -0.819 -0.830 -0.836 -0.836 -0.839 -0.699
# oxidation-state H +0.390


-------- Electronic minimization -----------
	FillingsUpdate:  mu: +0.144839591  nElectrons: 375.000000
ElecMinimize: Iter:   0  F: -2439.692599253578010  |grad|_K:  1.352e-04  alpha:  1.000e+00
	FillingsUpdate:  mu: +0.140874094  nElectrons: 375.000000
	SubspaceRotationAdjust: set factor to 0.0255
ElecMinimize: Iter:   1  F: -2439.959006449702883  |grad|_K:  5.161e-05  alpha:  2.094e-01  linmin:  2.743e-01  t[s]:   3942.75
	FillingsUpdate:  mu: +0.131457510  nElectrons: 375.000000
	SubspaceRotationAdjust: set factor to 0.0207
ElecMinimize: Iter:   2  F: -2439.995741414230906  |grad|_K:  1.439e-05  alpha:  1.983e-01  linmin: -1.217e-02  t[s]:   3976.71
	FillingsUpdate:  mu: +0.129933183  nElectrons: 375.000000
	SubspaceRotationAdjust: set factor to 0.0162
ElecMinimize: Iter:   3  F: -2440.000233140170167  |grad|_K:  8.774e-06  alpha:  2.585e-01  linmin: -3.000e-04  t[s]:   4010.62
	FillingsUpdate:  mu: +0.125012413  nElectrons: 375.000000
	SubspaceRotationAdjust: set factor to 0.0162
ElecMinimize: Iter:   4  F: -2440.001774225401277  |grad|_K:  4.606e-06  alpha:  2.400e-01  linmin: -3.173e-05  t[s]:   4044.44
	FillingsUpdate:  mu: +0.124532146  nElectrons: 375.000000
	SubspaceRotationAdjust: set factor to 0.0173
ElecMinimize: Iter:   5  F: -2440.002406603233339  |grad|_K:  2.648e-06  alpha:  3.575e-01  linmin: -1.700e-04  t[s]:   4078.31
	FillingsUpdate:  mu: +0.123775086  nElectrons: 375.000000
	SubspaceRotationAdjust: set factor to 0.0153
ElecMinimize: Iter:   6  F: -2440.002576158252396  |grad|_K:  1.907e-06  alpha:  2.899e-01  linmin:  2.958e-05  t[s]:   4112.08
	FillingsUpdate:  mu: +0.123371715  nElectrons: 375.000000
	SubspaceRotationAdjust: set factor to 0.0193
ElecMinimize: Iter:   7  F: -2440.002683719662400  |grad|_K:  1.258e-06  alpha:  3.549e-01  linmin:  3.797e-05  t[s]:   4146.01
	FillingsUpdate:  mu: +0.123302700  nElectrons: 375.000000
	SubspaceRotationAdjust: set factor to 0.0201
ElecMinimize: Iter:   8  F: -2440.002735717685482  |grad|_K:  1.048e-06  alpha:  3.940e-01  linmin: -5.262e-07  t[s]:   4179.62
	FillingsUpdate:  mu: +0.123185653  nElectrons: 375.000000
	SubspaceRotationAdjust: set factor to 0.021
ElecMinimize: Iter:   9  F: -2440.002770061770661  |grad|_K:  9.444e-07  alpha:  3.754e-01  linmin:  3.402e-05  t[s]:   4213.52
	FillingsUpdate:  mu: +0.122999831  nElectrons: 375.000000
	SubspaceRotationAdjust: set factor to 0.0255
ElecMinimize: Iter:  10  F: -2440.002806838042943  |grad|_K:  9.592e-07  alpha:  4.948e-01  linmin: -9.398e-06  t[s]:   4247.40
	FillingsUpdate:  mu: +0.122898744  nElectrons: 375.000000
	SubspaceRotationAdjust: set factor to 0.0285
ElecMinimize: Iter:  11  F: -2440.002847816123449  |grad|_K:  1.129e-06  alpha:  5.340e-01  linmin: -2.280e-05  t[s]:   4281.04
	FillingsUpdate:  mu: +0.122874624  nElectrons: 375.000000
	SubspaceRotationAdjust: set factor to 0.027
ElecMinimize: Iter:  12  F: -2440.002895746873492  |grad|_K:  1.370e-06  alpha:  4.505e-01  linmin:  5.531e-06  t[s]:   4315.22
	FillingsUpdate:  mu: +0.122529494  nElectrons: 375.000000
	SubspaceRotationAdjust: set factor to 0.0244
ElecMinimize: Iter:  13  F: -2440.002957584365049  |grad|_K:  1.400e-06  alpha:  3.956e-01  linmin: -4.339e-05  t[s]:   4349.28
	FillingsUpdate:  mu: +0.122236776  nElectrons: 375.000000
	SubspaceRotationAdjust: set factor to 0.0247
ElecMinimize: Iter:  14  F: -2440.003034314364868  |grad|_K:  1.444e-06  alpha:  4.680e-01  linmin:  4.495e-07  t[s]:   4383.00
	FillingsUpdate:  mu: +0.122002985  nElectrons: 375.000000
	SubspaceRotationAdjust: set factor to 0.0263
ElecMinimize: Iter:  15  F: -2440.003113414501513  |grad|_K:  1.369e-06  alpha:  4.552e-01  linmin: -9.744e-06  t[s]:   4417.69
	FillingsUpdate:  mu: +0.121850133  nElectrons: 375.000000
	SubspaceRotationAdjust: set factor to 0.0258
ElecMinimize: Iter:  16  F: -2440.003174751981078  |grad|_K:  1.303e-06  alpha:  3.923e-01  linmin: -1.108e-05  t[s]:   4451.37
	FillingsUpdate:  mu: +0.121730216  nElectrons: 375.000000
	SubspaceRotationAdjust: set factor to 0.0242
ElecMinimize: Iter:  17  F: -2440.003218518608719  |grad|_K:  1.069e-06  alpha:  3.087e-01  linmin:  5.981e-06  t[s]:   4485.13
	FillingsUpdate:  mu: +0.121614933  nElectrons: 375.000000
	SubspaceRotationAdjust: set factor to 0.0256
ElecMinimize: Iter:  18  F: -2440.003252493589571  |grad|_K:  8.301e-07  alpha:  3.569e-01  linmin: -2.086e-06  t[s]:   4519.15
	FillingsUpdate:  mu: +0.121581852  nElectrons: 375.000000
	SubspaceRotationAdjust: set factor to 0.0289
ElecMinimize: Iter:  19  F: -2440.003274887975749  |grad|_K:  6.946e-07  alpha:  3.897e-01  linmin:  3.587e-06  t[s]:   4552.77
	FillingsUpdate:  mu: +0.121602393  nElectrons: 375.000000
	SubspaceRotationAdjust: set factor to 0.0322
ElecMinimize: Iter:  20  F: -2440.003290358915820  |grad|_K:  6.220e-07  alpha:  3.847e-01  linmin:  6.973e-06  t[s]:   4586.18
	FillingsUpdate:  mu: +0.121620934  nElectrons: 375.000000
	SubspaceRotationAdjust: set factor to 0.0341
ElecMinimize: Iter:  21  F: -2440.003301263559933  |grad|_K:  5.919e-07  alpha:  3.383e-01  linmin: -8.973e-07  t[s]:   4619.67
	FillingsUpdate:  mu: +0.121696475  nElectrons: 375.000000
	SubspaceRotationAdjust: set factor to 0.0341
ElecMinimize: Iter:  22  F: -2440.003311199129712  |grad|_K:  5.669e-07  alpha:  3.401e-01  linmin:  1.852e-05  t[s]:   4653.64
	FillingsUpdate:  mu: +0.121753292  nElectrons: 375.000000
	SubspaceRotationAdjust: set factor to 0.0326
ElecMinimize: Iter:  23  F: -2440.003321066010813  |grad|_K:  5.704e-07  alpha:  3.687e-01  linmin: -8.088e-06  t[s]:   4687.23
	FillingsUpdate:  mu: +0.121858117  nElectrons: 375.000000
	SubspaceRotationAdjust: set factor to 0.0304
ElecMinimize: Iter:  24  F: -2440.003330105241730  |grad|_K:  5.659e-07  alpha:  3.329e-01  linmin:  1.891e-05  t[s]:   4721.03
	FillingsUpdate:  mu: +0.121930737  nElectrons: 375.000000
	SubspaceRotationAdjust: set factor to 0.0296
ElecMinimize: Iter:  25  F: -2440.003339697621868  |grad|_K:  5.200e-07  alpha:  3.599e-01  linmin: -7.943e-06  t[s]:   4754.49
	FillingsUpdate:  mu: +0.122027005  nElectrons: 375.000000
	SubspaceRotationAdjust: set factor to 0.0297
ElecMinimize: Iter:  26  F: -2440.003348447645749  |grad|_K:  4.647e-07  alpha:  3.879e-01  linmin:  2.223e-05  t[s]:   4788.40
	FillingsUpdate:  mu: +0.122090468  nElectrons: 375.000000
	SubspaceRotationAdjust: set factor to 0.0304
ElecMinimize: Iter:  27  F: -2440.003354963906531  |grad|_K:  3.943e-07  alpha:  3.627e-01  linmin: -1.343e-07  t[s]:   4822.57
	FillingsUpdate:  mu: +0.122147483  nElectrons: 375.000000
	SubspaceRotationAdjust: set factor to 0.0313
ElecMinimize: Iter:  28  F: -2440.003359429180364  |grad|_K:  3.240e-07  alpha:  3.444e-01  linmin:  1.952e-06  t[s]:   4856.11
	FillingsUpdate:  mu: +0.122186463  nElectrons: 375.000000
	SubspaceRotationAdjust: set factor to 0.0321
ElecMinimize: Iter:  29  F: -2440.003362194137026  |grad|_K:  2.535e-07  alpha:  3.158e-01  linmin:  7.485e-07  t[s]:   4889.99
	FillingsUpdate:  mu: +0.122204972  nElectrons: 375.000000
	SubspaceRotationAdjust: set factor to 0.0324
ElecMinimize: Iter:  30  F: -2440.003363964178334  |grad|_K:  1.952e-07  alpha:  3.304e-01  linmin: -1.455e-05  t[s]:   4924.04
	FillingsUpdate:  mu: +0.122220865  nElectrons: 375.000000
	SubspaceRotationAdjust: set factor to 0.0313
ElecMinimize: Iter:  31  F: -2440.003364960427007  |grad|_K:  1.579e-07  alpha:  3.134e-01  linmin: -6.056e-06  t[s]:   4957.71
	FillingsUpdate:  mu: +0.122222489  nElectrons: 375.000000
	SubspaceRotationAdjust: set factor to 0.0284
ElecMinimize: Iter:  32  F: -2440.003365553157437  |grad|_K:  1.255e-07  alpha:  2.850e-01  linmin: -1.877e-06  t[s]:   4991.36
	FillingsUpdate:  mu: +0.122229983  nElectrons: 375.000000
	SubspaceRotationAdjust: set factor to 0.026
ElecMinimize: Iter:  33  F: -2440.003365939697687  |grad|_K:  1.023e-07  alpha:  2.946e-01  linmin:  3.544e-05  t[s]:   5026.54
	FillingsUpdate:  mu: +0.122227214  nElectrons: 375.000000
	SubspaceRotationAdjust: set factor to 0.0284
ElecMinimize: Iter:  34  F: -2440.003366210391505  |grad|_K:  8.312e-08  alpha:  3.104e-01  linmin: -6.534e-07  t[s]:   5060.59
	FillingsUpdate:  mu: +0.122225418  nElectrons: 375.000000
	SubspaceRotationAdjust: set factor to 0.0342
ElecMinimize: Iter:  35  F: -2440.003366412931882  |grad|_K:  7.374e-08  alpha:  3.531e-01  linmin:  4.397e-05  t[s]:   5094.30
ElecMinimize: Converged (|Delta F|<1.000000e-06 for 5 iters).
Setting wave functions to eigenvectors of Hamiltonian

# Ionic positions in lattice coordinates:
ion Co   0.000000000000000   0.000000000000000   0.150000000000000 0
ion Co   0.500000000000000   0.000000000000000   0.150000000000000 0
ion Co   0.000000000000000   0.500000000000000   0.150000000000000 0
ion Co   0.500000000000000   0.500000000000000   0.150000000000000 0
ion Co   0.250000000000000   0.250000000000000   0.050000000000000 0
ion Co   0.250000000000000   0.750000000000000   0.050000000000000 0
ion Co  -0.250000000000000   0.250000000000000   0.050000000000000 0
ion Co  -0.250000000000000   0.750000000000000   0.050000000000000 0
ion Co   0.000000000000000   0.000000000000000  -0.050000000000000 0
ion Co   0.500000000000000   0.000000000000000  -0.050000000000000 0
ion Co   0.000000000000000   0.500000000000000  -0.050000000000000 0
ion Co   0.500000000000000   0.500000000000000  -0.050000000000000 0
ion Co   0.250000000000000   0.250000000000000  -0.150000000000000 0
ion Co   0.250000000000000   0.750000000000000  -0.150000000000000 0
ion Co  -0.250000000000000   0.250000000000000  -0.150000000000000 0
ion Co  -0.250000000000000   0.750000000000000  -0.150000000000000 0
ion O   0.250000000000000   0.250000000000000   0.150000000000000 0
ion O   0.250000000000000   0.750000000000000   0.150000000000000 0
ion O  -0.250000000000000   0.250000000000000   0.150000000000000 0
ion O  -0.250000000000000   0.750000000000000   0.150000000000000 0
ion O   0.000000000000000   0.000000000000000   0.050000000000000 0
ion O   0.500000000000000   0.000000000000000   0.050000000000000 0
ion O   0.000000000000000   0.500000000000000   0.050000000000000 0
ion O   0.500000000000000   0.500000000000000   0.050000000000000 0
ion O   0.250000000000000   0.250000000000000  -0.050000000000000 0
ion O   0.250000000000000   0.750000000000000  -0.050000000000000 0
ion O  -0.250000000000000   0.250000000000000  -0.050000000000000 0
ion O  -0.250000000000000   0.750000000000000  -0.050000000000000 0
ion O   0.000000000000000   0.000000000000000  -0.150000000000000 0
ion O   0.500000000000000   0.000000000000000  -0.150000000000000 0
ion O   0.000000000000000   0.500000000000000  -0.150000000000000 0
ion O   0.500000000000000   0.500000000000000  -0.150000000000000 0
ion O  -0.003261211687406  -0.003259531703240   0.233698503186515 1
ion H   0.102027863620320   0.102027966248018   0.250021175109906 1

# Forces in Lattice coordinates:
force Co   0.022029881214177   0.022026775977417   0.055958814840572 0
force Co   0.020576804849037  -0.013371964548723  -0.089495733006288 0
force Co  -0.013370369179023   0.020580986442698  -0.089501738559059 0
force Co   0.014301578496106   0.014301689202297  -0.171390597841895 0
force Co   0.015197773810989   0.015198256886741   0.311684524692822 0
force Co   0.011333753432279  -0.012594715537863   0.354500245981533 0
force Co  -0.012595146228155   0.011332143498979   0.354487853646885 0
force Co  -0.016736447562936  -0.016735902235562   0.390011854192169 0
force Co  -0.001768050535650  -0.001766757371095  -0.593947393518588 0
force Co   0.000120412169511   0.000534177526337  -0.343230893951516 0
force Co   0.000533843540038   0.000119102180587  -0.343230398361886 0
force Co  -0.000353849141641  -0.000354495306056  -0.310875328386364 0
force Co   0.004320572238248   0.004320341427570   0.107209284585991 0
force Co   0.003419876663105  -0.003852474321101   0.104479290985839 0
force Co  -0.003851844950058   0.003419914210321   0.104476123492550 0
force Co  -0.003554634630543  -0.003555321218399   0.114405518516531 0
force O   0.030932382599726   0.030918744718391  -0.675948737778544 0
force O   0.051059750526217  -0.047775400124024  -0.838867752098958 0
force O  -0.047784229824062   0.051004811726194  -0.838925318816797 0
force O  -0.050085473717339  -0.050042050206612  -0.807392738375492 0
force O  -0.004914323367436  -0.004925593143754  -0.109632311817208 0
force O  -0.000950187563969   0.000738295984839  -0.189720887655437 0
force O   0.000737745547291  -0.000937091873080  -0.189779396799246 0
force O  -0.000463283532158  -0.000466309508797  -0.170997519661508 0
force O  -0.002960546377616  -0.002961284809255   0.272118923882340 0
force O  -0.000841042531565   0.001167342116885   0.267937838628830 0
force O   0.001173682568941  -0.000837494602159   0.268007232486426 0
force O   0.002472863466869   0.002457326516714   0.248711004825965 0
force O   0.000118785453670   0.000120547420889   0.740925600052670 0
force O  -0.000037089254710  -0.000008935585733   0.468521735017775 0
force O  -0.000011092430077  -0.000040111799272   0.468512853093840 0
force O   0.000027409471375   0.000025920774006   0.403305152041543 0
force O  -0.137335248599449  -0.137392983195223   0.719832766246110 1
force H   0.101003986259696   0.101002572494931   0.143400305342921 1

# Energy components:
   Eewald =     6589.5375428818661021
       EH =     8798.7245811678149039
     Eloc =   -17918.5689121727773454
      Enl =     -752.5677056525448734
   Epulay =        0.0001960516836434
      Exc =     -281.1420301826186687
       KE =     1124.0199644459753472
-------------------------------------
     Etot =    -2439.9963634606006053
       TS =        0.0070029523314767
-------------------------------------
        F =    -2440.0033664129318822

IonicMinimize: Iter:   2  F: -2440.003366412931882  |grad|_K:  1.147e-02  alpha:  3.406e-01  linmin: -3.423e-01  t[s]:   5103.73

#--- Lowdin population analysis ---
# oxidation-state Co +1.098 +0.955 +0.955 +0.940 +0.925 +0.926 +0.926 +0.925 +0.931 +0.922 +0.922 +0.920 +0.917 +0.917 +0.917 +0.917
# oxidation-state O -0.824 -0.805 -0.805 -0.804 -0.849 -0.817 -0.817 -0.816 -0.818 -0.819 -0.819 -0.819 -0.831 -0.837 -0.837 -0.840 -0.709
# oxidation-state H +0.391


-------- Electronic minimization -----------
	FillingsUpdate:  mu: +0.136936119  nElectrons: 375.000000
ElecMinimize: Iter:   0  F: -2439.689772775431720  |grad|_K:  1.360e-04  alpha:  1.000e+00
	FillingsUpdate:  mu: +0.129415640  nElectrons: 375.000000
	SubspaceRotationAdjust: set factor to 0.0341
ElecMinimize: Iter:   1  F: -2439.959188707493013  |grad|_K:  5.223e-05  alpha:  2.116e-01  linmin:  2.876e-01  t[s]:   5161.02
	FillingsUpdate:  mu: +0.126387889  nElectrons: 375.000000
	SubspaceRotationAdjust: set factor to 0.0343
ElecMinimize: Iter:   2  F: -2439.997130216160258  |grad|_K:  1.358e-05  alpha:  2.020e-01  linmin: -1.580e-02  t[s]:   5194.84
	FillingsUpdate:  mu: +0.125154470  nElectrons: 375.000000
	SubspaceRotationAdjust: set factor to 0.034
ElecMinimize: Iter:   3  F: -2440.001862341161996  |grad|_K:  7.462e-06  alpha:  3.056e-01  linmin: -5.611e-04  t[s]:   5228.30
	FillingsUpdate:  mu: +0.124304066  nElectrons: 375.000000
	SubspaceRotationAdjust: set factor to 0.0287
ElecMinimize: Iter:   4  F: -2440.002957124296699  |grad|_K:  5.057e-06  alpha:  2.357e-01  linmin: -5.972e-05  t[s]:   5262.52
	FillingsUpdate:  mu: +0.123456470  nElectrons: 375.000000
	SubspaceRotationAdjust: set factor to 0.0196
ElecMinimize: Iter:   5  F: -2440.003484724228656  |grad|_K:  3.512e-06  alpha:  2.474e-01  linmin: -4.025e-06  t[s]:   5296.16
	FillingsUpdate:  mu: +0.121952870  nElectrons: 375.000000
	SubspaceRotationAdjust: set factor to 0.0188
ElecMinimize: Iter:   6  F: -2440.003693661633406  |grad|_K:  1.981e-06  alpha:  2.032e-01  linmin: -2.503e-05  t[s]:   5329.92
	FillingsUpdate:  mu: +0.121930293  nElectrons: 375.000000
	SubspaceRotationAdjust: set factor to 0.0214
ElecMinimize: Iter:   7  F: -2440.003822304065579  |grad|_K:  1.484e-06  alpha:  3.931e-01  linmin:  5.065e-05  t[s]:   5363.67
	FillingsUpdate:  mu: +0.121744965  nElectrons: 375.000000
	SubspaceRotationAdjust: set factor to 0.0183
ElecMinimize: Iter:   8  F: -2440.003875376837186  |grad|_K:  1.148e-06  alpha:  2.890e-01  linmin:  2.001e-05  t[s]:   5397.42
	FillingsUpdate:  mu: +0.121570428  nElectrons: 375.000000
	SubspaceRotationAdjust: set factor to 0.0238
ElecMinimize: Iter:   9  F: -2440.003913798180747  |grad|_K:  8.524e-07  alpha:  3.497e-01  linmin:  2.782e-05  t[s]:   5431.33
	FillingsUpdate:  mu: +0.121540053  nElectrons: 375.000000
	SubspaceRotationAdjust: set factor to 0.0259
ElecMinimize: Iter:  10  F: -2440.003941414731798  |grad|_K:  8.897e-07  alpha:  4.560e-01  linmin:  1.463e-05  t[s]:   5465.20
	FillingsUpdate:  mu: +0.121514716  nElectrons: 375.000000
	SubspaceRotationAdjust: set factor to 0.0245
ElecMinimize: Iter:  11  F: -2440.003965442097979  |grad|_K:  9.407e-07  alpha:  3.642e-01  linmin:  1.800e-05  t[s]:   5498.91
	FillingsUpdate:  mu: +0.121338703  nElectrons: 375.000000
	SubspaceRotationAdjust: set factor to 0.0267
ElecMinimize: Iter:  12  F: -2440.004001355991932  |grad|_K:  1.033e-06  alpha:  4.870e-01  linmin:  2.959e-07  t[s]:   5532.76
	FillingsUpdate:  mu: +0.121218958  nElectrons: 375.000000
	SubspaceRotationAdjust: set factor to 0.0293
ElecMinimize: Iter:  13  F: -2440.004052832493016  |grad|_K:  1.255e-06  alpha:  5.785e-01  linmin: -3.058e-06  t[s]:   5566.19
	FillingsUpdate:  mu: +0.121247769  nElectrons: 375.000000
	SubspaceRotationAdjust: set factor to 0.0275
ElecMinimize: Iter:  14  F: -2440.004111148040920  |grad|_K:  1.465e-06  alpha:  4.438e-01  linmin:  2.027e-06  t[s]:   5600.37
	FillingsUpdate:  mu: +0.121024218  nElectrons: 375.000000
	SubspaceRotationAdjust: set factor to 0.0223
ElecMinimize: Iter:  15  F: -2440.004176718004601  |grad|_K:  1.496e-06  alpha:  3.672e-01  linmin: -1.733e-05  t[s]:   5633.97
	FillingsUpdate:  mu: +0.120757691  nElectrons: 375.000000
	SubspaceRotationAdjust: set factor to 0.0213
ElecMinimize: Iter:  16  F: -2440.004243012089319  |grad|_K:  1.311e-06  alpha:  3.548e-01  linmin:  2.394e-06  t[s]:   5667.86
	FillingsUpdate:  mu: +0.120664721  nElectrons: 375.000000
	SubspaceRotationAdjust: set factor to 0.0229
ElecMinimize: Iter:  17  F: -2440.004302712391109  |grad|_K:  1.128e-06  alpha:  4.164e-01  linmin: -3.169e-06  t[s]:   5701.67
	FillingsUpdate:  mu: +0.120569488  nElectrons: 375.000000
	SubspaceRotationAdjust: set factor to 0.0197
ElecMinimize: Iter:  18  F: -2440.004339702426932  |grad|_K:  9.492e-07  alpha:  3.484e-01  linmin: -6.395e-06  t[s]:   5735.29
	FillingsUpdate:  mu: +0.120494468  nElectrons: 375.000000
	SubspaceRotationAdjust: set factor to 0.0181
ElecMinimize: Iter:  19  F: -2440.004363106257642  |grad|_K:  6.901e-07  alpha:  3.113e-01  linmin:  2.773e-06  t[s]:   5769.13
	FillingsUpdate:  mu: +0.120485266  nElectrons: 375.000000
	SubspaceRotationAdjust: set factor to 0.0203
ElecMinimize: Iter:  20  F: -2440.004378050035939  |grad|_K:  5.441e-07  alpha:  3.764e-01  linmin: -1.655e-06  t[s]:   5802.81
	FillingsUpdate:  mu: +0.120485530  nElectrons: 375.000000
	SubspaceRotationAdjust: set factor to 0.0205
ElecMinimize: Iter:  21  F: -2440.004386317752960  |grad|_K:  4.339e-07  alpha:  3.349e-01  linmin: -7.099e-06  t[s]:   5836.57
	FillingsUpdate:  mu: +0.120508700  nElectrons: 375.000000
	SubspaceRotationAdjust: set factor to 0.0221
ElecMinimize: Iter:  22  F: -2440.004391642296468  |grad|_K:  3.405e-07  alpha:  3.390e-01  linmin: -6.106e-07  t[s]:   5870.35
	FillingsUpdate:  mu: +0.120533979  nElectrons: 375.000000
	SubspaceRotationAdjust: set factor to 0.0261
ElecMinimize: Iter:  23  F: -2440.004395545495754  |grad|_K:  2.961e-07  alpha:  4.036e-01  linmin: -2.351e-06  t[s]:   5904.11
	FillingsUpdate:  mu: +0.120559668  nElectrons: 375.000000
	SubspaceRotationAdjust: set factor to 0.0294
ElecMinimize: Iter:  24  F: -2440.004398348124596  |grad|_K:  2.843e-07  alpha:  3.835e-01  linmin:  1.873e-06  t[s]:   5938.21
	FillingsUpdate:  mu: +0.120607580  nElectrons: 375.000000
	SubspaceRotationAdjust: set factor to 0.0308
ElecMinimize: Iter:  25  F: -2440.004400984380936  |grad|_K:  2.859e-07  alpha:  3.913e-01  linmin:  1.211e-05  t[s]:   5972.14
	FillingsUpdate:  mu: +0.120641850  nElectrons: 375.000000
	SubspaceRotationAdjust: set factor to 0.0304
ElecMinimize: Iter:  26  F: -2440.004403671231557  |grad|_K:  2.921e-07  alpha:  3.944e-01  linmin: -3.571e-06  t[s]:   6005.95
	FillingsUpdate:  mu: +0.120702121  nElectrons: 375.000000
	SubspaceRotationAdjust: set factor to 0.0298
ElecMinimize: Iter:  27  F: -2440.004406353889863  |grad|_K:  2.783e-07  alpha:  3.770e-01  linmin:  1.575e-05  t[s]:   6040.70
	FillingsUpdate:  mu: +0.120751929  nElectrons: 375.000000
	SubspaceRotationAdjust: set factor to 0.0296
ElecMinimize: Iter:  28  F: -2440.004408891072217  |grad|_K:  2.615e-07  alpha:  3.935e-01  linmin: -2.192e-06  t[s]:   6074.60
	FillingsUpdate:  mu: +0.120806284  nElectrons: 375.000000
	SubspaceRotationAdjust: set factor to 0.0295
ElecMinimize: Iter:  29  F: -2440.004410944622578  |grad|_K:  2.255e-07  alpha:  3.600e-01  linmin:  6.760e-06  t[s]:   6108.35
	FillingsUpdate:  mu: +0.120838422  nElectrons: 375.000000
	SubspaceRotationAdjust: set factor to 0.0291
ElecMinimize: Iter:  30  F: -2440.004412522339408  |grad|_K:  1.910e-07  alpha:  3.722e-01  linmin: -5.542e-06  t[s]:   6142.34
	FillingsUpdate:  mu: +0.120865072  nElectrons: 375.000000
	SubspaceRotationAdjust: set factor to 0.0283
ElecMinimize: Iter:  31  F: -2440.004413546456817  |grad|_K:  1.561e-07  alpha:  3.368e-01  linmin:  6.425e-06  t[s]:   6176.34
	FillingsUpdate:  mu: +0.120876913  nElectrons: 375.000000
	SubspaceRotationAdjust: set factor to 0.0276
ElecMinimize: Iter:  32  F: -2440.004414219525188  |grad|_K:  1.187e-07  alpha:  3.317e-01  linmin:  5.908e-08  t[s]:   6209.95
	FillingsUpdate:  mu: +0.120888294  nElectrons: 375.000000
	SubspaceRotationAdjust: set factor to 0.0276
ElecMinimize: Iter:  33  F: -2440.004414631269810  |grad|_K:  9.536e-08  alpha:  3.502e-01  linmin: -3.131e-06  t[s]:   6244.31
	FillingsUpdate:  mu: +0.120890117  nElectrons: 375.000000
	SubspaceRotationAdjust: set factor to 0.0284
ElecMinimize: Iter:  34  F: -2440.004414874420036  |grad|_K:  7.513e-08  alpha:  3.205e-01  linmin:  2.362e-05  t[s]:   6278.06
	FillingsUpdate:  mu: +0.120892958  nElectrons: 375.000000
	SubspaceRotationAdjust: set factor to 0.0307
ElecMinimize: Iter:  35  F: -2440.004415038439674  |grad|_K:  6.036e-08  alpha:  3.481e-01  linmin: -9.354e-05  t[s]:   6311.88
	FillingsUpdate:  mu: +0.120891436  nElectrons: 375.000000
	SubspaceRotationAdjust: set factor to 0.0343
ElecMinimize: Iter:  36  F: -2440.004415151599005  |grad|_K:  5.380e-08  alpha:  3.715e-01  linmin:  1.658e-05  t[s]:   6345.78
ElecMinimize: Converged (|Delta F|<1.000000e-06 for 5 iters).
Setting wave functions to eigenvectors of Hamiltonian

# Ionic positions in lattice coordinates:
ion Co   0.000000000000000   0.000000000000000   0.150000000000000 0
ion Co   0.500000000000000   0.000000000000000   0.150000000000000 0
ion Co   0.000000000000000   0.500000000000000   0.150000000000000 0
ion Co   0.500000000000000   0.500000000000000   0.150000000000000 0
ion Co   0.250000000000000   0.250000000000000   0.050000000000000 0
ion Co   0.250000000000000   0.750000000000000   0.050000000000000 0
ion Co  -0.250000000000000   0.250000000000000   0.050000000000000 0
ion Co  -0.250000000000000   0.750000000000000   0.050000000000000 0
ion Co   0.000000000000000   0.000000000000000  -0.050000000000000 0
ion Co   0.500000000000000   0.000000000000000  -0.050000000000000 0
ion Co   0.000000000000000   0.500000000000000  -0.050000000000000 0
ion Co   0.500000000000000   0.500000000000000  -0.050000000000000 0
ion Co   0.250000000000000   0.250000000000000  -0.150000000000000 0
ion Co   0.250000000000000   0.750000000000000  -0.150000000000000 0
ion Co  -0.250000000000000   0.250000000000000  -0.150000000000000 0
ion Co  -0.250000000000000   0.750000000000000  -0.150000000000000 0
ion O   0.250000000000000   0.250000000000000   0.150000000000000 0
ion O   0.250000000000000   0.750000000000000   0.150000000000000 0
ion O  -0.250000000000000   0.250000000000000   0.150000000000000 0
ion O  -0.250000000000000   0.750000000000000   0.150000000000000 0
ion O   0.000000000000000   0.000000000000000   0.050000000000000 0
ion O   0.500000000000000   0.000000000000000   0.050000000000000 0
ion O   0.000000000000000   0.500000000000000   0.050000000000000 0
ion O   0.500000000000000   0.500000000000000   0.050000000000000 0
ion O   0.250000000000000   0.250000000000000  -0.050000000000000 0
ion O   0.250000000000000   0.750000000000000  -0.050000000000000 0
ion O  -0.250000000000000   0.250000000000000  -0.050000000000000 0
ion O  -0.250000000000000   0.750000000000000  -0.050000000000000 0
ion O   0.000000000000000   0.000000000000000  -0.150000000000000 0
ion O   0.500000000000000   0.000000000000000  -0.150000000000000 0
ion O   0.000000000000000   0.500000000000000  -0.150000000000000 0
ion O   0.500000000000000   0.500000000000000  -0.150000000000000 0
ion O  -0.006809940658842  -0.006808339668954   0.235752621738329 1
ion H   0.103995626339120   0.103995781783951   0.250162572168987 1

# Forces in Lattice coordinates:
force Co  -0.004230540176895  -0.004226108770626   0.575466240996706 0
force Co   0.022059695946871  -0.013789420347147  -0.082404803625989 0
force Co  -0.013789968595811   0.022057546603334  -0.082404151559038 0
force Co   0.014188649135178   0.014188055578901  -0.162259720517031 0
force Co   0.014997946507658   0.014997762612329   0.313702918510842 0
[...]
force Co   0.011065588679578  -0.011857237077488   0.358701004222167 0
force Co  -0.011857548380846   0.011065223173164   0.358703762932793 0
force Co  -0.016046813520707  -0.016046487740147   0.389301030237498 0
force Co  -0.001214041067548  -0.001214673969104  -0.599592219647084 0
force Co   0.000024016119160   0.000326515372252  -0.349987382905322 0
force Co   0.000327128079905   0.000024545243422  -0.349988262157884 0
force Co  -0.000228219826261  -0.000227447484317  -0.316016391538883 0
force Co   0.003991826657157   0.003991908377554   0.106878496162761 0
force Co   0.003326051534736  -0.003601999008884   0.103901151810087 0
force Co  -0.003601951398180   0.003326202189893   0.103900252011463 0
force Co  -0.003451880043148  -0.003451961316456   0.112632000496593 0
force O   0.027714117336767   0.027713667413505  -0.657023298271133 0
force O   0.046035527678242  -0.042361242116015  -0.841318660595315 0
force O  -0.042356862201527   0.046031739446718  -0.841322941057804 0
force O  -0.045116443312524  -0.045116418331831  -0.821639259221818 0
force O  -0.001309014512468  -0.001306382675124  -0.087465882786703 0
force O  -0.001225285528916   0.000702732552758  -0.139127120081349 0
force O   0.000702996658307  -0.001225194432802  -0.139126501922475 0
force O  -0.000631697721378  -0.000632593609301  -0.146925587136004 0
force O  -0.002339069573979  -0.002338763560918   0.284767544491813 0
force O  -0.000700117514856   0.000902103552000   0.281101047302391 0
force O   0.000902259798748  -0.000700189791696   0.281102076182505 0
force O   0.002081434724862   0.002081653023752   0.267002404094044 0
force O  -0.000008305480526  -0.000007877847035   0.742805499060623 0
force O   0.000067870748471  -0.000114297572178   0.479088719143030 0
force O  -0.000114372752251   0.000067839242447   0.479088674671054 0
force O   0.000098994308521   0.000098911665174   0.409480531109873 0
force O  -0.015357125799103  -0.015334304281122  -0.033404860744170 1
force H   0.001173547077047   0.001170441628713   0.077540413674460 1

# Energy components:
   Eewald =     6582.8735346612684225
       EH =     8791.4743226251866872
     Eloc =   -17904.6102196572246612
      Enl =     -752.5532796404968394
   Epulay =        0.0001960516836434
      Exc =     -281.1214237731383605
       KE =     1123.9391530731154489
-------------------------------------
     Etot =    -2439.9977166596054303
       TS =        0.0069844305899941
-------------------------------------
        F =    -2440.0047010901953399

IonicMinimize: Iter:   5  F: -2440.004701090195340  |grad|_K:  1.164e-03  alpha:  1.000e+00  linmin:  9.332e-03  t[s]:   7687.35

#--- Lowdin population analysis ---
# oxidation-state Co +1.087 +0.967 +0.967 +0.949 +0.926 +0.927 +0.927 +0.926 +0.931 +0.922 +0.922 +0.920 +0.910 +0.910 +0.910 +0.911
# oxidation-state O -0.823 -0.803 -0.803 -0.802 -0.848 -0.816 -0.816 -0.816 -0.819 -0.819 -0.819 -0.819 -0.831 -0.837 -0.837 -0.841 -0.714
# oxidation-state H +0.385


-------- Electronic minimization -----------
	FillingsUpdate:  mu: +0.129884157  nElectrons: 375.000000
ElecMinimize: Iter:   0  F: -2440.003498480442886  |grad|_K:  1.031e-05  alpha:  1.000e+00
	FillingsUpdate:  mu: +0.120179063  nElectrons: 375.000000
	SubspaceRotationAdjust: set factor to 0.0533
ElecMinimize: Iter:   1  F: -2440.004663532562518  |grad|_K:  1.175e-06  alpha:  1.315e-01  linmin:  2.786e-03  t[s]:   7747.48
	FillingsUpdate:  mu: +0.120202265  nElectrons: 375.000000
	SubspaceRotationAdjust: set factor to 0.0657
ElecMinimize: Iter:   2  F: -2440.004691767107488  |grad|_K:  5.396e-07  alpha:  2.455e-01  linmin:  1.153e-05  t[s]:   7781.54
	FillingsUpdate:  mu: +0.120279722  nElectrons: 375.000000
	SubspaceRotationAdjust: set factor to 0.0589
ElecMinimize: Iter:   3  F: -2440.004699101755250  |grad|_K:  4.516e-07  alpha:  3.021e-01  linmin:  4.606e-06  t[s]:   7815.51
	FillingsUpdate:  mu: +0.120313130  nElectrons: 375.000000
	SubspaceRotationAdjust: set factor to 0.0359
ElecMinimize: Iter:   4  F: -2440.004700775112269  |grad|_K:  3.470e-07  alpha:  9.827e-02  linmin: -1.386e-04  t[s]:   7849.53
	FillingsUpdate:  mu: +0.120317467  nElectrons: 375.000000
	SubspaceRotationAdjust: set factor to 0.045
ElecMinimize: Iter:   5  F: -2440.004703221478849  |grad|_K:  2.257e-07  alpha:  2.432e-01  linmin: -2.911e-04  t[s]:   7883.35
	FillingsUpdate:  mu: +0.120317431  nElectrons: 375.000000
	SubspaceRotationAdjust: set factor to 0.0417
ElecMinimize: Iter:   6  F: -2440.004704560773916  |grad|_K:  1.954e-07  alpha:  3.147e-01  linmin: -1.673e-04  t[s]:   7916.90
	FillingsUpdate:  mu: +0.120328865  nElectrons: 375.000000
	SubspaceRotationAdjust: set factor to 0.0278
ElecMinimize: Iter:   7  F: -2440.004705047029802  |grad|_K:  1.523e-07  alpha:  1.526e-01  linmin: -2.474e-06  t[s]:   7950.56
	FillingsUpdate:  mu: +0.120330199  nElectrons: 375.000000
	SubspaceRotationAdjust: set factor to 0.0305
ElecMinimize: Iter:   8  F: -2440.004705508035386  |grad|_K:  9.615e-08  alpha:  2.384e-01  linmin: -5.635e-05  t[s]:   7984.11
	FillingsUpdate:  mu: +0.120331910  nElectrons: 375.000000
	SubspaceRotationAdjust: set factor to 0.0318
ElecMinimize: Iter:   9  F: -2440.004705736553660  |grad|_K:  8.290e-08  alpha:  2.958e-01  linmin: -2.892e-04  t[s]:   8018.04
	FillingsUpdate:  mu: +0.120338397  nElectrons: 375.000000
	SubspaceRotationAdjust: set factor to 0.0244
ElecMinimize: Iter:  10  F: -2440.004705868651399  |grad|_K:  6.393e-08  alpha:  2.303e-01  linmin:  1.673e-04  t[s]:   8052.24
	FillingsUpdate:  mu: +0.120339872  nElectrons: 375.000000
	SubspaceRotationAdjust: set factor to 0.0269
ElecMinimize: Iter:  11  F: -2440.004705958628165  |grad|_K:  4.718e-08  alpha:  2.656e-01  linmin: -2.004e-05  t[s]:   8086.27
ElecMinimize: Converged (|Delta F|<1.000000e-06 for 5 iters).
Setting wave functions to eigenvectors of Hamiltonian

# Ionic positions in lattice coordinates:
ion Co   0.000000000000000   0.000000000000000   0.150000000000000 0
ion Co   0.500000000000000   0.000000000000000   0.150000000000000 0
ion Co   0.000000000000000   0.500000000000000   0.150000000000000 0
ion Co   0.500000000000000   0.500000000000000   0.150000000000000 0
ion Co   0.250000000000000   0.250000000000000   0.050000000000000 0
ion Co   0.250000000000000   0.750000000000000   0.050000000000000 0
ion Co  -0.250000000000000   0.250000000000000   0.050000000000000 0
ion Co  -0.250000000000000   0.750000000000000   0.050000000000000 0
ion Co   0.000000000000000   0.000000000000000  -0.050000000000000 0
ion Co   0.500000000000000   0.000000000000000  -0.050000000000000 0
ion Co   0.000000000000000   0.500000000000000  -0.050000000000000 0
ion Co   0.500000000000000   0.500000000000000  -0.050000000000000 0
ion Co   0.250000000000000   0.250000000000000  -0.150000000000000 0
ion Co   0.250000000000000   0.750000000000000  -0.150000000000000 0
ion Co  -0.250000000000000   0.250000000000000  -0.150000000000000 0
ion Co  -0.250000000000000   0.750000000000000  -0.150000000000000 0
ion O   0.250000000000000   0.250000000000000   0.150000000000000 0
ion O   0.250000000000000   0.750000000000000   0.150000000000000 0
ion O  -0.250000000000000   0.250000000000000   0.150000000000000 0
ion O  -0.250000000000000   0.750000000000000   0.150000000000000 0
ion O   0.000000000000000   0.000000000000000   0.050000000000000 0
ion O   0.500000000000000   0.000000000000000   0.050000000000000 0
ion O   0.000000000000000   0.500000000000000   0.050000000000000 0
ion O   0.500000000000000   0.500000000000000   0.050000000000000 0
ion O   0.250000000000000   0.250000000000000  -0.050000000000000 0
ion O   0.250000000000000   0.750000000000000  -0.050000000000000 0
ion O  -0.250000000000000   0.250000000000000  -0.050000000000000 0
ion O  -0.250000000000000   0.750000000000000  -0.050000000000000 0
ion O   0.000000000000000   0.000000000000000  -0.150000000000000 0
ion O   0.500000000000000   0.000000000000000  -0.150000000000000 0
ion O   0.000000000000000   0.500000000000000  -0.150000000000000 0
ion O   0.500000000000000   0.500000000000000  -0.150000000000000 0
ion O  -0.006265225748716  -0.006264797594478   0.236460702875812 1
ion H   0.102960271034467   0.102960394858800   0.250246976102344 1

# Forces in Lattice coordinates:
force Co  -0.004903735202805  -0.004903491695149   0.746525752945145 0
force Co   0.021704443306938  -0.013720502291401  -0.082165238558126 0
force Co  -0.013720404919539   0.021703997510085  -0.082165505250490 0
force Co   0.014122417490865   0.014122458084649  -0.161032582297252 0
force Co   0.015266013649003   0.015266108501804   0.306925212351714 0
force Co   0.011720301358819  -0.012534226626247   0.350510603061280 0
force Co  -0.012534201142913   0.011720387794496   0.350509540066863 0
force Co  -0.016733111258627  -0.016733128884232   0.382638815808717 0
force Co  -0.001191482023904  -0.001191236857276  -0.605092201549994 0
force Co   0.000000469274561   0.000357744413754  -0.354233576047142 0
force Co   0.000357484250375   0.000000180170924  -0.354232559787716 0
force Co  -0.000255175535078  -0.000255392916100  -0.319489833081695 0
force Co   0.004130907670605   0.004130913016287   0.108872233567444 0
force Co   0.003441298816356  -0.003730616560498   0.105606669592770 0
force Co  -0.003730622270162   0.003441332627935   0.105607550922064 0
force Co  -0.003585060973004  -0.003585092395242   0.114393525567786 0
force O   0.028155326659227   0.028155591355611  -0.655052356459912 0
force O   0.046610875700804  -0.042905436196288  -0.842697675143295 0
force O  -0.042908825955525   0.046612352001113  -0.842696311977043 0
force O  -0.046507820946176  -0.046507971689272  -0.828666664464533 0
force O  -0.001144752463810  -0.001145824928680  -0.111271510349591 0
force O  -0.001372191196571   0.000538246080718  -0.181162586726806 0
force O   0.000538389890081  -0.001372100505963  -0.181158453075420 0
force O  -0.000755121761058  -0.000754608287067  -0.178691462276429 0
force O  -0.003015998186570  -0.003016274110870   0.259710555511030 0
force O  -0.000979769994899   0.001132684770051   0.255641314406042 0
force O   0.001132450908621  -0.000980006846082   0.255641003728379 0
force O   0.002884709675852   0.002884745659982   0.240042280839322 0
force O   0.000080065345476   0.000079915631534   0.737707969322559 0
force O   0.000055467759233  -0.000050687475725   0.471532841631051 0
force O  -0.000050678755059   0.000055413843104   0.471532822206616 0
force O   0.000030955566994   0.000030903543184   0.407741070768489 0
force O  -0.003591460022324  -0.003598606993830  -0.004403340681742 1
force H  -0.004122552029680  -0.004121825340482   0.068353731199795 1

# Energy components:
   Eewald =     6582.8750933512574193
       EH =     8791.4621840319014154
     Eloc =   -17904.5992406464392843
      Enl =     -752.5530753958340711
   Epulay =        0.0001960516836434
      Exc =     -281.1213435870387229
       KE =     1123.9384587608760739
-------------------------------------
     Etot =    -2439.9977274335942639
       TS =        0.0069785250337798
-------------------------------------
        F =    -2440.0047059586281648

IonicMinimize: Iter:   6  F: -2440.004705958628165  |grad|_K:  7.518e-04  alpha:  1.000e+00  linmin: -2.902e-02  t[s]:   8095.90

#--- Lowdin population analysis ---
# oxidation-state Co +1.083 +0.955 +0.955 +0.939 +0.925 +0.925 +0.925 +0.925 +0.931 +0.922 +0.922 +0.921 +0.920 +0.921 +0.921 +0.921
# oxidation-state O -0.824 -0.804 -0.804 -0.803 -0.849 -0.817 -0.817 -0.816 -0.818 -0.819 -0.819 -0.819 -0.830 -0.836 -0.836 -0.840 -0.710
# oxidation-state H +0.384


-------- Electronic minimization -----------
	FillingsUpdate:  mu: +0.120875660  nElectrons: 375.000000
ElecMinimize: Iter:   0  F: -2440.004658952062073  |grad|_K:  1.879e-06  alpha:  1.000e+00
	FillingsUpdate:  mu: +0.120717656  nElectrons: 375.000000
	SubspaceRotationAdjust: set factor to 0.0177
ElecMinimize: Iter:   1  F: -2440.004721002476799  |grad|_K:  7.507e-07  alpha:  2.109e-01  linmin:  2.661e-04  t[s]:   8155.62
	FillingsUpdate:  mu: +0.120649657  nElectrons: 375.000000
	SubspaceRotationAdjust: set factor to 0.0104
ElecMinimize: Iter:   2  F: -2440.004729975353712  |grad|_K:  3.831e-07  alpha:  1.910e-01  linmin:  1.760e-05  t[s]:   8189.47
	FillingsUpdate:  mu: +0.120582365  nElectrons: 375.000000
	SubspaceRotationAdjust: set factor to 0.014
ElecMinimize: Iter:   3  F: -2440.004733916242458  |grad|_K:  2.137e-07  alpha:  3.221e-01  linmin:  7.133e-05  t[s]:   8223.69
	FillingsUpdate:  mu: +0.120551446  nElectrons: 375.000000
	SubspaceRotationAdjust: set factor to 0.0137
ElecMinimize: Iter:   4  F: -2440.004735131177767  |grad|_K:  1.449e-07  alpha:  3.192e-01  linmin:  3.666e-05  t[s]:   8257.88
	FillingsUpdate:  mu: +0.120539207  nElectrons: 375.000000
	SubspaceRotationAdjust: set factor to 0.0158
ElecMinimize: Iter:   5  F: -2440.004735734562018  |grad|_K:  1.010e-07  alpha:  3.450e-01  linmin:  1.791e-04  t[s]:   8291.77
	FillingsUpdate:  mu: +0.120532617  nElectrons: 375.000000
	SubspaceRotationAdjust: set factor to 0.0184
ElecMinimize: Iter:   6  F: -2440.004736093434531  |grad|_K:  7.751e-08  alpha:  4.218e-01  linmin: -2.853e-04  t[s]:   8325.55
	FillingsUpdate:  mu: +0.120521445  nElectrons: 375.000000
	SubspaceRotationAdjust: set factor to 0.0213
ElecMinimize: Iter:   7  F: -2440.004736336691622  |grad|_K:  7.640e-08  alpha:  4.848e-01  linmin:  1.548e-04  t[s]:   8359.25
	FillingsUpdate:  mu: +0.120513286  nElectrons: 375.000000
	SubspaceRotationAdjust: set factor to 0.0253
ElecMinimize: Iter:   8  F: -2440.004736565100757  |grad|_K:  8.203e-08  alpha:  4.698e-01  linmin:  8.888e-06  t[s]:   8393.36
	FillingsUpdate:  mu: +0.120498441  nElectrons: 375.000000
	SubspaceRotationAdjust: set factor to 0.0287
ElecMinimize: Iter:   9  F: -2440.004736901582874  |grad|_K:  9.826e-08  alpha:  6.004e-01  linmin:  2.667e-05  t[s]:   8427.35
ElecMinimize: Converged (|Delta F|<1.000000e-06 for 5 iters).
Setting wave functions to eigenvectors of Hamiltonian

# Ionic positions in lattice coordinates:
ion Co   0.000000000000000   0.000000000000000   0.150000000000000 0
ion Co   0.500000000000000   0.000000000000000   0.150000000000000 0
ion Co   0.000000000000000   0.500000000000000   0.150000000000000 0
ion Co   0.500000000000000   0.500000000000000   0.150000000000000 0
ion Co   0.250000000000000   0.250000000000000   0.050000000000000 0
ion Co   0.250000000000000   0.750000000000000   0.050000000000000 0
ion Co  -0.250000000000000   0.250000000000000   0.050000000000000 0
ion Co  -0.250000000000000   0.750000000000000   0.050000000000000 0
ion Co   0.000000000000000   0.000000000000000  -0.050000000000000 0
ion Co   0.500000000000000   0.000000000000000  -0.050000000000000 0
ion Co   0.000000000000000   0.500000000000000  -0.050000000000000 0
ion Co   0.500000000000000   0.500000000000000  -0.050000000000000 0
ion Co   0.250000000000000   0.250000000000000  -0.150000000000000 0
ion Co   0.250000000000000   0.750000000000000  -0.150000000000000 0
ion Co  -0.250000000000000   0.250000000000000  -0.150000000000000 0
ion Co  -0.250000000000000   0.750000000000000  -0.150000000000000 0
ion O   0.250000000000000   0.250000000000000   0.150000000000000 0
ion O   0.250000000000000   0.750000000000000   0.150000000000000 0
ion O  -0.250000000000000   0.250000000000000   0.150000000000000 0
ion O  -0.250000000000000   0.750000000000000   0.150000000000000 0
ion O   0.000000000000000   0.000000000000000   0.050000000000000 0
ion O   0.500000000000000   0.000000000000000   0.050000000000000 0
ion O   0.000000000000000   0.500000000000000   0.050000000000000 0
ion O   0.500000000000000   0.500000000000000   0.050000000000000 0
ion O   0.250000000000000   0.250000000000000  -0.050000000000000 0
ion O   0.250000000000000   0.750000000000000  -0.050000000000000 0
ion O  -0.250000000000000   0.250000000000000  -0.050000000000000 0
ion O  -0.250000000000000   0.750000000000000  -0.050000000000000 0
ion O   0.000000000000000   0.000000000000000  -0.150000000000000 0
ion O   0.500000000000000   0.000000000000000  -0.150000000000000 0
ion O   0.000000000000000   0.500000000000000  -0.150000000000000 0
ion O   0.500000000000000   0.500000000000000  -0.150000000000000 0
ion O  -0.006552872026275  -0.006552919575627   0.236481928925094 1
ion H   0.102363830060025   0.102363894045823   0.250675685372107 1

# Forces in Lattice coordinates:
force Co  -0.002484335865542  -0.002485087766658   0.728305058070307 0
force Co   0.020649548935785  -0.012975714646408  -0.085426369704297 0
force Co  -0.012975724937117   0.020649703834419  -0.085428051153555 0
force Co   0.013470841457452   0.013470621625416  -0.166130150065718 0
force Co   0.014618179478805   0.014617891268780   0.311913584937606 0
force Co   0.011249322547311  -0.011978237575923   0.353941996954324 0
force Co  -0.011978511713358   0.011248694064279   0.353943801409731 0
force Co  -0.016128886356904  -0.016128451745366   0.384486583599816 0
force Co  -0.001192269094967  -0.001192628720430  -0.601846455671240 0
force Co  -0.000029753040969   0.000356153174753  -0.351531292900188 0
force Co   0.000356410469151  -0.000029486418230  -0.351532428843687 0
force Co  -0.000251952934852  -0.000251768102833  -0.317119792189452 0
force Co   0.004021683697932   0.004021643910234   0.108626642032004 0
force Co   0.003352738873978  -0.003623421603861   0.105498328394297 0
force Co  -0.003623404003679   0.003352718181972   0.105496554505913 0
force Co  -0.003463869208401  -0.003463862519632   0.114306130330913 0
force O   0.026395786819144   0.026397878273992  -0.660334768081867 0
force O   0.046230926935118  -0.042285060033571  -0.842662324500075 0
force O  -0.042284537786011   0.046229085307107  -0.842666063157530 0
force O  -0.045321378318735  -0.045318749672943  -0.838855947171490 0
force O  -0.001331857562691  -0.001335589380931  -0.088151728053746 0
force O  -0.001076228437989   0.000164284548544  -0.174668865712527 0
force O   0.000165485095919  -0.001076512649956  -0.174660618527853 0
force O  -0.000242335192021  -0.000242229613481  -0.189595848533174 0
force O  -0.003024581880626  -0.003025190554995   0.243588278557871 0
force O  -0.001220610373459   0.001392691962137   0.244622554050283 0
force O   0.001392633296397  -0.001220228880557   0.244620442351332 0
force O   0.002940824952726   0.002940213715438   0.229287027759215 0
force O  -0.000005536149109  -0.000005958096143   0.735565163842633 0
force O   0.000085270769047  -0.000109533133393   0.475087416844694 0
force O  -0.000109516192321   0.000085430106788   0.475089258763523 0
force O   0.000051848647945   0.000052056094758   0.401902545113929 0
force O   0.000780171010316   0.000828022356043   0.018106596224241 1
force H  -0.003132812980106  -0.003133444941308   0.043521533160018 1

# Energy components:
   Eewald =     6582.6697442146487447
       EH =     8791.3158839466941572
     Eloc =   -17904.2472711040063587
      Enl =     -752.5534441638118324
   Epulay =        0.0001960516836434
      Exc =     -281.1210029703942155
       KE =     1123.9381422658443626
-------------------------------------
     Etot =    -2439.9977517593415541
       TS =        0.0069851422413871
-------------------------------------
        F =    -2440.0047369015828735

IonicMinimize: Iter:   7  F: -2440.004736901582874  |grad|_K:  5.080e-04  alpha:  1.000e+00  linmin: -1.794e-02  t[s]:   8436.78
IonicMinimize: Converged (|Delta F|<1.000000e-04 for 3 iters).

#--- Lowdin population analysis ---
# oxidation-state Co +1.085 +0.950 +0.950 +0.934 +0.924 +0.925 +0.925 +0.924 +0.931 +0.922 +0.922 +0.921 +0.925 +0.925 +0.925 +0.926
# oxidation-state O -0.824 -0.804 -0.804 -0.803 -0.848 -0.817 -0.817 -0.816 -0.818 -0.819 -0.819 -0.819 -0.830 -0.836 -0.836 -0.839 -0.716
# oxidation-state H +0.385


Dumping 'OH.ionpos' ... done
Dumping 'OH.lattice' ... done
Dumping 'OH.Ecomponents' ... done
End date and time: Fri May  2 03:07:21 2025  (Duration: 0-2:20:40.14)
Done!
