
*************** JDFTx 1.7.0  ***************

Start date and time: Thu May  1 22:45:36 2025
Executable /data2/jt577/jdftx_eat_withLibXC/build/jdftx with command-line: -i /data2/jt577/March_2025/pure_RSO/ionic_relax_noMagnetism/pure_CrO/runs/calc_20250501-224536/O/O.in
Running on hosts (process indices):  node3213 (0-8)
Divided in process groups (process indices):  0 (0)  1 (1)  2 (2)  3 (3)  4 (4)  5 (5)  6 (6)  7 (7)  8 (8)
Resource initialization completed at t[s]:      0.00
Run totals: 9 processes, 36 threads, 0 GPUs


Input parsed successfully to the following command list (including defaults):

add-mix 
basis kpoint-dependent
coords-type Lattice
core-overlap-check vector
coulomb-interaction Periodic
davidson-band-ratio 1.1
dump End IonicPositions Lattice Ecomponents
dump-name O.$VAR
elec-cutoff 30
elec-eigen-algo Davidson
elec-ex-corr gga-x-rpbe gga-c-pbe
elec-smearing Fermi 0.001
electronic-minimize  \
	dirUpdateScheme      FletcherReeves \
	linminMethod         DirUpdateRecommended \
	nIterations          1000 \
	history              15 \
	knormThreshold       0 \
	energyDiffThreshold  1e-06 \
	nEnergyDiff          5 \
	alphaTstart          1 \
	alphaTmin            1e-10 \
	updateTestStepSize   yes \
	alphaTreduceFactor   0.1 \
	alphaTincreaseFactor 3 \
	nAlphaAdjustMax      3 \
	wolfeEnergy          0.0001 \
	wolfeGradient        0.9 \
	fdTest               no
exchange-regularization WignerSeitzTruncated
fluid None
fluid-ex-corr (null) lda-PZ
fluid-gummel-loop 10 1.000000e-05
fluid-minimize  \
	dirUpdateScheme      PolakRibiere \
	linminMethod         DirUpdateRecommended \
	nIterations          100 \
	history              15 \
	knormThreshold       0 \
	energyDiffThreshold  0 \
	nEnergyDiff          2 \
	alphaTstart          1 \
	alphaTmin            1e-10 \
	updateTestStepSize   yes \
	alphaTreduceFactor   0.1 \
	alphaTincreaseFactor 3 \
	nAlphaAdjustMax      3 \
	wolfeEnergy          0.0001 \
	wolfeGradient        0.9 \
	fdTest               no
fluid-solvent H2O 55.338 ScalarEOS \
	epsBulk 78.4 \
	pMol 0.92466 \
	epsInf 1.77 \
	Pvap 1.06736e-10 \
	sigmaBulk 4.62e-05 \
	Rvdw 2.61727 \
	Res 1.42 \
	tauNuc 343133 \
	poleEl 15 7 1
forces-output-coords Positions
initial-state O.$VAR
ion Cr  0.000000000000000   0.000000000000000   0.150000000000000 0
ion Cr  0.500000000000000   0.000000000000000   0.150000000000000 0
ion Cr  0.000000000000000   0.500000000000000   0.150000000000000 0
ion Cr  0.500000000000000   0.500000000000000   0.150000000000000 0
ion Cr  0.250000000000000   0.250000000000000   0.050000000000000 0
ion Cr  0.250000000000000   0.750000000000000   0.050000000000000 0
ion Cr -0.250000000000000   0.250000000000000   0.050000000000000 0
ion Cr -0.250000000000000   0.750000000000000   0.050000000000000 0
ion Cr  0.000000000000000   0.000000000000000  -0.050000000000000 0
ion Cr  0.500000000000000   0.000000000000000  -0.050000000000000 0
ion Cr  0.000000000000000   0.500000000000000  -0.050000000000000 0
ion Cr  0.500000000000000   0.500000000000000  -0.050000000000000 0
ion Cr  0.250000000000000   0.250000000000000  -0.150000000000000 0
ion Cr  0.250000000000000   0.750000000000000  -0.150000000000000 0
ion Cr -0.250000000000000   0.250000000000000  -0.150000000000000 0
ion Cr -0.250000000000000   0.750000000000000  -0.150000000000000 0
ion O  0.250000000000000   0.250000000000000   0.150000000000000 0
ion O  0.250000000000000   0.750000000000000   0.150000000000000 0
ion O -0.250000000000000   0.250000000000000   0.150000000000000 0
ion O -0.250000000000000   0.750000000000000   0.150000000000000 0
ion O  0.000000000000000   0.000000000000000   0.050000000000000 0
ion O  0.500000000000000   0.000000000000000   0.050000000000000 0
ion O  0.000000000000000   0.500000000000000   0.050000000000000 0
ion O  0.500000000000000   0.500000000000000   0.050000000000000 0
ion O  0.250000000000000   0.250000000000000  -0.050000000000000 0
ion O  0.250000000000000   0.750000000000000  -0.050000000000000 0
ion O -0.250000000000000   0.250000000000000  -0.050000000000000 0
ion O -0.250000000000000   0.750000000000000  -0.050000000000000 0
ion O  0.000000000000000   0.000000000000000  -0.150000000000000 0
ion O  0.500000000000000   0.000000000000000  -0.150000000000000 0
ion O  0.000000000000000   0.500000000000000  -0.150000000000000 0
ion O  0.500000000000000   0.500000000000000  -0.150000000000000 0
ion O  0.000000000000000   0.000000000000000   0.230000000000000 1
ion-species SG15/$ID_ONCV_PBE.upf
ion-width 0
ionic-minimize  \
	dirUpdateScheme      L-BFGS \
	linminMethod         DirUpdateRecommended \
	nIterations          1000 \
	history              15 \
	knormThreshold       0.0001 \
	energyDiffThreshold  0.0001 \
	nEnergyDiff          3 \
	alphaTstart          1 \
	alphaTmin            1e-10 \
	updateTestStepSize   yes \
	alphaTreduceFactor   0.1 \
	alphaTincreaseFactor 3 \
	nAlphaAdjustMax      3 \
	wolfeEnergy          0.0001 \
	wolfeGradient        0.9 \
	fdTest               no
kpoint   0.500000000000   0.500000000000   0.500000000000  1.00000000000000
kpoint-folding 3 3 1 
latt-move-scale 1 1 1
latt-scale 1 1 1 
lattice  \
	   8.410000000000000    8.410000000000000    0.000000000000000  \
	   8.410000000000000   -8.410000000000000    0.000000000000000  \
	   0.000000000000000    0.000000000000000   42.049999999999997 
lattice-minimize  \
	dirUpdateScheme      L-BFGS \
	linminMethod         DirUpdateRecommended \
	nIterations          0 \
	history              15 \
	knormThreshold       0 \
	energyDiffThreshold  1e-06 \
	nEnergyDiff          2 \
	alphaTstart          1 \
	alphaTmin            1e-10 \
	updateTestStepSize   yes \
	alphaTreduceFactor   0.1 \
	alphaTincreaseFactor 3 \
	nAlphaAdjustMax      3 \
	wolfeEnergy          0.0001 \
	wolfeGradient        0.9 \
	fdTest               no
lcao-params -1 1e-06 0.001
pcm-variant GLSSA13
spintype no-spin
subspace-rotation-factor 1 yes
symmetries none
symmetry-threshold 0.0001


Applied RMS atom displacement 0 bohrs to make symmetries exact.

---------- Initializing the Grid ----------
R = 
[         8.41         8.41            0  ]
[         8.41        -8.41            0  ]
[            0            0        42.05  ]
unit cell volume = 5948.23
G =
[   0.373554   0.373554         -0  ]
[   0.373554  -0.373554         -0  ]
[         -0         -0   0.149422  ]
Minimum fftbox size, Smin = [  60  60  208  ]
Chosen fftbox size, S = [  60  60  210  ]

---------- Exchange Correlation functional ----------
Initialized LibXC exchange functional 'Hammer, Hansen, and Norskov'
Initialized LibXC correlation functional 'Perdew, Burke & Ernzerhof'

---------- Setting up pseudopotentials ----------
Width of ionic core gaussian charges (only for fluid interactions / plotting) set to 0

Reading pseudopotential file '/data2/jt577/jdftx_eat_withLibXC/build/pseudopotentials/SG15/Cr_ONCV_PBE.upf':
  'Cr' pseudopotential, 'PBE' functional
  Generated using ONCVPSP code by D. R. Hamann
  Author: Martin Schlipf and Francois Gygi  Date: 150915.
  14 valence electrons, 4 orbitals, 6 projectors, 1160 radial grid points, with lMax = 2
  Transforming local potential to a uniform radial grid of dG=0.02 with 1373 points.
  Transforming nonlocal projectors to a uniform radial grid of dG=0.02 with 528 points.
    3S    l: 0   occupation:  2.0   eigenvalue: -2.865131
    3P    l: 1   occupation:  6.0   eigenvalue: -1.810600
    4S    l: 0   occupation:  2.0   eigenvalue: -0.180525
    3D    l: 2   occupation:  4.0   eigenvalue: -0.220312
  Transforming atomic orbitals to a uniform radial grid of dG=0.02 with 528 points.
  WARNING: large normalization error in atomic orbital 1s (integral: 0.000001).
  Core radius for overlap checks: 2.10 bohrs.
  Reading pulay file /data2/jt577/jdftx_eat_withLibXC/build/pseudopotentials/SG15/Cr_ONCV_PBE.pulay ... using dE_dnG = -9.817895e-06 computed for Ecut = 30.

Reading pseudopotential file '/data2/jt577/jdftx_eat_withLibXC/build/pseudopotentials/SG15/O_ONCV_PBE.upf':
  'O' pseudopotential, 'PBE' functional
  Generated using ONCVPSP code by D. R. Hamann
  Author: Martin Schlipf and Francois Gygi  Date: 150915.
  6 valence electrons, 2 orbitals, 4 projectors, 936 radial grid points, with lMax = 1
  Transforming local potential to a uniform radial grid of dG=0.02 with 1373 points.
  Transforming nonlocal projectors to a uniform radial grid of dG=0.02 with 528 points.
    2S    l: 0   occupation:  2.0   eigenvalue: -0.880572
    2P    l: 1   occupation:  4.0   eigenvalue: -0.331869
  Transforming atomic orbitals to a uniform radial grid of dG=0.02 with 528 points.
  Core radius for overlap checks: 1.29 bohrs.
  Reading pulay file /data2/jt577/jdftx_eat_withLibXC/build/pseudopotentials/SG15/O_ONCV_PBE.pulay ... using dE_dnG = -8.209514e-03 computed for Ecut = 30.

Initialized 2 species with 33 total atoms.

Folded 1 k-points by 3x3x1 to 9 k-points.

---------- Setting up k-points, bands, fillings ----------
No reducable k-points. 
Computing the number of bands and number of electrons
Calculating initial fillings.
nElectrons: 326.000000   nBands: 228   nStates: 9

----- Setting up reduced wavefunction bases (one per k-point) -----
average nbasis = 46667.556 , ideal nbasis = 46683.549

---------- Setting up ewald sum ----------
Optimum gaussian width for ewald sums = 4.036024 bohr.
Real space sum over 605 unit cells with max indices [  5  5  2  ]
Reciprocal space sum over 5915 terms with max indices [  6  6  17  ]

---------- Allocating electronic variables ----------
Initializing wave functions:  linear combination of atomic orbitals
Cr pseudo-atom occupations:   s ( 2 0 )  p ( 6 )  d ( 6 )
O pseudo-atom occupations:   s ( 2 )  p ( 4 )
	FillingsUpdate:  mu: +0.890710021  nElectrons: 326.000000
LCAOMinimize: Iter:   0  F: -1479.3435773802834774  |grad|_K:  2.250e-02  alpha:  1.000e+00
LCAOMinimize: 	Step increased F by 1.682046e+02, reducing alpha to 2.448547e-02.
	FillingsUpdate:  mu: +0.626342221  nElectrons: 326.000000
LCAOMinimize: Iter:   1  F: -1484.1561791775807251  |grad|_K:  1.741e-02  alpha:  2.449e-02  linmin: -9.534e-02  cgtest:  6.986e-01  t[s]:     49.77
LCAOMinimize: 	Wrong curvature in test step, increasing alphaT to 7.345640e-02.
	FillingsUpdate:  mu: +0.387727327  nElectrons: 326.000000
LCAOMinimize: Iter:   2  F: -1488.1998429131908779  |grad|_K:  1.820e-02  alpha: -1.420e-01  linmin: -6.379e-02  cgtest:  7.911e-01  t[s]:     61.76
LCAOMinimize: 	Step increased F by 1.557661e+02, reducing alpha to 2.487741e-02.
	FillingsUpdate:  mu: +0.316261186  nElectrons: 326.000000
LCAOMinimize: Iter:   3  F: -1492.6251843244779138  |grad|_K:  1.637e-02  alpha:  2.488e-02  linmin: -8.539e-02  cgtest:  8.854e-01  t[s]:     84.28
LCAOMinimize: 	Predicted alpha/alphaT>3.000000, increasing alphaT to 7.463223e-02.
LCAOMinimize: 	Wrong curvature in test step, increasing alphaT to 2.238967e-01.
	FillingsUpdate:  mu: +0.512005035  nElectrons: 326.000000
LCAOMinimize: Iter:   4  F: -1503.0138965723992897  |grad|_K:  1.996e-02  alpha: -4.412e-01  linmin: -1.433e-01  cgtest:  1.699e-01  t[s]:    100.45
LCAOMinimize: 	Step increased F by 7.558367e+01, reducing alpha to 4.151389e-02.
	FillingsUpdate:  mu: -0.093787573  nElectrons: 326.000000
LCAOMinimize: Iter:   5  F: -1514.1842609314910533  |grad|_K:  3.877e-02  alpha:  4.151e-02  linmin:  1.424e-02  cgtest: -1.807e-01  t[s]:    122.71
	FillingsUpdate:  mu: -0.143192098  nElectrons: 326.000000
LCAOMinimize: Iter:   6  F: -1514.2100270469247789  |grad|_K:  3.241e-02  alpha:  9.870e-04  linmin:  5.014e-03  cgtest:  1.009e+00  t[s]:    135.83
LCAOMinimize: Encountered beta<0, resetting CG.
LCAOMinimize: 	Predicted alpha/alphaT>3.000000, increasing alphaT to 2.961142e-03.
	FillingsUpdate:  mu: -0.028993598  nElectrons: 326.000000
LCAOMinimize: Iter:   7  F: -1516.0160742447353641  |grad|_K:  1.862e-02  alpha:  7.352e-03  linmin:  2.035e-02  cgtest: -4.448e-01  t[s]:    152.71
	FillingsUpdate:  mu: +0.161843456  nElectrons: 326.000000
LCAOMinimize: Iter:   8  F: -1516.3449914199863997  |grad|_K:  2.103e-02  alpha:  3.613e-03  linmin: -7.077e-04  cgtest:  8.243e-01  t[s]:    165.84
	FillingsUpdate:  mu: +0.040279870  nElectrons: 326.000000
LCAOMinimize: Iter:   9  F: -1517.0730798962015342  |grad|_K:  5.109e-03  alpha:  7.046e-03  linmin:  1.694e-02  cgtest:  4.262e-03  t[s]:    179.07
LCAOMinimize: 	Predicted alpha/alphaT>3.000000, increasing alphaT to 2.113774e-02.
	FillingsUpdate:  mu: -0.032302736  nElectrons: 326.000000
LCAOMinimize: Iter:  10  F: -1517.2482947430412423  |grad|_K:  5.121e-03  alpha:  2.854e-02  linmin: -7.254e-03  cgtest:  8.380e-02  t[s]:    196.22
	FillingsUpdate:  mu: -0.020081974  nElectrons: 326.000000
LCAOMinimize: Iter:  11  F: -1517.3292779573027929  |grad|_K:  5.686e-03  alpha:  1.386e-02  linmin:  5.804e-03  cgtest: -1.978e-01  t[s]:    209.32
	FillingsUpdate:  mu: +0.003105955  nElectrons: 326.000000
LCAOMinimize: Iter:  12  F: -1517.4663303838706270  |grad|_K:  2.498e-03  alpha:  1.965e-02  linmin:  2.258e-02  cgtest:  1.402e-01  t[s]:    222.57
	FillingsUpdate:  mu: -0.016094043  nElectrons: 326.000000
LCAOMinimize: Iter:  13  F: -1517.4821992613794919  |grad|_K:  2.074e-03  alpha:  1.107e-02  linmin: -2.205e-03  cgtest:  1.528e-01  t[s]:    235.60
	FillingsUpdate:  mu: -0.023804896  nElectrons: 326.000000
LCAOMinimize: Iter:  14  F: -1517.4941089511321479  |grad|_K:  1.769e-03  alpha:  1.161e-02  linmin: -3.704e-04  cgtest: -4.817e-02  t[s]:    248.72
LCAOMinimize: 	Predicted alpha/alphaT>3.000000, increasing alphaT to 3.483834e-02.
	FillingsUpdate:  mu: -0.040172363  nElectrons: 326.000000
LCAOMinimize: Iter:  15  F: -1517.5553515457363574  |grad|_K:  2.346e-03  alpha:  8.135e-02  linmin: -1.358e-03  cgtest: -3.713e-02  t[s]:    265.81
	FillingsUpdate:  mu: -0.011605329  nElectrons: 326.000000
LCAOMinimize: Iter:  16  F: -1517.5772380807550235  |grad|_K:  3.832e-03  alpha:  2.509e-02  linmin:  6.591e-03  cgtest: -3.284e-01  t[s]:    278.81
	FillingsUpdate:  mu: -0.006297339  nElectrons: 326.000000
LCAOMinimize: Iter:  17  F: -1517.6081776376975085  |grad|_K:  2.925e-03  alpha:  1.362e-02  linmin:  3.298e-04  cgtest:  7.311e-01  t[s]:    292.39
	FillingsUpdate:  mu: -0.043607659  nElectrons: 326.000000
LCAOMinimize: Iter:  18  F: -1517.6298924819250260  |grad|_K:  2.086e-03  alpha:  1.051e-02  linmin:  5.484e-03  cgtest:  2.430e-03  t[s]:    305.75
	FillingsUpdate:  mu: -0.059051655  nElectrons: 326.000000
LCAOMinimize: Iter:  19  F: -1517.6429039751069467  |grad|_K:  1.525e-03  alpha:  1.288e-02  linmin: -3.294e-04  cgtest:  9.204e-02  t[s]:    318.83
	FillingsUpdate:  mu: -0.046222383  nElectrons: 326.000000
LCAOMinimize: Iter:  20  F: -1517.6632010274815912  |grad|_K:  1.031e-03  alpha:  3.696e-02  linmin:  6.731e-05  cgtest: -8.459e-02  t[s]:    331.92
	FillingsUpdate:  mu: -0.048572258  nElectrons: 326.000000
LCAOMinimize: Iter:  21  F: -1517.6656249393920461  |grad|_K:  7.075e-04  alpha:  8.933e-03  linmin: -1.311e-02  cgtest:  9.786e-02  t[s]:    345.07
	FillingsUpdate:  mu: -0.052698832  nElectrons: 326.000000
LCAOMinimize: Iter:  22  F: -1517.6674922645295283  |grad|_K:  3.419e-04  alpha:  1.494e-02  linmin:  5.403e-04  cgtest: -1.437e-01  t[s]:    358.26
LCAOMinimize: 	Predicted alpha/alphaT>3.000000, increasing alphaT to 4.482645e-02.
	FillingsUpdate:  mu: -0.047792918  nElectrons: 326.000000
LCAOMinimize: Iter:  23  F: -1517.6688041198110568  |grad|_K:  4.008e-04  alpha:  4.762e-02  linmin: -7.174e-04  cgtest:  5.682e-02  t[s]:    375.26
	FillingsUpdate:  mu: -0.054253140  nElectrons: 326.000000
LCAOMinimize: Iter:  24  F: -1517.6715779001042392  |grad|_K:  4.838e-04  alpha:  7.275e-02  linmin:  3.648e-04  cgtest: -3.620e-02  t[s]:    388.70
	FillingsUpdate:  mu: -0.053343336  nElectrons: 326.000000
LCAOMinimize: Iter:  25  F: -1517.6723303584694804  |grad|_K:  5.847e-04  alpha:  1.456e-02  linmin:  1.545e-03  cgtest: -3.956e-02  t[s]:    401.96
	FillingsUpdate:  mu: -0.054200590  nElectrons: 326.000000
LCAOMinimize: Iter:  26  F: -1517.6755321767968780  |grad|_K:  3.583e-04  alpha:  4.137e-02  linmin: -8.645e-04  cgtest:  3.255e-01  t[s]:    415.07
	FillingsUpdate:  mu: -0.057223161  nElectrons: 326.000000
LCAOMinimize: Iter:  27  F: -1517.6760843966430912  |grad|_K:  3.576e-04  alpha:  1.792e-02  linmin: -4.139e-04  cgtest:  2.242e-03  t[s]:    428.09
	FillingsUpdate:  mu: -0.057245373  nElectrons: 326.000000
LCAOMinimize: Iter:  28  F: -1517.6764812422197792  |grad|_K:  2.662e-04  alpha:  1.312e-02  linmin: -1.119e-04  cgtest: -7.617e-03  t[s]:    441.15
	FillingsUpdate:  mu: -0.056210128  nElectrons: 326.000000
LCAOMinimize: Iter:  29  F: -1517.6767894796528253  |grad|_K:  7.825e-05  alpha:  1.839e-02  linmin: -1.513e-03  cgtest: -3.003e-03  t[s]:    454.20
	FillingsUpdate:  mu: -0.056748336  nElectrons: 326.000000
LCAOMinimize: Iter:  30  F: -1517.6768528615020841  |grad|_K:  1.031e-04  alpha:  4.372e-02  linmin:  9.595e-05  cgtest: -1.746e-03  t[s]:    467.37
LCAOMinimize: None of the convergence criteria satisfied after 30 iterations.


---- Citations for features of the code used in this run ----

   Software package:
      R. Sundararaman, K. Letchworth-Weaver, K.A. Schwarz, D. Gunceler, Y. Ozhabes and T.A. Arias, 'JDFTx: software for joint density-functional theory', SoftwareX 6, 278 (2017)

   LibXC library of exchange-correlation functions:
      M. A. L. Marques, M. J. T. Oliveira and T. Burnus, Comput. Phys. Commun. 183, 2272 (2012)

   Hammer, Hansen, and Norskov exchange functional:
      B. Hammer, L. B. Hansen, and J. K. Nørskov, Phys. Rev. B 59, 7413 (1999)

   Perdew, Burke & Ernzerhof correlation functional:
      J. P. Perdew, K. Burke, and M. Ernzerhof, Phys. Rev. Lett. 77, 3865 (1996)

   Pseudopotentials:
      M Schlipf and F Gygi, Comput. Phys. Commun. 196, 36 (2015)

   Total energy minimization with Auxiliary Hamiltonian:
      C. Freysoldt, S. Boeck, and J. Neugebauer, Phys. Rev. B 79, 241103(R) (2009)

This list may not be complete. Please suggest additional citations or
report any other bugs at https://github.com/shankar1729/jdftx/issues

Initialization completed successfully at t[s]:    472.61


-------- Electronic minimization -----------
	FillingsUpdate:  mu: -0.056748335  nElectrons: 326.000000
ElecMinimize: Iter:   0  F: -1517.676852861505722  |grad|_K:  6.339e-04  alpha:  1.000e+00
	FillingsUpdate:  mu: +0.440850789  nElectrons: 326.000000
	SubspaceRotationAdjust: set factor to 0.998
ElecMinimize: Iter:   1  F: -1537.298313181691128  |grad|_K:  1.377e-03  alpha:  4.903e-01  linmin:  3.199e-02  t[s]:    520.10
ElecMinimize: 	Step increased F by 1.890981e-01, reducing alpha to 6.544924e-03.
	FillingsUpdate:  mu: +0.203714007  nElectrons: 326.000000
	SubspaceRotationAdjust: set factor to 1.07
ElecMinimize: Iter:   2  F: -1543.348963845841809  |grad|_K:  1.109e-03  alpha:  6.545e-03  linmin: -3.977e-03  t[s]:    573.97
	FillingsUpdate:  mu: +0.206407396  nElectrons: 326.000000
	SubspaceRotationAdjust: set factor to 1.37
ElecMinimize: Iter:   3  F: -1547.736520416812709  |grad|_K:  1.034e-03  alpha:  1.685e-02  linmin: -3.829e-03  t[s]:    606.63
ElecMinimize: 	Predicted alpha/alphaT>3.000000, increasing alphaT to 5.054951e-02.
	FillingsUpdate:  mu: +1.181380965  nElectrons: 326.000000
	SubspaceRotationAdjust: set factor to 0.705
ElecMinimize: Iter:   4  F: -1560.727107629894363  |grad|_K:  4.879e-03  alpha:  6.548e-02  linmin:  6.693e-04  t[s]:    648.95
ElecMinimize: 	Step increased F by 6.933631e+01, reducing alpha to 1.020593e-03.
ElecMinimize: 	Step increased F by 1.265283e+01, reducing alpha to 1.020593e-04.
ElecMinimize: 	Step increased F by 1.620600e+01, reducing alpha to 1.020593e-05.
ElecMinimize: 	Step failed to reduce F after 3 attempts. Quitting step.
ElecMinimize: 	Undoing step.
ElecMinimize: 	Step failed: resetting search direction.
	FillingsUpdate:  mu: +1.088788687  nElectrons: 326.000000
	SubspaceRotationAdjust: set factor to 0.374
ElecMinimize: Iter:   5  F: -1544.474115466950479  |grad|_K:  3.670e-03  alpha:  1.021e-05
ElecMinimize: 	Step increased F by 4.861888e+00, reducing alpha to 1.392085e-03.
	FillingsUpdate:  mu: +0.889244613  nElectrons: 326.000000
	SubspaceRotationAdjust: set factor to 0.218
ElecMinimize: Iter:   6  F: -1547.688148323876248  |grad|_K:  2.226e-03  alpha:  1.392e-03  linmin: -4.747e-02  t[s]:    798.85
ElecMinimize: 	Predicted alpha/alphaT>3.000000, increasing alphaT to 4.176255e-03.
	FillingsUpdate:  mu: +0.234725949  nElectrons: 326.000000
	SubspaceRotationAdjust: set factor to 0.133
	SubspaceRotationAdjust: resetting CG because factor has changed by 0.133496
ElecMinimize: 	State modified externally: resetting search direction.
ElecMinimize: Iter:   7  F: -1553.283865029644403  |grad|_K:  9.239e-04  alpha:  6.639e-03
ElecMinimize: 	Predicted alpha/alphaT>3.000000, increasing alphaT to 1.991656e-02.
ElecMinimize: 	Predicted alpha/alphaT>3.000000, increasing alphaT to 5.974967e-02.
	FillingsUpdate:  mu: +0.411069683  nElectrons: 326.000000
	SubspaceRotationAdjust: set factor to 0.0822
ElecMinimize: Iter:   8  F: -1565.172390034993668  |grad|_K:  1.375e-03  alpha:  1.442e-01  linmin: -1.204e-03  t[s]:    907.10
	FillingsUpdate:  mu: -0.143811154  nElectrons: 326.000000
	SubspaceRotationAdjust: set factor to 0.0593
ElecMinimize: Iter:   9  F: -1578.121923367622912  |grad|_K:  7.574e-04  alpha:  6.865e-02  linmin:  3.154e-04  t[s]:    940.55
ElecMinimize: 	Predicted alpha/alphaT>3.000000, increasing alphaT to 2.059363e-01.
	FillingsUpdate:  mu: +0.373189589  nElectrons: 326.000000
	SubspaceRotationAdjust: set factor to 0.0724
ElecMinimize: Iter:  10  F: -1590.454376585375485  |grad|_K:  6.831e-04  alpha:  2.273e-01  linmin:  7.379e-04  t[s]:    982.64
	FillingsUpdate:  mu: +0.401347876  nElectrons: 326.000000
	SubspaceRotationAdjust: set factor to 0.0619
ElecMinimize: Iter:  11  F: -1594.252776698068601  |grad|_K:  6.803e-04  alpha:  1.105e-01  linmin:  1.242e-03  t[s]:   1015.69
	FillingsUpdate:  mu: +0.151609835  nElectrons: 326.000000
	SubspaceRotationAdjust: set factor to 0.0749
ElecMinimize: Iter:  12  F: -1597.664000294609195  |grad|_K:  3.880e-04  alpha:  8.661e-02  linmin: -4.104e-04  t[s]:   1048.99
	FillingsUpdate:  mu: +0.092969143  nElectrons: 326.000000
	SubspaceRotationAdjust: set factor to 0.0686
ElecMinimize: Iter:  13  F: -1600.202658180815433  |grad|_K:  4.192e-04  alpha:  1.705e-01  linmin: -1.326e-04  t[s]:   1081.62
	FillingsUpdate:  mu: +0.045342459  nElectrons: 326.000000
	SubspaceRotationAdjust: set factor to 0.0685
ElecMinimize: Iter:  14  F: -1601.817276637836130  |grad|_K:  3.137e-04  alpha:  9.601e-02  linmin: -2.469e-05  t[s]:   1114.20
	FillingsUpdate:  mu: +0.137440065  nElectrons: 326.000000
	SubspaceRotationAdjust: set factor to 0.0882
ElecMinimize: Iter:  15  F: -1603.254531409032552  |grad|_K:  2.511e-04  alpha:  1.499e-01  linmin: -2.988e-04  t[s]:   1147.14
	FillingsUpdate:  mu: +0.198977613  nElectrons: 326.000000
	SubspaceRotationAdjust: set factor to 0.0752
ElecMinimize: Iter:  16  F: -1603.896609063316873  |grad|_K:  2.447e-04  alpha:  9.931e-02  linmin: -1.433e-04  t[s]:   1180.61
	FillingsUpdate:  mu: +0.156442087  nElectrons: 326.000000
	SubspaceRotationAdjust: set factor to 0.101
ElecMinimize: Iter:  17  F: -1604.591811462772284  |grad|_K:  1.661e-04  alpha:  1.179e-01  linmin: -1.876e-04  t[s]:   1213.73
	FillingsUpdate:  mu: +0.061438415  nElectrons: 326.000000
	SubspaceRotationAdjust: set factor to 0.106
ElecMinimize: Iter:  18  F: -1605.088694777246019  |grad|_K:  1.827e-04  alpha:  1.797e-01  linmin: -1.066e-04  t[s]:   1246.50
	FillingsUpdate:  mu: +0.044439761  nElectrons: 326.000000
	SubspaceRotationAdjust: set factor to 0.0901
ElecMinimize: Iter:  19  F: -1605.384031080164050  |grad|_K:  1.879e-04  alpha:  8.995e-02  linmin: -1.497e-05  t[s]:   1279.35
	FillingsUpdate:  mu: +0.101273847  nElectrons: 326.000000
	SubspaceRotationAdjust: set factor to 0.107
ElecMinimize: Iter:  20  F: -1605.831490153011600  |grad|_K:  1.408e-04  alpha:  1.307e-01  linmin: -5.867e-05  t[s]:   1312.69
	FillingsUpdate:  mu: +0.160024742  nElectrons: 326.000000
	SubspaceRotationAdjust: set factor to 0.103
ElecMinimize: Iter:  21  F: -1606.248541580688652  |grad|_K:  1.769e-04  alpha:  2.122e-01  linmin: -5.224e-05  t[s]:   1345.52
	FillingsUpdate:  mu: +0.123395624  nElectrons: 326.000000
	SubspaceRotationAdjust: set factor to 0.0849
ElecMinimize: Iter:  22  F: -1606.521812645892624  |grad|_K:  1.847e-04  alpha:  9.064e-02  linmin: -7.281e-06  t[s]:   1378.44
	FillingsUpdate:  mu: +0.069991792  nElectrons: 326.000000
	SubspaceRotationAdjust: set factor to 0.0831
ElecMinimize: Iter:  23  F: -1606.943468425146875  |grad|_K:  1.479e-04  alpha:  1.271e-01  linmin: -6.604e-05  t[s]:   1411.95
	FillingsUpdate:  mu: +0.017662093  nElectrons: 326.000000
	SubspaceRotationAdjust: set factor to 0.0916
ElecMinimize: Iter:  24  F: -1607.487542721182763  |grad|_K:  1.748e-04  alpha:  2.419e-01  linmin: -8.193e-05  t[s]:   1445.02
	FillingsUpdate:  mu: +0.039317802  nElectrons: 326.000000
	SubspaceRotationAdjust: set factor to 0.0699
ElecMinimize: Iter:  25  F: -1607.859341622749071  |grad|_K:  1.811e-04  alpha:  1.182e-01  linmin: -3.920e-05  t[s]:   1478.32
	FillingsUpdate:  mu: +0.166435637  nElectrons: 326.000000
	SubspaceRotationAdjust: set factor to 0.0553
ElecMinimize: Iter:  26  F: -1608.539820699539860  |grad|_K:  2.081e-04  alpha:  2.072e-01  linmin: -2.975e-05  t[s]:   1511.57
	FillingsUpdate:  mu: +0.020131987  nElectrons: 326.000000
	SubspaceRotationAdjust: set factor to 0.0481
ElecMinimize: Iter:  27  F: -1609.390514594661681  |grad|_K:  2.283e-04  alpha:  2.079e-01  linmin:  4.615e-03  t[s]:   1544.27
ElecMinimize: 	Bad step direction: g.d > 0.
ElecMinimize: 	Undoing step.
ElecMinimize: 	Step failed: resetting search direction.
	FillingsUpdate:  mu: +0.020131987  nElectrons: 326.000000
	SubspaceRotationAdjust: set factor to 0.0521
ElecMinimize: Iter:  28  F: -1609.390514594661681  |grad|_K:  2.266e-04  alpha:  0.000e+00
	FillingsUpdate:  mu: +0.049735723  nElectrons: 326.000000
	SubspaceRotationAdjust: set factor to 0.0466
ElecMinimize: Iter:  29  F: -1610.722890763264331  |grad|_K:  1.079e-04  alpha:  2.698e-01  linmin: -6.067e-03  t[s]:   1600.74
	FillingsUpdate:  mu: +0.064390146  nElectrons: 326.000000
	SubspaceRotationAdjust: set factor to 0.0288
ElecMinimize: Iter:  30  F: -1610.838626038471602  |grad|_K:  8.126e-05  alpha:  1.024e-01  linmin: -2.181e-04  t[s]:   1634.15
	FillingsUpdate:  mu: +0.070392707  nElectrons: 326.000000
	SubspaceRotationAdjust: set factor to 0.0349
ElecMinimize: Iter:  31  F: -1611.004161976942669  |grad|_K:  5.263e-05  alpha:  2.619e-01  linmin:  4.914e-04  t[s]:   1667.28
	FillingsUpdate:  mu: +0.052776309  nElectrons: 326.000000
	SubspaceRotationAdjust: set factor to 0.0242
ElecMinimize: Iter:  32  F: -1611.141455253474078  |grad|_K:  7.736e-05  alpha:  5.187e-01  linmin: -4.636e-04  t[s]:   1700.25
	FillingsUpdate:  mu: +0.094551411  nElectrons: 326.000000
	SubspaceRotationAdjust: set factor to 0.0163
	SubspaceRotationAdjust: resetting CG because factor has changed by 0.12234
ElecMinimize: 	State modified externally: resetting search direction.
ElecMinimize: Iter:  33  F: -1611.229937054421725  |grad|_K:  4.622e-05  alpha:  1.535e-01
	FillingsUpdate:  mu: +0.089423279  nElectrons: 326.000000
	SubspaceRotationAdjust: set factor to 0.0261
ElecMinimize: Iter:  34  F: -1611.283205018126864  |grad|_K:  2.336e-05  alpha:  2.597e-01  linmin: -2.089e-03  t[s]:   1781.07
	FillingsUpdate:  mu: +0.090106117  nElectrons: 326.000000
	SubspaceRotationAdjust: set factor to 0.025
ElecMinimize: Iter:  35  F: -1611.305228229008208  |grad|_K:  2.078e-05  alpha:  4.192e-01  linmin: -2.552e-03  t[s]:   1813.81
	FillingsUpdate:  mu: +0.090317740  nElectrons: 326.000000
	SubspaceRotationAdjust: set factor to 0.0206
ElecMinimize: Iter:  36  F: -1611.325041572942155  |grad|_K:  2.629e-05  alpha:  4.724e-01  linmin: -1.562e-03  t[s]:   1847.59
	FillingsUpdate:  mu: +0.098021449  nElectrons: 326.000000
	SubspaceRotationAdjust: set factor to 0.0172
ElecMinimize: Iter:  37  F: -1611.352988156457513  |grad|_K:  2.666e-05  alpha:  4.128e-01  linmin: -1.431e-03  t[s]:   1880.92
	FillingsUpdate:  mu: +0.100910973  nElectrons: 326.000000
	SubspaceRotationAdjust: set factor to 0.0177
ElecMinimize: Iter:  38  F: -1611.394654139430713  |grad|_K:  2.511e-05  alpha:  5.868e-01  linmin: -3.107e-03  t[s]:   1914.52
	FillingsUpdate:  mu: +0.103958807  nElectrons: 326.000000
	SubspaceRotationAdjust: set factor to 0.0189
ElecMinimize: Iter:  39  F: -1611.431186639434600  |grad|_K:  2.599e-05  alpha:  5.617e-01  linmin: -1.866e-03  t[s]:   1947.65
	FillingsUpdate:  mu: +0.111407657  nElectrons: 326.000000
	SubspaceRotationAdjust: set factor to 0.0204
ElecMinimize: Iter:  40  F: -1611.477094857195425  |grad|_K:  2.793e-05  alpha:  6.725e-01  linmin: -1.733e-03  t[s]:   1980.59
	FillingsUpdate:  mu: +0.110304937  nElectrons: 326.000000
	SubspaceRotationAdjust: set factor to 0.0179
ElecMinimize: Iter:  41  F: -1611.520334920955293  |grad|_K:  3.408e-05  alpha:  5.329e-01  linmin: -6.035e-04  t[s]:   2013.87
	FillingsUpdate:  mu: +0.114927340  nElectrons: 326.000000
	SubspaceRotationAdjust: set factor to 0.0164
ElecMinimize: Iter:  42  F: -1611.569362325111115  |grad|_K:  2.943e-05  alpha:  4.413e-01  linmin: -1.729e-03  t[s]:   2047.09
	FillingsUpdate:  mu: +0.127192192  nElectrons: 326.000000
	SubspaceRotationAdjust: set factor to 0.0174
ElecMinimize: Iter:  43  F: -1611.607456213053410  |grad|_K:  2.429e-05  alpha:  4.278e-01  linmin: -3.535e-04  t[s]:   2079.90
	FillingsUpdate:  mu: +0.137877876  nElectrons: 326.000000
	SubspaceRotationAdjust: set factor to 0.0186
ElecMinimize: Iter:  44  F: -1611.632348134667836  |grad|_K:  1.929e-05  alpha:  4.341e-01  linmin: -3.176e-04  t[s]:   2112.91
	FillingsUpdate:  mu: +0.136220268  nElectrons: 326.000000
	SubspaceRotationAdjust: set factor to 0.0199
ElecMinimize: Iter:  45  F: -1611.647787616546566  |grad|_K:  1.490e-05  alpha:  4.281e-01  linmin: -2.252e-04  t[s]:   2146.13
	FillingsUpdate:  mu: +0.134182372  nElectrons: 326.000000
	SubspaceRotationAdjust: set factor to 0.0191
ElecMinimize: Iter:  46  F: -1611.656038438003407  |grad|_K:  1.400e-05  alpha:  3.853e-01  linmin: -1.084e-04  t[s]:   2179.15
	FillingsUpdate:  mu: +0.134381676  nElectrons: 326.000000
	SubspaceRotationAdjust: set factor to 0.0169
ElecMinimize: Iter:  47  F: -1611.663496591630292  |grad|_K:  1.416e-05  alpha:  3.953e-01  linmin:  4.433e-06  t[s]:   2212.26
	FillingsUpdate:  mu: +0.134262487  nElectrons: 326.000000
	SubspaceRotationAdjust: set factor to 0.0166
ElecMinimize: Iter:  48  F: -1611.671972351585737  |grad|_K:  1.324e-05  alpha:  4.402e-01  linmin:  3.597e-05  t[s]:   2245.18
	FillingsUpdate:  mu: +0.132005776  nElectrons: 326.000000
	SubspaceRotationAdjust: set factor to 0.0187
ElecMinimize: Iter:  49  F: -1611.680836219850335  |grad|_K:  1.219e-05  alpha:  5.267e-01  linmin:  2.147e-05  t[s]:   2278.00
	FillingsUpdate:  mu: +0.129088359  nElectrons: 326.000000
	SubspaceRotationAdjust: set factor to 0.0197
ElecMinimize: Iter:  50  F: -1611.688308256986829  |grad|_K:  1.231e-05  alpha:  5.244e-01  linmin: -1.977e-04  t[s]:   2311.44
	FillingsUpdate:  mu: +0.126800514  nElectrons: 326.000000
	SubspaceRotationAdjust: set factor to 0.0174
ElecMinimize: Iter:  51  F: -1611.694303438995576  |grad|_K:  1.271e-05  alpha:  4.091e-01  linmin: -1.725e-04  t[s]:   2344.32
	FillingsUpdate:  mu: +0.125675346  nElectrons: 326.000000
	SubspaceRotationAdjust: set factor to 0.0149
ElecMinimize: Iter:  52  F: -1611.700257677784066  |grad|_K:  1.185e-05  alpha:  3.822e-01  linmin: -4.566e-04  t[s]:   2377.57
	FillingsUpdate:  mu: +0.125064896  nElectrons: 326.000000
	SubspaceRotationAdjust: set factor to 0.0155
ElecMinimize: Iter:  53  F: -1611.706723269049007  |grad|_K:  1.105e-05  alpha:  4.712e-01  linmin: -1.851e-04  t[s]:   2410.52
	FillingsUpdate:  mu: +0.122160836  nElectrons: 326.000000
	SubspaceRotationAdjust: set factor to 0.0163
ElecMinimize: Iter:  54  F: -1611.712061249351336  |grad|_K:  9.607e-06  alpha:  4.515e-01  linmin: -2.199e-04  t[s]:   2443.31
	FillingsUpdate:  mu: +0.121386727  nElectrons: 326.000000
	SubspaceRotationAdjust: set factor to 0.0144
ElecMinimize: Iter:  55  F: -1611.715441905100533  |grad|_K:  7.814e-06  alpha:  3.788e-01  linmin: -1.518e-04  t[s]:   2476.53
	FillingsUpdate:  mu: +0.121128515  nElectrons: 326.000000
	SubspaceRotationAdjust: set factor to 0.0135
ElecMinimize: Iter:  56  F: -1611.717802727886692  |grad|_K:  6.490e-06  alpha:  4.008e-01  linmin: -5.526e-05  t[s]:   2509.53
	FillingsUpdate:  mu: +0.120760564  nElectrons: 326.000000
	SubspaceRotationAdjust: set factor to 0.0148
ElecMinimize: Iter:  57  F: -1611.719490221551041  |grad|_K:  5.463e-06  alpha:  4.167e-01  linmin: -4.373e-05  t[s]:   2542.51
	FillingsUpdate:  mu: +0.120067289  nElectrons: 326.000000
	SubspaceRotationAdjust: set factor to 0.0151
ElecMinimize: Iter:  58  F: -1611.720751422242984  |grad|_K:  4.977e-06  alpha:  4.396e-01  linmin: -7.606e-05  t[s]:   2575.49
	FillingsUpdate:  mu: +0.120059857  nElectrons: 326.000000
	SubspaceRotationAdjust: set factor to 0.0143
ElecMinimize: Iter:  59  F: -1611.721797261803204  |grad|_K:  4.385e-06  alpha:  4.390e-01  linmin: -1.197e-04  t[s]:   2608.49
	FillingsUpdate:  mu: +0.120188971  nElectrons: 326.000000
	SubspaceRotationAdjust: set factor to 0.0157
ElecMinimize: Iter:  60  F: -1611.722576623958730  |grad|_K:  3.694e-06  alpha:  4.208e-01  linmin: -1.301e-04  t[s]:   2641.72
	FillingsUpdate:  mu: +0.120139025  nElectrons: 326.000000
	SubspaceRotationAdjust: set factor to 0.0178
ElecMinimize: Iter:  61  F: -1611.723138400266407  |grad|_K:  3.277e-06  alpha:  4.273e-01  linmin: -1.300e-04  t[s]:   2674.70
	FillingsUpdate:  mu: +0.120174110  nElectrons: 326.000000
	SubspaceRotationAdjust: set factor to 0.0177
ElecMinimize: Iter:  62  F: -1611.723610000646886  |grad|_K:  3.238e-06  alpha:  4.558e-01  linmin: -1.230e-04  t[s]:   2707.45
	FillingsUpdate:  mu: +0.120609088  nElectrons: 326.000000
	SubspaceRotationAdjust: set factor to 0.0166
ElecMinimize: Iter:  63  F: -1611.724039220594250  |grad|_K:  3.097e-06  alpha:  4.247e-01  linmin: -8.447e-05  t[s]:   2740.90
	FillingsUpdate:  mu: +0.121262507  nElectrons: 326.000000
	SubspaceRotationAdjust: set factor to 0.0174
ElecMinimize: Iter:  64  F: -1611.724460113904797  |grad|_K:  2.910e-06  alpha:  4.556e-01  linmin: -6.279e-05  t[s]:   2773.88
	FillingsUpdate:  mu: +0.121702841  nElectrons: 326.000000
	SubspaceRotationAdjust: set factor to 0.0188
ElecMinimize: Iter:  65  F: -1611.724870667505911  |grad|_K:  2.751e-06  alpha:  5.037e-01  linmin: -3.925e-05  t[s]:   2806.84
	FillingsUpdate:  mu: +0.121825282  nElectrons: 326.000000
	SubspaceRotationAdjust: set factor to 0.0178
ElecMinimize: Iter:  66  F: -1611.725191208732895  |grad|_K:  2.626e-06  alpha:  4.402e-01  linmin: -2.291e-05  t[s]:   2840.04
	FillingsUpdate:  mu: +0.122069274  nElectrons: 326.000000
	SubspaceRotationAdjust: set factor to 0.0152
ElecMinimize: Iter:  67  F: -1611.725435093724855  |grad|_K:  2.327e-06  alpha:  3.681e-01  linmin: -2.270e-05  t[s]:   2873.22
	FillingsUpdate:  mu: +0.122324393  nElectrons: 326.000000
	SubspaceRotationAdjust: set factor to 0.0153
ElecMinimize: Iter:  68  F: -1611.725652511683393  |grad|_K:  1.998e-06  alpha:  4.176e-01  linmin: -1.704e-05  t[s]:   2906.08
	FillingsUpdate:  mu: +0.122257661  nElectrons: 326.000000
	SubspaceRotationAdjust: set factor to 0.0168
ElecMinimize: Iter:  69  F: -1611.725832674273079  |grad|_K:  1.842e-06  alpha:  4.696e-01  linmin: -1.972e-05  t[s]:   2939.05
	FillingsUpdate:  mu: +0.122115323  nElectrons: 326.000000
	SubspaceRotationAdjust: set factor to 0.0163
ElecMinimize: Iter:  70  F: -1611.725968572269721  |grad|_K:  1.648e-06  alpha:  4.165e-01  linmin: -1.811e-05  t[s]:   2972.21
	FillingsUpdate:  mu: +0.122097123  nElectrons: 326.000000
	SubspaceRotationAdjust: set factor to 0.0157
ElecMinimize: Iter:  71  F: -1611.726072764182618  |grad|_K:  1.429e-06  alpha:  3.990e-01  linmin: -1.235e-05  t[s]:   3005.96
	FillingsUpdate:  mu: +0.122099657  nElectrons: 326.000000
	SubspaceRotationAdjust: set factor to 0.0176
ElecMinimize: Iter:  72  F: -1611.726160551552539  |grad|_K:  1.290e-06  alpha:  4.475e-01  linmin: -9.169e-06  t[s]:   3039.09
	FillingsUpdate:  mu: +0.121965361  nElectrons: 326.000000
	SubspaceRotationAdjust: set factor to 0.0198
ElecMinimize: Iter:  73  F: -1611.726236386663459  |grad|_K:  1.279e-06  alpha:  4.747e-01  linmin: -6.693e-06  t[s]:   3072.11
	FillingsUpdate:  mu: +0.121741595  nElectrons: 326.000000
	SubspaceRotationAdjust: set factor to 0.0195
ElecMinimize: Iter:  74  F: -1611.726307916253063  |grad|_K:  1.323e-06  alpha:  4.553e-01  linmin: -6.160e-06  t[s]:   3104.79
	FillingsUpdate:  mu: +0.121613284  nElectrons: 326.000000
	SubspaceRotationAdjust: set factor to 0.0179
ElecMinimize: Iter:  75  F: -1611.726377023478108  |grad|_K:  1.352e-06  alpha:  4.110e-01  linmin: -1.042e-05  t[s]:   3138.17
	FillingsUpdate:  mu: +0.121518901  nElectrons: 326.000000
	SubspaceRotationAdjust: set factor to 0.0182
ElecMinimize: Iter:  76  F: -1611.726456429640621  |grad|_K:  1.301e-06  alpha:  4.517e-01  linmin: -1.015e-05  t[s]:   3171.06
	FillingsUpdate:  mu: +0.121287360  nElectrons: 326.000000
	SubspaceRotationAdjust: set factor to 0.0197
ElecMinimize: Iter:  77  F: -1611.726540360139779  |grad|_K:  1.278e-06  alpha:  5.155e-01  linmin: -1.373e-05  t[s]:   3203.94
	FillingsUpdate:  mu: +0.120942207  nElectrons: 326.000000
	SubspaceRotationAdjust: set factor to 0.0195
ElecMinimize: Iter:  78  F: -1611.726615155301261  |grad|_K:  1.269e-06  alpha:  4.759e-01  linmin: -1.309e-05  t[s]:   3237.44
	FillingsUpdate:  mu: +0.120702877  nElectrons: 326.000000
	SubspaceRotationAdjust: set factor to 0.0165
ElecMinimize: Iter:  79  F: -1611.726672870906668  |grad|_K:  1.183e-06  alpha:  3.726e-01  linmin: -7.126e-06  t[s]:   3270.80
	FillingsUpdate:  mu: +0.120631205  nElectrons: 326.000000
	SubspaceRotationAdjust: set factor to 0.0151
ElecMinimize: Iter:  80  F: -1611.726724211280271  |grad|_K:  1.011e-06  alpha:  3.815e-01  linmin: -3.875e-06  t[s]:   3303.84
	FillingsUpdate:  mu: +0.120515935  nElectrons: 326.000000
	SubspaceRotationAdjust: set factor to 0.0165
ElecMinimize: Iter:  81  F: -1611.726767099438121  |grad|_K:  8.810e-07  alpha:  4.371e-01  linmin:  2.954e-06  t[s]:   3336.79
	FillingsUpdate:  mu: +0.120387982  nElectrons: 326.000000
	SubspaceRotationAdjust: set factor to 0.0167
ElecMinimize: Iter:  82  F: -1611.726797722828906  |grad|_K:  7.694e-07  alpha:  4.111e-01  linmin:  5.379e-06  t[s]:   3369.91
	FillingsUpdate:  mu: +0.120365388  nElectrons: 326.000000
	SubspaceRotationAdjust: set factor to 0.016
ElecMinimize: Iter:  83  F: -1611.726819696631992  |grad|_K:  6.534e-07  alpha:  3.869e-01  linmin:  4.332e-06  t[s]:   3402.96
	FillingsUpdate:  mu: +0.120391965  nElectrons: 326.000000
	SubspaceRotationAdjust: set factor to 0.0175
ElecMinimize: Iter:  84  F: -1611.726836533508504  |grad|_K:  5.711e-07  alpha:  4.110e-01  linmin:  2.887e-06  t[s]:   3435.97
	FillingsUpdate:  mu: +0.120425438  nElectrons: 326.000000
	SubspaceRotationAdjust: set factor to 0.0205
ElecMinimize: Iter:  85  F: -1611.726850601997967  |grad|_K:  5.370e-07  alpha:  4.495e-01  linmin: -7.130e-08  t[s]:   3469.00
	FillingsUpdate:  mu: +0.120462422  nElectrons: 326.000000
	SubspaceRotationAdjust: set factor to 0.0215
ElecMinimize: Iter:  86  F: -1611.726863386227024  |grad|_K:  5.669e-07  alpha:  4.619e-01  linmin: -3.347e-06  t[s]:   3502.73
	FillingsUpdate:  mu: +0.120521182  nElectrons: 326.000000
	SubspaceRotationAdjust: set factor to 0.02
ElecMinimize: Iter:  87  F: -1611.726875714747393  |grad|_K:  6.006e-07  alpha:  3.994e-01  linmin: -3.790e-06  t[s]:   3535.64
	FillingsUpdate:  mu: +0.120662682  nElectrons: 326.000000
	SubspaceRotationAdjust: set factor to 0.0198
ElecMinimize: Iter:  88  F: -1611.726890502331116  |grad|_K:  5.891e-07  alpha:  4.268e-01  linmin: -3.878e-06  t[s]:   3568.76
	FillingsUpdate:  mu: +0.120794358  nElectrons: 326.000000
	SubspaceRotationAdjust: set factor to 0.0212
ElecMinimize: Iter:  89  F: -1611.726907426783328  |grad|_K:  5.884e-07  alpha:  5.078e-01  linmin: -1.866e-06  t[s]:   3602.17
	FillingsUpdate:  mu: +0.120882145  nElectrons: 326.000000
	SubspaceRotationAdjust: set factor to 0.0221
ElecMinimize: Iter:  90  F: -1611.726924052522236  |grad|_K:  5.970e-07  alpha:  5.001e-01  linmin: -3.495e-07  t[s]:   3635.24
	FillingsUpdate:  mu: +0.120983187  nElectrons: 326.000000
	SubspaceRotationAdjust: set factor to 0.0203
ElecMinimize: Iter:  91  F: -1611.726938508055127  |grad|_K:  5.884e-07  alpha:  4.225e-01  linmin:  9.383e-08  t[s]:   3668.14
	FillingsUpdate:  mu: +0.121070909  nElectrons: 326.000000
	SubspaceRotationAdjust: set factor to 0.0162
ElecMinimize: Iter:  92  F: -1611.726949481591419  |grad|_K:  5.225e-07  alpha:  3.301e-01  linmin:  1.467e-07  t[s]:   3701.06
	FillingsUpdate:  mu: +0.121163420  nElectrons: 326.000000
	SubspaceRotationAdjust: set factor to 0.0154
ElecMinimize: Iter:  93  F: -1611.726958640476823  |grad|_K:  4.104e-07  alpha:  3.495e-01  linmin:  1.296e-06  t[s]:   3734.74
	FillingsUpdate:  mu: +0.121210935  nElectrons: 326.000000
	SubspaceRotationAdjust: set factor to 0.0167
ElecMinimize: Iter:  94  F: -1611.726965144597216  |grad|_K:  3.351e-07  alpha:  4.024e-01  linmin:  1.207e-06  t[s]:   3767.47
	FillingsUpdate:  mu: +0.121237221  nElectrons: 326.000000
	SubspaceRotationAdjust: set factor to 0.0156
ElecMinimize: Iter:  95  F: -1611.726969080169511  |grad|_K:  2.782e-07  alpha:  3.652e-01  linmin: -3.414e-08  t[s]:   3800.57
	FillingsUpdate:  mu: +0.121265400  nElectrons: 326.000000
	SubspaceRotationAdjust: set factor to 0.0155
ElecMinimize: Iter:  96  F: -1611.726971796512998  |grad|_K:  2.243e-07  alpha:  3.655e-01  linmin:  1.635e-06  t[s]:   3833.30
	FillingsUpdate:  mu: +0.121275952  nElectrons: 326.000000
	SubspaceRotationAdjust: set factor to 0.018
ElecMinimize: Iter:  97  F: -1611.726973756102325  |grad|_K:  1.874e-07  alpha:  4.058e-01  linmin: -3.331e-07  t[s]:   3866.28
	FillingsUpdate:  mu: +0.121273428  nElectrons: 326.000000
	SubspaceRotationAdjust: set factor to 0.0191
ElecMinimize: Iter:  98  F: -1611.726975100209529  |grad|_K:  1.707e-07  alpha:  3.986e-01  linmin: -3.570e-06  t[s]:   3899.25
	FillingsUpdate:  mu: +0.121271555  nElectrons: 326.000000
	SubspaceRotationAdjust: set factor to 0.0193
ElecMinimize: Iter:  99  F: -1611.726976187045238  |grad|_K:  1.589e-07  alpha:  3.884e-01  linmin:  1.885e-06  t[s]:   3932.57
	FillingsUpdate:  mu: +0.121261123  nElectrons: 326.000000
	SubspaceRotationAdjust: set factor to 0.0215
ElecMinimize: Iter: 100  F: -1611.726977206160200  |grad|_K:  1.464e-07  alpha:  4.207e-01  linmin:  1.033e-06  t[s]:   3965.73
	FillingsUpdate:  mu: +0.121240824  nElectrons: 326.000000
	SubspaceRotationAdjust: set factor to 0.0249
ElecMinimize: Iter: 101  F: -1611.726978157775420  |grad|_K:  1.432e-07  alpha:  4.626e-01  linmin:  4.945e-06  t[s]:   3998.74
	FillingsUpdate:  mu: +0.121210186  nElectrons: 326.000000
	SubspaceRotationAdjust: set factor to 0.0259
ElecMinimize: Iter: 102  F: -1611.726979052859633  |grad|_K:  1.495e-07  alpha:  4.548e-01  linmin:  9.643e-07  t[s]:   4031.69
	FillingsUpdate:  mu: +0.121179921  nElectrons: 326.000000
	SubspaceRotationAdjust: set factor to 0.0219
ElecMinimize: Iter: 103  F: -1611.726979740046090  |grad|_K:  1.540e-07  alpha:  3.204e-01  linmin: -1.055e-06  t[s]:   4064.81
	FillingsUpdate:  mu: +0.121155286  nElectrons: 326.000000
	SubspaceRotationAdjust: set factor to 0.0191
ElecMinimize: Iter: 104  F: -1611.726980429212290  |grad|_K:  1.293e-07  alpha:  3.028e-01  linmin: -7.266e-07  t[s]:   4097.63
	FillingsUpdate:  mu: +0.121126057  nElectrons: 326.000000
	SubspaceRotationAdjust: set factor to 0.0207
ElecMinimize: Iter: 105  F: -1611.726981123845690  |grad|_K:  1.170e-07  alpha:  4.325e-01  linmin: -7.863e-07  t[s]:   4130.67
ElecMinimize: Converged (|Delta F|<1.000000e-06 for 5 iters).
Setting wave functions to eigenvectors of Hamiltonian

# Ionic positions in lattice coordinates:
ion Cr   0.000000000000000   0.000000000000000   0.150000000000000 0
ion Cr   0.500000000000000   0.000000000000000   0.150000000000000 0
ion Cr   0.000000000000000   0.500000000000000   0.150000000000000 0
ion Cr   0.500000000000000   0.500000000000000   0.150000000000000 0
ion Cr   0.250000000000000   0.250000000000000   0.050000000000000 0
ion Cr   0.250000000000000   0.750000000000000   0.050000000000000 0
ion Cr  -0.250000000000000   0.250000000000000   0.050000000000000 0
ion Cr  -0.250000000000000   0.750000000000000   0.050000000000000 0
ion Cr   0.000000000000000   0.000000000000000  -0.050000000000000 0
ion Cr   0.500000000000000   0.000000000000000  -0.050000000000000 0
ion Cr   0.000000000000000   0.500000000000000  -0.050000000000000 0
ion Cr   0.500000000000000   0.500000000000000  -0.050000000000000 0
ion Cr   0.250000000000000   0.250000000000000  -0.150000000000000 0
ion Cr   0.250000000000000   0.750000000000000  -0.150000000000000 0
ion Cr  -0.250000000000000   0.250000000000000  -0.150000000000000 0
ion Cr  -0.250000000000000   0.750000000000000  -0.150000000000000 0
ion O   0.250000000000000   0.250000000000000   0.150000000000000 0
ion O   0.250000000000000   0.750000000000000   0.150000000000000 0
ion O  -0.250000000000000   0.250000000000000   0.150000000000000 0
ion O  -0.250000000000000   0.750000000000000   0.150000000000000 0
ion O   0.000000000000000   0.000000000000000   0.050000000000000 0
ion O   0.500000000000000   0.000000000000000   0.050000000000000 0
ion O   0.000000000000000   0.500000000000000   0.050000000000000 0
ion O   0.500000000000000   0.500000000000000   0.050000000000000 0
ion O   0.250000000000000   0.250000000000000  -0.050000000000000 0
ion O   0.250000000000000   0.750000000000000  -0.050000000000000 0
ion O  -0.250000000000000   0.250000000000000  -0.050000000000000 0
ion O  -0.250000000000000   0.750000000000000  -0.050000000000000 0
ion O   0.000000000000000   0.000000000000000  -0.150000000000000 0
ion O   0.500000000000000   0.000000000000000  -0.150000000000000 0
ion O   0.000000000000000   0.500000000000000  -0.150000000000000 0
ion O   0.500000000000000   0.500000000000000  -0.150000000000000 0
ion O   0.000000000000000   0.000000000000000   0.230000000000000 1

# Forces in Lattice coordinates:
force Cr  -0.000058970465938   0.000026968339734   4.002010357673099 0
force Cr   0.000035953421514   0.000073412668005  -1.358010793984842 0
force Cr  -0.000062851985957   0.000021244497279  -1.358272629659592 0
force Cr  -0.000016936123398  -0.000037002243945  -1.439231788859493 0
force Cr   0.024310898059609   0.024453289973474   0.550349310813169 0
force Cr   0.024389720847437  -0.024422174222713   0.549603470251841 0
force Cr  -0.024398376715064   0.024456915087207   0.550265238784659 0
force Cr  -0.024347385939462  -0.024435375475123   0.550099461441622 0
force Cr   0.000140460541352  -0.000132149166015  -0.452401254947327 0
force Cr  -0.000113836327379   0.000150872048413  -0.577101828395780 0
force Cr   0.000170176683879   0.000120904771669  -0.577782492761885 0
force Cr  -0.000048467827704   0.000076855329409  -0.639418398693636 0
force Cr   0.009178282781835   0.009293383043064   1.278952130138518 0
force Cr   0.009200733919952  -0.009237034237130   1.279682810648063 0
force Cr  -0.009186497767980   0.009164695651253   1.278681607977329 0
force Cr  -0.009147076168781  -0.009141719085685   1.280201672232450 0
force O   0.050826444655599   0.051049763507424  -0.770344025836668 0
force O   0.050362230649589  -0.050488706215101  -0.772133808914498 0
force O  -0.050582440002273   0.051008281397460  -0.771148408267146 0
force O  -0.051134360609932  -0.050713536081559  -0.772196635960949 0
force O   0.000323452465732  -0.000164388616661  -0.323904156735678 0
force O   0.000189391352002   0.000122906033023   0.234526981292202 0
force O  -0.000274963872096   0.000400223931989   0.235427587130207 0
force O  -0.000389328425201   0.000330153353591   0.087139983714256 0
force O  -0.004330990501806  -0.004821700315629  -0.050535990237718 0
force O  -0.004369172288374   0.005022441335732  -0.048236335166274 0
force O   0.004997216932526  -0.005213953790761  -0.049029695954631 0
force O   0.004883359342404   0.004654706677052  -0.049036145290725 0
force O  -0.000187789870573  -0.000159953548531   0.479966133365574 0
force O  -0.000117505698530   0.000009240530390   0.417509893223833 0
force O   0.000066600514652  -0.000190124327452   0.417750829584566 0
force O   0.000152709724738  -0.000114729550277   0.435886578476593 0
force O  -0.000232995277238   0.000117672877171  -3.520737134086453 1

# Energy components:
   Eewald =     4799.8176467127941578
       EH =     6228.7427246187526180
     Eloc =   -12766.8288954814252065
      Enl =     -390.2600226033758304
   Epulay =       -0.0003756781916500
      Exc =     -211.5586199353881511
       KE =      728.3706622630038510
-------------------------------------
     Etot =    -1611.7168801038301353
       TS =        0.0101010200156519
-------------------------------------
        F =    -1611.7269811238456896

IonicMinimize: Iter:   0  F: -1611.726981123845690  |grad|_K:  4.834e-02  t[s]:   4139.53

#--- Lowdin population analysis ---
# oxidation-state Cr +2.819 +2.815 +2.815 +2.768 +2.633 +2.633 +2.633 +2.633 +2.639 +2.634 +2.634 +2.633 +2.736 +2.735 +2.735 +2.736
# oxidation-state O -0.693 -0.693 -0.693 -0.693 -0.718 -0.680 -0.680 -0.679 -0.681 -0.681 -0.681 -0.681 -0.718 -0.715 -0.715 -0.713 -0.439


-------- Electronic minimization -----------
	FillingsUpdate:  mu: +0.110035709  nElectrons: 326.000000
ElecMinimize: Iter:   0  F: -1611.515738946614192  |grad|_K:  9.353e-05  alpha:  1.000e+00
	FillingsUpdate:  mu: +0.115073019  nElectrons: 326.000000
	SubspaceRotationAdjust: set factor to 0.0209
ElecMinimize: Iter:   1  F: -1611.710945960233857  |grad|_K:  2.844e-05  alpha:  2.518e-01  linmin:  1.557e-01  t[s]:   4194.91
	FillingsUpdate:  mu: +0.117394833  nElectrons: 326.000000
	SubspaceRotationAdjust: set factor to 0.0211
ElecMinimize: Iter:   2  F: -1611.729875957190643  |grad|_K:  7.081e-06  alpha:  2.634e-01  linmin: -1.735e-02  t[s]:   4227.65
	FillingsUpdate:  mu: +0.118837755  nElectrons: 326.000000
	SubspaceRotationAdjust: set factor to 0.0205
ElecMinimize: Iter:   3  F: -1611.732201388796511  |grad|_K:  4.207e-06  alpha:  4.795e-01  linmin: -1.996e-03  t[s]:   4260.39
	FillingsUpdate:  mu: +0.119623363  nElectrons: 326.000000
	SubspaceRotationAdjust: set factor to 0.0138
ElecMinimize: Iter:   4  F: -1611.732603919775784  |grad|_K:  2.821e-06  alpha:  2.363e-01  linmin: -1.700e-04  t[s]:   4293.40
	FillingsUpdate:  mu: +0.120506165  nElectrons: 326.000000
	SubspaceRotationAdjust: set factor to 0.0109
ElecMinimize: Iter:   5  F: -1611.732835611899873  |grad|_K:  1.871e-06  alpha:  3.031e-01  linmin: -1.612e-04  t[s]:   4326.88
	FillingsUpdate:  mu: +0.120905370  nElectrons: 326.000000
	SubspaceRotationAdjust: set factor to 0.0147
ElecMinimize: Iter:   6  F: -1611.732955447082986  |grad|_K:  1.247e-06  alpha:  3.565e-01  linmin: -2.258e-04  t[s]:   4359.66
	FillingsUpdate:  mu: +0.121079263  nElectrons: 326.000000
	SubspaceRotationAdjust: set factor to 0.0144
ElecMinimize: Iter:   7  F: -1611.733025885457437  |grad|_K:  1.092e-06  alpha:  4.709e-01  linmin: -2.021e-04  t[s]:   4392.45
	FillingsUpdate:  mu: +0.121297234  nElectrons: 326.000000
	SubspaceRotationAdjust: set factor to 0.0137
ElecMinimize: Iter:   8  F: -1611.733073165876021  |grad|_K:  1.007e-06  alpha:  4.122e-01  linmin: -9.238e-05  t[s]:   4425.40
	FillingsUpdate:  mu: +0.121629951  nElectrons: 326.000000
	SubspaceRotationAdjust: set factor to 0.0165
ElecMinimize: Iter:   9  F: -1611.733135458632205  |grad|_K:  1.009e-06  alpha:  6.386e-01  linmin: -9.226e-05  t[s]:   4458.55
	FillingsUpdate:  mu: +0.121887173  nElectrons: 326.000000
	SubspaceRotationAdjust: set factor to 0.0174
ElecMinimize: Iter:  10  F: -1611.733195164109702  |grad|_K:  1.160e-06  alpha:  6.096e-01  linmin: -4.088e-05  t[s]:   4491.85
	FillingsUpdate:  mu: +0.122176574  nElectrons: 326.000000
	SubspaceRotationAdjust: set factor to 0.0144
ElecMinimize: Iter:  11  F: -1611.733250888752764  |grad|_K:  1.131e-06  alpha:  4.311e-01  linmin: -1.018e-05  t[s]:   4524.83
	FillingsUpdate:  mu: +0.122572608  nElectrons: 326.000000
	SubspaceRotationAdjust: set factor to 0.0128
ElecMinimize: Iter:  12  F: -1611.733308745476734  |grad|_K:  1.009e-06  alpha:  4.712e-01  linmin: -1.763e-05  t[s]:   4557.76
	FillingsUpdate:  mu: +0.122844498  nElectrons: 326.000000
	SubspaceRotationAdjust: set factor to 0.0142
ElecMinimize: Iter:  13  F: -1611.733353336746404  |grad|_K:  8.770e-07  alpha:  4.560e-01  linmin: -3.070e-06  t[s]:   4590.89
	FillingsUpdate:  mu: +0.122992438  nElectrons: 326.000000
	SubspaceRotationAdjust: set factor to 0.0146
ElecMinimize: Iter:  14  F: -1611.733385886280303  |grad|_K:  7.039e-07  alpha:  4.407e-01  linmin: -3.028e-06  t[s]:   4624.03
	FillingsUpdate:  mu: +0.123074029  nElectrons: 326.000000
	SubspaceRotationAdjust: set factor to 0.014
ElecMinimize: Iter:  15  F: -1611.733406779724874  |grad|_K:  6.266e-07  alpha:  4.392e-01  linmin: -6.890e-06  t[s]:   4656.68
	FillingsUpdate:  mu: +0.123110056  nElectrons: 326.000000
	SubspaceRotationAdjust: set factor to 0.0155
ElecMinimize: Iter:  16  F: -1611.733424418823461  |grad|_K:  5.434e-07  alpha:  4.679e-01  linmin: -6.763e-06  t[s]:   4689.57
	FillingsUpdate:  mu: +0.123114585  nElectrons: 326.000000
	SubspaceRotationAdjust: set factor to 0.0186
ElecMinimize: Iter:  17  F: -1611.733439607422724  |grad|_K:  5.589e-07  alpha:  5.357e-01  linmin: -4.656e-06  t[s]:   4722.44
	FillingsUpdate:  mu: +0.123092081  nElectrons: 326.000000
	SubspaceRotationAdjust: set factor to 0.0198
ElecMinimize: Iter:  18  F: -1611.733456376427966  |grad|_K:  6.463e-07  alpha:  5.590e-01  linmin:  1.364e-06  t[s]:   4755.62
	FillingsUpdate:  mu: +0.123025774  nElectrons: 326.000000
	SubspaceRotationAdjust: set factor to 0.018
ElecMinimize: Iter:  19  F: -1611.733476085073335  |grad|_K:  7.541e-07  alpha:  4.916e-01  linmin: -9.067e-07  t[s]:   4788.85
	FillingsUpdate:  mu: +0.122985080  nElectrons: 326.000000
	SubspaceRotationAdjust: set factor to 0.0162
ElecMinimize: Iter:  20  F: -1611.733502121639276  |grad|_K:  8.007e-07  alpha:  4.769e-01  linmin: -1.374e-07  t[s]:   4821.67
	FillingsUpdate:  mu: +0.122888530  nElectrons: 326.000000
	SubspaceRotationAdjust: set factor to 0.0167
ElecMinimize: Iter:  21  F: -1611.733536570971637  |grad|_K:  8.203e-07  alpha:  5.597e-01  linmin: -3.863e-06  t[s]:   4854.45
	FillingsUpdate:  mu: +0.122766411  nElectrons: 326.000000
	SubspaceRotationAdjust: set factor to 0.0175
ElecMinimize: Iter:  22  F: -1611.733570268933818  |grad|_K:  8.251e-07  alpha:  5.214e-01  linmin: -2.603e-06  t[s]:   4887.26
	FillingsUpdate:  mu: +0.122675192  nElectrons: 326.000000
	SubspaceRotationAdjust: set factor to 0.0161
ElecMinimize: Iter:  23  F: -1611.733599909239274  |grad|_K:  7.252e-07  alpha:  4.534e-01  linmin: -4.134e-07  t[s]:   4920.25
	FillingsUpdate:  mu: +0.122605727  nElectrons: 326.000000
	SubspaceRotationAdjust: set factor to 0.0132
ElecMinimize: Iter:  24  F: -1611.733620806016006  |grad|_K:  6.217e-07  alpha:  4.139e-01  linmin: -1.004e-06  t[s]:   4954.08
	FillingsUpdate:  mu: +0.122582300  nElectrons: 326.000000
	SubspaceRotationAdjust: set factor to 0.0121
ElecMinimize: Iter:  25  F: -1611.733634655217429  |grad|_K:  4.613e-07  alpha:  3.732e-01  linmin:  8.309e-07  t[s]:   4987.16
	FillingsUpdate:  mu: +0.122553228  nElectrons: 326.000000
	SubspaceRotationAdjust: set factor to 0.0132
ElecMinimize: Iter:  26  F: -1611.733642880411026  |grad|_K:  3.496e-07  alpha:  4.027e-01  linmin:  3.640e-07  t[s]:   5020.15
	FillingsUpdate:  mu: +0.122536855  nElectrons: 326.000000
	SubspaceRotationAdjust: set factor to 0.012
ElecMinimize: Iter:  27  F: -1611.733647422391641  |grad|_K:  2.482e-07  alpha:  3.871e-01  linmin: -4.122e-07  t[s]:   5053.03
	FillingsUpdate:  mu: +0.122537653  nElectrons: 326.000000
	SubspaceRotationAdjust: set factor to 0.0111
ElecMinimize: Iter:  28  F: -1611.733649893672009  |grad|_K:  1.881e-07  alpha:  4.180e-01  linmin: -6.140e-07  t[s]:   5085.98
	FillingsUpdate:  mu: +0.122535575  nElectrons: 326.000000
	SubspaceRotationAdjust: set factor to 0.0122
ElecMinimize: Iter:  29  F: -1611.733651181826190  |grad|_K:  1.407e-07  alpha:  3.793e-01  linmin: -3.196e-07  t[s]:   5119.09
	FillingsUpdate:  mu: +0.122532182  nElectrons: 326.000000
	SubspaceRotationAdjust: set factor to 0.0124
ElecMinimize: Iter:  30  F: -1611.733651970158235  |grad|_K:  1.061e-07  alpha:  4.149e-01  linmin:  7.713e-06  t[s]:   5152.60
	FillingsUpdate:  mu: +0.122533197  nElectrons: 326.000000
	SubspaceRotationAdjust: set factor to 0.0125
ElecMinimize: Iter:  31  F: -1611.733652432404142  |grad|_K:  8.503e-08  alpha:  4.279e-01  linmin: -1.983e-06  t[s]:   5185.58
	FillingsUpdate:  mu: +0.122534863  nElectrons: 326.000000
	SubspaceRotationAdjust: set factor to 0.0147
ElecMinimize: Iter:  32  F: -1611.733652737455486  |grad|_K:  7.035e-08  alpha:  4.393e-01  linmin: -2.208e-06  t[s]:   5218.71
	FillingsUpdate:  mu: +0.122536752  nElectrons: 326.000000
	SubspaceRotationAdjust: set factor to 0.0168
ElecMinimize: Iter:  33  F: -1611.733652956031619  |grad|_K:  6.386e-08  alpha:  4.596e-01  linmin: -2.907e-05  t[s]:   5251.55
	FillingsUpdate:  mu: +0.122539748  nElectrons: 326.000000
	SubspaceRotationAdjust: set factor to 0.0178
ElecMinimize: Iter:  34  F: -1611.733653140000797  |grad|_K:  6.372e-08  alpha:  4.696e-01  linmin:  2.403e-05  t[s]:   5284.85
ElecMinimize: Converged (|Delta F|<1.000000e-06 for 5 iters).
Setting wave functions to eigenvectors of Hamiltonian
IonicMinimize: 	Wolfe criterion not satisfied: alpha: 1  (E-E0)/|gdotd0|: -0.951748  gdotd/gdotd0: 0.918179 (taking cubic step)

-------- Electronic minimization -----------
	FillingsUpdate:  mu: +0.098404426  nElectrons: 326.000000
ElecMinimize: Iter:   0  F: -1610.900525760081791  |grad|_K:  1.819e-04  alpha:  1.000e+00
	FillingsUpdate:  mu: +0.110415334  nElectrons: 326.000000
	SubspaceRotationAdjust: set factor to 0.0178
ElecMinimize: Iter:   1  F: -1611.611767042402107  |grad|_K:  7.754e-05  alpha:  2.934e-01  linmin:  3.341e-01  t[s]:   5348.80
	FillingsUpdate:  mu: +0.114820449  nElectrons: 326.000000
	SubspaceRotationAdjust: set factor to 0.0175
ElecMinimize: Iter:   2  F: -1611.720282213664404  |grad|_K:  2.134e-05  alpha:  2.471e-01  linmin: -4.667e-02  t[s]:   5381.61
	FillingsUpdate:  mu: +0.116534483  nElectrons: 326.000000
	SubspaceRotationAdjust: set factor to 0.0169
ElecMinimize: Iter:   3  F: -1611.733624470332416  |grad|_K:  1.160e-05  alpha:  3.000e-01  linmin: -3.434e-03  t[s]:   5414.57
	FillingsUpdate:  mu: +0.118221489  nElectrons: 326.000000
	SubspaceRotationAdjust: set factor to 0.0159
ElecMinimize: Iter:   4  F: -1611.737169891285475  |grad|_K:  5.874e-06  alpha:  2.733e-01  linmin: -1.525e-03  t[s]:   5447.90
	FillingsUpdate:  mu: +0.119927993  nElectrons: 326.000000
	SubspaceRotationAdjust: set factor to 0.0157
ElecMinimize: Iter:   5  F: -1611.738616114546858  |grad|_K:  4.764e-06  alpha:  4.354e-01  linmin: -9.794e-04  t[s]:   5481.35
	FillingsUpdate:  mu: +0.121303595  nElectrons: 326.000000
	SubspaceRotationAdjust: set factor to 0.0186
ElecMinimize: Iter:   6  F: -1611.739287590809681  |grad|_K:  2.861e-06  alpha:  3.069e-01  linmin: -6.583e-04  t[s]:   5514.38
	FillingsUpdate:  mu: +0.122159303  nElectrons: 326.000000
	SubspaceRotationAdjust: set factor to 0.0228
ElecMinimize: Iter:   7  F: -1611.739755344035984  |grad|_K:  2.836e-06  alpha:  5.931e-01  linmin: -4.590e-04  t[s]:   5547.39
	FillingsUpdate:  mu: +0.122819394  nElectrons: 326.000000
	SubspaceRotationAdjust: set factor to 0.0265
ElecMinimize: Iter:   8  F: -1611.740135196229630  |grad|_K:  3.019e-06  alpha:  4.898e-01  linmin: -2.059e-04  t[s]:   5580.26
	FillingsUpdate:  mu: +0.123498991  nElectrons: 326.000000
	SubspaceRotationAdjust: set factor to 0.0259
ElecMinimize: Iter:   9  F: -1611.740596132639894  |grad|_K:  3.574e-06  alpha:  5.248e-01  linmin: -8.914e-05  t[s]:   5613.50
	FillingsUpdate:  mu: +0.124254015  nElectrons: 326.000000
	SubspaceRotationAdjust: set factor to 0.02
ElecMinimize: Iter:  10  F: -1611.740912198267779  |grad|_K:  3.404e-06  alpha:  2.578e-01  linmin:  8.031e-06  t[s]:   5646.55
	FillingsUpdate:  mu: +0.125521830  nElectrons: 326.000000
	SubspaceRotationAdjust: set factor to 0.0184
ElecMinimize: Iter:  11  F: -1611.741369224213486  |grad|_K:  2.903e-06  alpha:  4.111e-01  linmin: -1.097e-05  t[s]:   5679.79
	FillingsUpdate:  mu: +0.126297081  nElectrons: 326.000000
	SubspaceRotationAdjust: set factor to 0.0196
ElecMinimize: Iter:  12  F: -1611.741696577250877  |grad|_K:  2.387e-06  alpha:  4.045e-01  linmin: -5.945e-05  t[s]:   5712.95
	FillingsUpdate:  mu: +0.126685428  nElectrons: 326.000000
	SubspaceRotationAdjust: set factor to 0.0203
ElecMinimize: Iter:  13  F: -1611.741940152085590  |grad|_K:  1.935e-06  alpha:  4.443e-01  linmin: -2.447e-05  t[s]:   5745.93
	FillingsUpdate:  mu: +0.126742851  nElectrons: 326.000000
	SubspaceRotationAdjust: set factor to 0.0177
ElecMinimize: Iter:  14  F: -1611.742068031968756  |grad|_K:  1.812e-06  alpha:  3.556e-01  linmin: -4.401e-06  t[s]:   5779.50
	FillingsUpdate:  mu: +0.126910315  nElectrons: 326.000000
	SubspaceRotationAdjust: set factor to 0.0168
ElecMinimize: Iter:  15  F: -1611.742169566888833  |grad|_K:  1.303e-06  alpha:  3.220e-01  linmin: -1.036e-05  t[s]:   5812.49
	FillingsUpdate:  mu: +0.126930344  nElectrons: 326.000000
	SubspaceRotationAdjust: set factor to 0.0204
ElecMinimize: Iter:  16  F: -1611.742242920073522  |grad|_K:  1.213e-06  alpha:  4.500e-01  linmin: -2.664e-05  t[s]:   5845.86
	FillingsUpdate:  mu: +0.126844636  nElectrons: 326.000000
	SubspaceRotationAdjust: set factor to 0.0238
ElecMinimize: Iter:  17  F: -1611.742311490660086  |grad|_K:  1.208e-06  alpha:  4.848e-01  linmin: -1.941e-05  t[s]:   5878.74
	FillingsUpdate:  mu: +0.126664671  nElectrons: 326.000000
	SubspaceRotationAdjust: set factor to 0.023
ElecMinimize: Iter:  18  F: -1611.742376936335631  |grad|_K:  1.534e-06  alpha:  4.668e-01  linmin: -6.191e-06  t[s]:   5911.49
	FillingsUpdate:  mu: +0.126515430  nElectrons: 326.000000
	SubspaceRotationAdjust: set factor to 0.0203
ElecMinimize: Iter:  19  F: -1611.742454588785449  |grad|_K:  1.515e-06  alpha:  3.439e-01  linmin: -5.180e-06  t[s]:   5945.66
	FillingsUpdate:  mu: +0.126346712  nElectrons: 326.000000
	SubspaceRotationAdjust: set factor to 0.0206
ElecMinimize: Iter:  20  F: -1611.742577192204863  |grad|_K:  1.664e-06  alpha:  5.555e-01  linmin: -1.641e-05  t[s]:   5978.97
	FillingsUpdate:  mu: +0.126078858  nElectrons: 326.000000
	SubspaceRotationAdjust: set factor to 0.0216
ElecMinimize: Iter:  21  F: -1611.742717469267745  |grad|_K:  1.680e-06  alpha:  5.264e-01  linmin: -1.290e-05  t[s]:   6012.00
	FillingsUpdate:  mu: +0.125714920  nElectrons: 326.000000
	SubspaceRotationAdjust: set factor to 0.0217
ElecMinimize: Iter:  22  F: -1611.742864147869341  |grad|_K:  1.614e-06  alpha:  5.401e-01  linmin: -9.554e-06  t[s]:   6045.15
	FillingsUpdate:  mu: +0.125483982  nElectrons: 326.000000
	SubspaceRotationAdjust: set factor to 0.0184
ElecMinimize: Iter:  23  F: -1611.742964620430939  |grad|_K:  1.634e-06  alpha:  4.017e-01  linmin: -1.033e-06  t[s]:   6078.03
	FillingsUpdate:  mu: +0.125406379  nElectrons: 326.000000
	SubspaceRotationAdjust: set factor to 0.0137
ElecMinimize: Iter:  24  F: -1611.743042344693549  |grad|_K:  1.260e-06  alpha:  3.034e-01  linmin:  7.000e-07  t[s]:   6111.76
	FillingsUpdate:  mu: +0.125330266  nElectrons: 326.000000
	SubspaceRotationAdjust: set factor to 0.014
ElecMinimize: Iter:  25  F: -1611.743098258913051  |grad|_K:  9.651e-07  alpha:  3.670e-01  linmin: -7.378e-06  t[s]:   6145.00
	FillingsUpdate:  mu: +0.125240782  nElectrons: 326.000000
	SubspaceRotationAdjust: set factor to 0.0142
ElecMinimize: Iter:  26  F: -1611.743133485995031  |grad|_K:  7.114e-07  alpha:  3.937e-01  linmin: -1.149e-06  t[s]:   6178.33
	FillingsUpdate:  mu: +0.125215554  nElectrons: 326.000000
	SubspaceRotationAdjust: set factor to 0.0123
ElecMinimize: Iter:  27  F: -1611.743150911589055  |grad|_K:  5.608e-07  alpha:  3.586e-01  linmin: -3.121e-06  t[s]:   6211.40
	FillingsUpdate:  mu: +0.125224603  nElectrons: 326.000000
	SubspaceRotationAdjust: set factor to 0.0135
ElecMinimize: Iter:  28  F: -1611.743162129593429  |grad|_K:  4.015e-07  alpha:  3.715e-01  linmin: -2.214e-06  t[s]:   6244.71
	FillingsUpdate:  mu: +0.125238337  nElectrons: 326.000000
	SubspaceRotationAdjust: set factor to 0.0142
ElecMinimize: Iter:  29  F: -1611.743168789880883  |grad|_K:  3.326e-07  alpha:  4.302e-01  linmin: -4.341e-06  t[s]:   6278.19
	FillingsUpdate:  mu: +0.125260361  nElectrons: 326.000000
	SubspaceRotationAdjust: set factor to 0.0138
ElecMinimize: Iter:  30  F: -1611.743172709989494  |grad|_K:  2.698e-07  alpha:  3.692e-01  linmin: -1.865e-06  t[s]:   6311.72
	FillingsUpdate:  mu: +0.125289779  nElectrons: 326.000000
	SubspaceRotationAdjust: set factor to 0.0165
ElecMinimize: Iter:  31  F: -1611.743175864180330  |grad|_K:  2.252e-07  alpha:  4.512e-01  linmin:  5.311e-06  t[s]:   6344.96
	FillingsUpdate:  mu: +0.125314567  nElectrons: 326.000000
	SubspaceRotationAdjust: set factor to 0.0183
ElecMinimize: Iter:  32  F: -1611.743178116643776  |grad|_K:  2.214e-07  alpha:  4.627e-01  linmin:  7.652e-06  t[s]:   6377.99
	FillingsUpdate:  mu: +0.125342822  nElectrons: 326.000000
	SubspaceRotationAdjust: set factor to 0.0182
ElecMinimize: Iter:  33  F: -1611.743180032615328  |grad|_K:  2.127e-07  alpha:  4.074e-01  linmin:  6.493e-06  t[s]:   6411.66
	FillingsUpdate:  mu: +0.125386741  nElectrons: 326.000000
	SubspaceRotationAdjust: set factor to 0.0194
ElecMinimize: Iter:  34  F: -1611.743182025470560  |grad|_K:  2.066e-07  alpha:  4.589e-01  linmin: -2.573e-06  t[s]:   6444.78
	FillingsUpdate:  mu: +0.125436116  nElectrons: 326.000000
	SubspaceRotationAdjust: set factor to 0.0221
ElecMinimize: Iter:  35  F: -1611.743184080343781  |grad|_K:  2.000e-07  alpha:  5.015e-01  linmin: -1.383e-06  t[s]:   6477.67
	FillingsUpdate:  mu: +0.125488465  nElectrons: 326.000000
	SubspaceRotationAdjust: set factor to 0.0226
ElecMinimize: Iter:  36  F: -1611.743186099977038  |grad|_K:  2.142e-07  alpha:  5.260e-01  linmin:  1.128e-05  t[s]:   6510.77
	FillingsUpdate:  mu: +0.125537813  nElectrons: 326.000000
	SubspaceRotationAdjust: set factor to 0.0185
ElecMinimize: Iter:  37  F: -1611.743187604806963  |grad|_K:  2.163e-07  alpha:  3.421e-01  linmin: -1.459e-06  t[s]:   6543.82
	FillingsUpdate:  mu: +0.125590475  nElectrons: 326.000000
	SubspaceRotationAdjust: set factor to 0.0159
ElecMinimize: Iter:  38  F: -1611.743189146427767  |grad|_K:  1.770e-07  alpha:  3.432e-01  linmin:  1.441e-06  t[s]:   6577.06
	FillingsUpdate:  mu: +0.125637089  nElectrons: 326.000000
	SubspaceRotationAdjust: set factor to 0.0171
ElecMinimize: Iter:  39  F: -1611.743190436106715  |grad|_K:  1.525e-07  alpha:  4.291e-01  linmin:  1.789e-06  t[s]:   6610.31
	FillingsUpdate:  mu: +0.125670431  nElectrons: 326.000000
	SubspaceRotationAdjust: set factor to 0.0168
ElecMinimize: Iter:  40  F: -1611.743191371975399  |grad|_K:  1.279e-07  alpha:  4.194e-01  linmin:  3.221e-06  t[s]:   6643.76
	FillingsUpdate:  mu: +0.125687667  nElectrons: 326.000000
	SubspaceRotationAdjust: set factor to 0.0146
ElecMinimize: Iter:  41  F: -1611.743191928061606  |grad|_K:  1.088e-07  alpha:  3.539e-01  linmin: -5.475e-06  t[s]:   6677.29
	FillingsUpdate:  mu: +0.125702154  nElectrons: 326.000000
	SubspaceRotationAdjust: set factor to 0.0159
ElecMinimize: Iter:  42  F: -1611.743192360269404  |grad|_K:  8.214e-08  alpha:  3.805e-01  linmin: -2.508e-05  t[s]:   6711.52
	FillingsUpdate:  mu: +0.125710349  nElectrons: 326.000000
	SubspaceRotationAdjust: set factor to 0.0182
ElecMinimize: Iter:  43  F: -1611.743192652662401  |grad|_K:  7.171e-08  alpha:  4.510e-01  linmin:  2.773e-05  t[s]:   6745.27
	FillingsUpdate:  mu: +0.125712799  nElectrons: 326.000000
	SubspaceRotationAdjust: set factor to 0.0184
ElecMinimize: Iter:  44  F: -1611.743192835086802  |grad|_K:  6.438e-08  alpha:  3.695e-01  linmin: -1.930e-05  t[s]:   6778.96
ElecMinimize: Converged (|Delta F|<1.000000e-06 for 5 iters).
Setting wave functions to eigenvectors of Hamiltonian

# Ionic positions in lattice coordinates:
ion Cr   0.000000000000000   0.000000000000000   0.150000000000000 0
ion Cr   0.500000000000000   0.000000000000000   0.150000000000000 0
ion Cr   0.000000000000000   0.500000000000000   0.150000000000000 0
ion Cr   0.500000000000000   0.500000000000000   0.150000000000000 0
ion Cr   0.250000000000000   0.250000000000000   0.050000000000000 0
ion Cr   0.250000000000000   0.750000000000000   0.050000000000000 0
ion Cr  -0.250000000000000   0.250000000000000   0.050000000000000 0
ion Cr  -0.250000000000000   0.750000000000000   0.050000000000000 0
ion Cr   0.000000000000000   0.000000000000000  -0.050000000000000 0
ion Cr   0.500000000000000   0.000000000000000  -0.050000000000000 0
ion Cr   0.000000000000000   0.500000000000000  -0.050000000000000 0
ion Cr   0.500000000000000   0.500000000000000  -0.050000000000000 0
ion Cr   0.250000000000000   0.250000000000000  -0.150000000000000 0
ion Cr   0.250000000000000   0.750000000000000  -0.150000000000000 0
ion Cr  -0.250000000000000   0.250000000000000  -0.150000000000000 0
ion Cr  -0.250000000000000   0.750000000000000  -0.150000000000000 0
ion O   0.250000000000000   0.250000000000000   0.150000000000000 0
ion O   0.250000000000000   0.750000000000000   0.150000000000000 0
ion O  -0.250000000000000   0.250000000000000   0.150000000000000 0
ion O  -0.250000000000000   0.750000000000000   0.150000000000000 0
ion O   0.000000000000000   0.000000000000000   0.050000000000000 0
ion O   0.500000000000000   0.000000000000000   0.050000000000000 0
ion O   0.000000000000000   0.500000000000000   0.050000000000000 0
ion O   0.500000000000000   0.500000000000000   0.050000000000000 0
ion O   0.250000000000000   0.250000000000000  -0.050000000000000 0
ion O   0.250000000000000   0.750000000000000  -0.050000000000000 0
ion O  -0.250000000000000   0.250000000000000  -0.050000000000000 0
ion O  -0.250000000000000   0.750000000000000  -0.050000000000000 0
ion O   0.000000000000000   0.000000000000000  -0.150000000000000 0
ion O   0.500000000000000   0.000000000000000  -0.150000000000000 0
ion O   0.000000000000000   0.500000000000000  -0.150000000000000 0
ion O   0.500000000000000   0.500000000000000  -0.150000000000000 0
ion O  -0.000004941358751   0.000002495603809   0.224026582700647 1

# Forces in Lattice coordinates:
force Cr  -0.000008644825969  -0.000000276996732   2.191932288397759 0
force Cr   0.000009545391018  -0.000006051978994  -1.401164305022649 0
force Cr  -0.000007455763967   0.000004004271419  -1.401188755877072 0
force Cr   0.000006447291789   0.000005609329331  -1.453510586284442 0
force Cr   0.028101190995945   0.028094771674505   0.534307263861119 0
force Cr   0.028102703697344  -0.028091259687342   0.534337745452474 0
force Cr  -0.028105729797766   0.028100343413253   0.534310941415328 0
force Cr  -0.028104815807995  -0.028094968342942   0.534334905461838 0
force Cr  -0.000000953078117   0.000000154508251  -0.408610178597540 0
force Cr   0.000000454393810   0.000000252010831  -0.566071039047057 0
force Cr   0.000001118947392  -0.000000782865170  -0.566091826255118 0
force Cr  -0.000000748624466  -0.000000128100852  -0.639351293305211 0
force Cr   0.008501284142721   0.008505953647723   1.264127440622017 0
force Cr   0.008502167078460  -0.008506442617456   1.264140986576876 0
force Cr  -0.008501214208947   0.008507586050283   1.264145145955561 0
force Cr  -0.008499357455268  -0.008506181334458   1.264156715326035 0
force O   0.055511778003087   0.055508840739499  -0.768793086072261 0
force O   0.055512683061164  -0.055496808117040  -0.768702570408916 0
force O  -0.055520507133738   0.055512029981257  -0.768712142330619 0
force O  -0.055504601186173  -0.055507655750091  -0.768547670269069 0
force O  -0.000001404508403   0.000004464586821  -0.297166579322316 0
force O   0.000003045743436  -0.000011281086685   0.227600507322524 0
force O  -0.000000243834187   0.000010110164672   0.227564396010055 0
force O  -0.000010328480092   0.000008965044212   0.081822918584269 0
force O  -0.004262221845271  -0.004248081966020  -0.042768951269439 0
force O  -0.004271950582606   0.004252692783667  -0.042780106770800 0
force O   0.004264036805476  -0.004249841534092  -0.042772677178908 0
force O   0.004261236117529   0.004250850177505  -0.042782525785087 0
force O  -0.000000598216163   0.000001830650625   0.492465638576761 0
force O   0.000007622618227   0.000004587776352   0.423886407734983 0
force O   0.000001606536839  -0.000004896638370   0.423867119308289 0
force O   0.000004015234522  -0.000001435711945   0.442858017611361 0
force O  -0.000058499587591  -0.000068913503127  -1.661234357576067 1

# Energy components:
   Eewald =     4811.9955516563659330
       EH =     6242.1061059489438776
     Eloc =   -12792.4781417415724718
      Enl =     -390.2777427734259277
   Epulay =       -0.0003756781916500
      Exc =     -211.6136431299023002
       KE =      728.5351295861303242
-------------------------------------
     Etot =    -1611.7331161316521957
       TS =        0.0100767034346819
-------------------------------------
        F =    -1611.7431928350868020

IonicMinimize: Iter:   1  F: -1611.743192835086802  |grad|_K:  2.281e-02  alpha:  3.000e+00  linmin: -3.251e-01  t[s]:   6787.78

#--- Lowdin population analysis ---
# oxidation-state Cr +2.816 +2.820 +2.820 +2.770 +2.633 +2.633 +2.633 +2.633 +2.637 +2.631 +2.631 +2.631 +2.719 +2.719 +2.719 +2.719
# oxidation-state O -0.697 -0.697 -0.697 -0.697 -0.722 -0.680 -0.680 -0.679 -0.682 -0.682 -0.682 -0.682 -0.718 -0.716 -0.716 -0.713 -0.371


-------- Electronic minimization -----------
	FillingsUpdate:  mu: +0.106763972  nElectrons: 326.000000
ElecMinimize: Iter:   0  F: -1611.426458799038073  |grad|_K:  1.137e-04  alpha:  1.000e+00
	FillingsUpdate:  mu: +0.111464767  nElectrons: 326.000000
	SubspaceRotationAdjust: set factor to 0.0163
ElecMinimize: Iter:   1  F: -1611.708333339490537  |grad|_K:  3.799e-05  alpha:  2.536e-01  linmin:  1.854e-01  t[s]:   6843.68
	FillingsUpdate:  mu: +0.117622373  nElectrons: 326.000000
	SubspaceRotationAdjust: set factor to 0.00918
ElecMinimize: Iter:   2  F: -1611.737320632367073  |grad|_K:  1.312e-05  alpha:  2.333e-01  linmin: -9.285e-03  t[s]:   6877.02
	FillingsUpdate:  mu: +0.120872523  nElectrons: 326.000000
	SubspaceRotationAdjust: set factor to 0.0061
ElecMinimize: Iter:   3  F: -1611.741091650250837  |grad|_K:  6.764e-06  alpha:  2.269e-01  linmin: -5.573e-04  t[s]:   6910.22
	FillingsUpdate:  mu: +0.122213858  nElectrons: 326.000000
	SubspaceRotationAdjust: set factor to 0.00903
ElecMinimize: Iter:   4  F: -1611.742793761658959  |grad|_K:  3.574e-06  alpha:  3.870e-01  linmin: -2.219e-03  t[s]:   6943.83
	FillingsUpdate:  mu: +0.123697555  nElectrons: 326.000000
	SubspaceRotationAdjust: set factor to 0.00877
ElecMinimize: Iter:   5  F: -1611.743290063593349  |grad|_K:  2.194e-06  alpha:  4.034e-01  linmin: -1.106e-03  t[s]:   6977.34
	FillingsUpdate:  mu: +0.124128359  nElectrons: 326.000000
	SubspaceRotationAdjust: set factor to 0.0115
ElecMinimize: Iter:   6  F: -1611.743490624350898  |grad|_K:  1.654e-06  alpha:  4.329e-01  linmin: -6.853e-04  t[s]:   7010.58
	FillingsUpdate:  mu: +0.124448745  nElectrons: 326.000000
	SubspaceRotationAdjust: set factor to 0.0132
ElecMinimize: Iter:   7  F: -1611.743625617212729  |grad|_K:  1.550e-06  alpha:  5.124e-01  linmin: -5.167e-04  t[s]:   7043.81
	FillingsUpdate:  mu: +0.124866619  nElectrons: 326.000000
	SubspaceRotationAdjust: set factor to 0.015
ElecMinimize: Iter:   8  F: -1611.743771280636111  |grad|_K:  1.713e-06  alpha:  6.296e-01  linmin: -3.441e-04  t[s]:   7077.33
	FillingsUpdate:  mu: +0.125615883  nElectrons: 326.000000
	SubspaceRotationAdjust: set factor to 0.0167
ElecMinimize: Iter:   9  F: -1611.743977475234260  |grad|_K:  2.125e-06  alpha:  7.292e-01  linmin: -1.655e-04  t[s]:   7110.81
	FillingsUpdate:  mu: +0.126541027  nElectrons: 326.000000
	SubspaceRotationAdjust: set factor to 0.0181
ElecMinimize: Iter:  10  F: -1611.744239816067193  |grad|_K:  2.127e-06  alpha:  6.028e-01  linmin: -8.888e-05  t[s]:   7144.40
	FillingsUpdate:  mu: +0.127166751  nElectrons: 326.000000
	SubspaceRotationAdjust: set factor to 0.0167
ElecMinimize: Iter:  11  F: -1611.744496400703611  |grad|_K:  2.401e-06  alpha:  5.897e-01  linmin: -5.081e-05  t[s]:   7177.55
	FillingsUpdate:  mu: +0.127835079  nElectrons: 326.000000
	SubspaceRotationAdjust: set factor to 0.0126
ElecMinimize: Iter:  12  F: -1611.744684781489013  |grad|_K:  1.897e-06  alpha:  3.394e-01  linmin: -1.836e-05  t[s]:   7210.71
	FillingsUpdate:  mu: +0.128314448  nElectrons: 326.000000
	SubspaceRotationAdjust: set factor to 0.0123
ElecMinimize: Iter:  13  F: -1611.744840414986811  |grad|_K:  1.460e-06  alpha:  4.501e-01  linmin: -4.794e-05  t[s]:   7244.30
	FillingsUpdate:  mu: +0.128483303  nElectrons: 326.000000
	SubspaceRotationAdjust: set factor to 0.0135
ElecMinimize: Iter:  14  F: -1611.744927096263837  |grad|_K:  1.128e-06  alpha:  4.229e-01  linmin: -1.920e-05  t[s]:   7277.48
	FillingsUpdate:  mu: +0.128563806  nElectrons: 326.000000
	SubspaceRotationAdjust: set factor to 0.0132
ElecMinimize: Iter:  15  F: -1611.744974424549582  |grad|_K:  8.255e-07  alpha:  3.877e-01  linmin: -1.120e-05  t[s]:   7310.65
	FillingsUpdate:  mu: +0.128600429  nElectrons: 326.000000
	SubspaceRotationAdjust: set factor to 0.0145
ElecMinimize: Iter:  16  F: -1611.745005270829779  |grad|_K:  6.852e-07  alpha:  4.714e-01  linmin: -6.926e-06  t[s]:   7343.93
	FillingsUpdate:  mu: +0.128580461  nElectrons: 326.000000
	SubspaceRotationAdjust: set factor to 0.0183
ElecMinimize: Iter:  17  F: -1611.745026116525196  |grad|_K:  6.190e-07  alpha:  4.624e-01  linmin:  2.074e-06  t[s]:   7377.23
	FillingsUpdate:  mu: +0.128513610  nElectrons: 326.000000
	SubspaceRotationAdjust: set factor to 0.0214
ElecMinimize: Iter:  18  F: -1611.745047204985440  |grad|_K:  6.835e-07  alpha:  5.734e-01  linmin:  1.236e-05  t[s]:   7410.29
	FillingsUpdate:  mu: +0.128431411  nElectrons: 326.000000
	SubspaceRotationAdjust: set factor to 0.0213
ElecMinimize: Iter:  19  F: -1611.745069527174110  |grad|_K:  8.297e-07  alpha:  4.981e-01  linmin:  1.238e-05  t[s]:   7443.75
	FillingsUpdate:  mu: +0.128300632  nElectrons: 326.000000
	SubspaceRotationAdjust: set factor to 0.0198
ElecMinimize: Iter:  20  F: -1611.745097251659217  |grad|_K:  8.810e-07  alpha:  4.199e-01  linmin:  4.886e-06  t[s]:   7477.24
	FillingsUpdate:  mu: +0.128107645  nElectrons: 326.000000
	SubspaceRotationAdjust: set factor to 0.0195
ElecMinimize: Iter:  21  F: -1611.745137656365387  |grad|_K:  9.643e-07  alpha:  5.423e-01  linmin: -6.457e-06  t[s]:   7510.68
	FillingsUpdate:  mu: +0.127827440  nElectrons: 326.000000
	SubspaceRotationAdjust: set factor to 0.0196
ElecMinimize: Iter:  22  F: -1611.745187080635333  |grad|_K:  9.903e-07  alpha:  5.532e-01  linmin: -9.445e-06  t[s]:   7543.85
	FillingsUpdate:  mu: +0.127540912  nElectrons: 326.000000
	SubspaceRotationAdjust: set factor to 0.0197
ElecMinimize: Iter:  23  F: -1611.745240752490645  |grad|_K:  9.817e-07  alpha:  5.693e-01  linmin: -9.654e-06  t[s]:   7576.94
	FillingsUpdate:  mu: +0.127315364  nElectrons: 326.000000
	SubspaceRotationAdjust: set factor to 0.0196
ElecMinimize: Iter:  24  F: -1611.745286154181485  |grad|_K:  8.827e-07  alpha:  4.902e-01  linmin: -3.078e-06  t[s]:   7610.17
[...]
	FillingsUpdate:  mu: +0.132177464  nElectrons: 327.000000
	SubspaceRotationAdjust: set factor to 0.011
ElecMinimize: Iter:   8  F: -1612.336630119835490  |grad|_K:  1.402e-07  alpha:  3.077e-01  linmin: -3.623e-05  t[s]:  39732.94
	FillingsUpdate:  mu: +0.132173124  nElectrons: 327.000000
	SubspaceRotationAdjust: set factor to 0.0137
ElecMinimize: Iter:   9  F: -1612.336630933065408  |grad|_K:  1.084e-07  alpha:  4.288e-01  linmin: -3.612e-05  t[s]:  39767.55
	FillingsUpdate:  mu: +0.132171403  nElectrons: 327.000000
	SubspaceRotationAdjust: set factor to 0.0133
ElecMinimize: Iter:  10  F: -1612.336631395386121  |grad|_K:  8.681e-08  alpha:  4.081e-01  linmin:  4.092e-05  t[s]:  39802.25
	FillingsUpdate:  mu: +0.132168611  nElectrons: 327.000000
	SubspaceRotationAdjust: set factor to 0.0136
ElecMinimize: Iter:  11  F: -1612.336631746148214  |grad|_K:  7.890e-08  alpha:  4.825e-01  linmin:  6.647e-06  t[s]:  39836.89
	FillingsUpdate:  mu: +0.132164812  nElectrons: 327.000000
	SubspaceRotationAdjust: set factor to 0.0156
ElecMinimize: Iter:  12  F: -1612.336632080724257  |grad|_K:  7.817e-08  alpha:  5.576e-01  linmin: -5.772e-05  t[s]:  39871.35
	FillingsUpdate:  mu: +0.132161003  nElectrons: 327.000000
	SubspaceRotationAdjust: set factor to 0.0174
ElecMinimize: Iter:  13  F: -1612.336632387701002  |grad|_K:  7.649e-08  alpha:  5.209e-01  linmin:  3.281e-05  t[s]:  39906.08
ElecMinimize: Converged (|Delta F|<1.000000e-06 for 5 iters).
Setting wave functions to eigenvectors of Hamiltonian

# Ionic positions in lattice coordinates:
ion Cr   0.000000000000000   0.000000000000000   0.150000000000000 0
ion Cr   0.500000000000000   0.000000000000000   0.150000000000000 0
ion Cr   0.000000000000000   0.500000000000000   0.150000000000000 0
ion Cr   0.500000000000000   0.500000000000000   0.150000000000000 0
ion Cr   0.250000000000000   0.250000000000000   0.050000000000000 0
ion Cr   0.250000000000000   0.750000000000000   0.050000000000000 0
ion Cr  -0.250000000000000   0.250000000000000   0.050000000000000 0
ion Cr  -0.250000000000000   0.750000000000000   0.050000000000000 0
ion Cr   0.000000000000000   0.000000000000000  -0.050000000000000 0
ion Cr   0.500000000000000   0.000000000000000  -0.050000000000000 0
ion Cr   0.000000000000000   0.500000000000000  -0.050000000000000 0
ion Cr   0.500000000000000   0.500000000000000  -0.050000000000000 0
ion Cr   0.250000000000000   0.250000000000000  -0.150000000000000 0
ion Cr   0.250000000000000   0.750000000000000  -0.150000000000000 0
ion Cr  -0.250000000000000   0.250000000000000  -0.150000000000000 0
ion Cr  -0.250000000000000   0.750000000000000  -0.150000000000000 0
ion O   0.250000000000000   0.250000000000000   0.150000000000000 0
ion O   0.250000000000000   0.750000000000000   0.150000000000000 0
ion O  -0.250000000000000   0.250000000000000   0.150000000000000 0
ion O  -0.250000000000000   0.750000000000000   0.150000000000000 0
ion O   0.000000000000000   0.000000000000000   0.050000000000000 0
ion O   0.500000000000000   0.000000000000000   0.050000000000000 0
ion O   0.000000000000000   0.500000000000000   0.050000000000000 0
ion O   0.500000000000000   0.500000000000000   0.050000000000000 0
ion O   0.250000000000000   0.250000000000000  -0.050000000000000 0
ion O   0.250000000000000   0.750000000000000  -0.050000000000000 0
ion O  -0.250000000000000   0.250000000000000  -0.050000000000000 0
ion O  -0.250000000000000   0.750000000000000  -0.050000000000000 0
ion O   0.000000000000000   0.000000000000000  -0.150000000000000 0
ion O   0.500000000000000   0.000000000000000  -0.150000000000000 0
ion O   0.000000000000000   0.500000000000000  -0.150000000000000 0
ion O   0.500000000000000   0.500000000000000  -0.150000000000000 0
ion O  -0.000636301298229  -0.000904175274989   0.232290153429243 1
ion H   0.099404505724115   0.099407283222929   0.249579402359421 1

# Forces in Lattice coordinates:
force Cr   0.005903289169170   0.005800359925410  -0.288510328380458 0
force Cr   0.017432785876769  -0.009843235321720  -1.444242008014515 0
force Cr  -0.009757460319495   0.017533390382126  -1.444398588259195 0
force Cr   0.006930075023059   0.006995543920900  -1.347310192690980 0
force Cr   0.015104013455090   0.015096634747847   0.538324843066284 0
force Cr   0.015175705889972  -0.013194190098441   0.593730234531544 0
force Cr  -0.013117288398790   0.015102678882217   0.593718218160552 0
force Cr  -0.010399328989064  -0.010425197886465   0.567403840050698 0
force Cr  -0.001801223271914  -0.001841973284237  -0.494306667739792 0
force Cr   0.000525355123139   0.001726011002030  -0.569129280298109 0
force Cr   0.001686474219198   0.000512928579637  -0.569128297126159 0
force Cr   0.000454773418058   0.000402462915092  -0.556244653953866 0
force Cr   0.008323756973688   0.008369756308228   1.250695756544572 0
force Cr   0.007950470751019  -0.008736051900629   1.267134839258116 0
force Cr  -0.008703278601736   0.007899103056999   1.267069851354489 0
force Cr  -0.009164177840552  -0.009064014459934   1.238888490377669 0
force O   0.030935138240849   0.030875962587125  -0.478711743694824 0
force O   0.033133328933570  -0.030703901311752  -0.626379890931908 0
force O  -0.029989418012014   0.032815409044854  -0.623660839852452 0
force O  -0.041450893004914  -0.041534974087719  -0.574403437819987 0
force O  -0.002053317119209  -0.002034028154217  -0.306573067177490 0
force O  -0.001868477706251   0.000229201854213   0.221139990312145 0
force O   0.000002119838551  -0.001688576416787   0.220446082707366 0
force O  -0.000255395139251  -0.000152708658115   0.086896201556398 0
force O  -0.004066574518435  -0.004149951024868  -0.033843394405092 0
force O  -0.005867510666528   0.004786585286643  -0.034970396760980 0
force O   0.004387595715399  -0.005842892764826  -0.034183040528644 0
force O   0.002586422290208   0.001941310210722  -0.022712169656670 0
force O   0.001048228889860   0.001556281159946   0.486993185878411 0
force O   0.000767864351563  -0.000366667458752   0.432062592028785 0
force O  -0.000753406039776   0.000198148687309   0.432332536093238 0
force O   0.000540721485481   0.000110673514232   0.418575012878780 0
force O  -0.010173017110986  -0.009780889373607  -0.039800921044089 1
force H  -0.001908387803153  -0.001945449401431  -0.007603548104093 1

# Energy components:
   Eewald =     4793.5990605816159587
       EH =     6226.4128544188433807
     Eloc =   -12759.2348886984109413
      Enl =     -390.5856180587783228
   Epulay =       -0.0003758999111746
      Exc =     -212.0363883429910743
       KE =      729.5188557097119428
-------------------------------------
     Etot =    -1612.3265002899199771
       TS =        0.0101320977810853
-------------------------------------
        F =    -1612.3366323877010018

IonicMinimize: Iter:   5  F: -1612.336632387701002  |grad|_K:  6.310e-04  alpha:  1.000e+00  linmin:  5.109e-03  t[s]:  39915.18

#--- Lowdin population analysis ---
# oxidation-state Cr +2.821 +2.793 +2.793 +2.756 +2.640 +2.636 +2.636 +2.640 +2.636 +2.631 +2.631 +2.631 +2.717 +2.718 +2.718 +2.717
# oxidation-state O -0.709 -0.698 -0.698 -0.697 -0.708 -0.679 -0.679 -0.679 -0.681 -0.681 -0.681 -0.681 -0.718 -0.716 -0.716 -0.714 -0.646
# oxidation-state H +0.377


-------- Electronic minimization -----------
	FillingsUpdate:  mu: +0.128930785  nElectrons: 327.000000
ElecMinimize: Iter:   0  F: -1612.335449741660568  |grad|_K:  9.597e-06  alpha:  1.000e+00
	FillingsUpdate:  mu: +0.132091991  nElectrons: 327.000000
	SubspaceRotationAdjust: set factor to 0.0448
ElecMinimize: Iter:   1  F: -1612.336605229802444  |grad|_K:  6.984e-07  alpha:  1.298e-01  linmin: -7.209e-03  t[s]:  39974.85
	FillingsUpdate:  mu: +0.132088719  nElectrons: 327.000000
	SubspaceRotationAdjust: set factor to 0.051
ElecMinimize: Iter:   2  F: -1612.336620689337906  |grad|_K:  3.301e-07  alpha:  3.281e-01  linmin:  6.569e-05  t[s]:  40009.12
	FillingsUpdate:  mu: +0.132097710  nElectrons: 327.000000
	SubspaceRotationAdjust: set factor to 0.0601
ElecMinimize: Iter:   3  F: -1612.336625250017732  |grad|_K:  2.599e-07  alpha:  4.341e-01  linmin: -4.984e-05  t[s]:  40043.39
	FillingsUpdate:  mu: +0.132116911  nElectrons: 327.000000
	SubspaceRotationAdjust: set factor to 0.0725
ElecMinimize: Iter:   4  F: -1612.336628681360708  |grad|_K:  2.319e-07  alpha:  5.269e-01  linmin:  2.840e-05  t[s]:  40077.91
	FillingsUpdate:  mu: +0.132124736  nElectrons: 327.000000
	SubspaceRotationAdjust: set factor to 0.0822
ElecMinimize: Iter:   5  F: -1612.336631284147415  |grad|_K:  2.267e-07  alpha:  5.020e-01  linmin:  8.084e-06  t[s]:  40112.34
	FillingsUpdate:  mu: +0.132141604  nElectrons: 327.000000
	SubspaceRotationAdjust: set factor to 0.0524
ElecMinimize: Iter:   6  F: -1612.336632028303256  |grad|_K:  3.584e-07  alpha:  1.502e-01  linmin:  2.542e-05  t[s]:  40147.00
	FillingsUpdate:  mu: +0.132169737  nElectrons: 327.000000
	SubspaceRotationAdjust: set factor to 0.034
ElecMinimize: Iter:   7  F: -1612.336633272781000  |grad|_K:  1.601e-07  alpha:  1.005e-01  linmin: -5.976e-06  t[s]:  40181.57
ElecMinimize: 	Predicted alpha/alphaT>3.000000, increasing alphaT to 3.014273e-01.
	FillingsUpdate:  mu: +0.132121913  nElectrons: 327.000000
	SubspaceRotationAdjust: set factor to 0.0256
ElecMinimize: Iter:   8  F: -1612.336634082762657  |grad|_K:  1.227e-07  alpha:  3.277e-01  linmin:  1.425e-05  t[s]:  40225.53
	FillingsUpdate:  mu: +0.132160042  nElectrons: 327.000000
	SubspaceRotationAdjust: set factor to 0.0234
ElecMinimize: Iter:   9  F: -1612.336634557320622  |grad|_K:  9.437e-08  alpha:  3.268e-01  linmin:  1.204e-05  t[s]:  40260.07
	FillingsUpdate:  mu: +0.132170917  nElectrons: 327.000000
	SubspaceRotationAdjust: set factor to 0.0174
ElecMinimize: Iter:  10  F: -1612.336634781892599  |grad|_K:  8.045e-08  alpha:  2.619e-01  linmin: -1.051e-04  t[s]:  40294.70
	FillingsUpdate:  mu: +0.132159516  nElectrons: 327.000000
	SubspaceRotationAdjust: set factor to 0.0146
ElecMinimize: Iter:  11  F: -1612.336634944113030  |grad|_K:  5.437e-08  alpha:  2.595e-01  linmin:  2.248e-04  t[s]:  40329.47
	FillingsUpdate:  mu: +0.132147635  nElectrons: 327.000000
	SubspaceRotationAdjust: set factor to 0.0163
ElecMinimize: Iter:  12  F: -1612.336635045112871  |grad|_K:  4.105e-08  alpha:  3.553e-01  linmin: -1.280e-04  t[s]:  40364.05
ElecMinimize: Converged (|Delta F|<1.000000e-06 for 5 iters).
Setting wave functions to eigenvectors of Hamiltonian

# Ionic positions in lattice coordinates:
ion Cr   0.000000000000000   0.000000000000000   0.150000000000000 0
ion Cr   0.500000000000000   0.000000000000000   0.150000000000000 0
ion Cr   0.000000000000000   0.500000000000000   0.150000000000000 0
ion Cr   0.500000000000000   0.500000000000000   0.150000000000000 0
ion Cr   0.250000000000000   0.250000000000000   0.050000000000000 0
ion Cr   0.250000000000000   0.750000000000000   0.050000000000000 0
ion Cr  -0.250000000000000   0.250000000000000   0.050000000000000 0
ion Cr  -0.250000000000000   0.750000000000000   0.050000000000000 0
ion Cr   0.000000000000000   0.000000000000000  -0.050000000000000 0
ion Cr   0.500000000000000   0.000000000000000  -0.050000000000000 0
ion Cr   0.000000000000000   0.500000000000000  -0.050000000000000 0
ion Cr   0.500000000000000   0.500000000000000  -0.050000000000000 0
ion Cr   0.250000000000000   0.250000000000000  -0.150000000000000 0
ion Cr   0.250000000000000   0.750000000000000  -0.150000000000000 0
ion Cr  -0.250000000000000   0.250000000000000  -0.150000000000000 0
ion Cr  -0.250000000000000   0.750000000000000  -0.150000000000000 0
ion O   0.250000000000000   0.250000000000000   0.150000000000000 0
ion O   0.250000000000000   0.750000000000000   0.150000000000000 0
ion O  -0.250000000000000   0.250000000000000   0.150000000000000 0
ion O  -0.250000000000000   0.750000000000000   0.150000000000000 0
ion O   0.000000000000000   0.000000000000000   0.050000000000000 0
ion O   0.500000000000000   0.000000000000000   0.050000000000000 0
ion O   0.000000000000000   0.500000000000000   0.050000000000000 0
ion O   0.500000000000000   0.500000000000000   0.050000000000000 0
ion O   0.250000000000000   0.250000000000000  -0.050000000000000 0
ion O   0.250000000000000   0.750000000000000  -0.050000000000000 0
ion O  -0.250000000000000   0.250000000000000  -0.050000000000000 0
ion O  -0.250000000000000   0.750000000000000  -0.050000000000000 0
ion O   0.000000000000000   0.000000000000000  -0.150000000000000 0
ion O   0.500000000000000   0.000000000000000  -0.150000000000000 0
ion O   0.000000000000000   0.500000000000000  -0.150000000000000 0
ion O   0.500000000000000   0.500000000000000  -0.150000000000000 0
ion O  -0.000641270836937  -0.000930988154982   0.232264910718252 1
ion H   0.099325346637101   0.099327901698785   0.249565111319130 1

# Forces in Lattice coordinates:
force Cr   0.004979920835430   0.004770318572597  -0.286792209026112 0
force Cr   0.017534096523842  -0.010199338885216  -1.437669543043277 0
force Cr  -0.010068696635166   0.017708179243369  -1.437683672631636 0
force Cr   0.007096247718664   0.007236600795625  -1.339182950617979 0
force Cr   0.014964937225963   0.014936207309158   0.536293017386025 0
force Cr   0.014812468583329  -0.012912997477582   0.591759096549788 0
force Cr  -0.012835741226423   0.014723451088467   0.591734910675928 0
force Cr  -0.010200833210911  -0.010200071829716   0.566190624942920 0
force Cr  -0.001782841259244  -0.001817200031408  -0.503403995274530 0
force Cr   0.000467751507238   0.001774696065976  -0.582123687782144 0
force Cr   0.001756179674971   0.000446621181903  -0.582138889896886 0
force Cr   0.000396711972860   0.000376018872407  -0.566544616563567 0
force Cr   0.008564382861110   0.008587964244018   1.247145290761769 0
force Cr   0.008102360564245  -0.008954473613864   1.263004566233573 0
force Cr  -0.008963443542902   0.008108374749538   1.262980371707096 0
force Cr  -0.009291746076456  -0.009292420584114   1.235018187675522 0
force O   0.030278692651556   0.030361575656274  -0.475979386061649 0
force O   0.033935701237604  -0.031919471914885  -0.632612416135238 0
force O  -0.031475682146238   0.033637427767547  -0.630500970312191 0
force O  -0.042630132532232  -0.042694367044768  -0.573626270862482 0
force O  -0.001923427386962  -0.001906358787324  -0.313982694284218 0
force O  -0.001100369016071   0.001521099850822   0.217481733202328 0
force O   0.001525508956327  -0.001068025683030   0.217360195156311 0
force O   0.000020964274950   0.000004843434913   0.084533750278791 0
force O  -0.004493311775813  -0.004503868562116  -0.039695442438542 0
force O  -0.006209768275288   0.004854244797456  -0.040611975495976 0
force O   0.004898545140834  -0.006174316574993  -0.040654234597818 0
force O   0.002242531815535   0.002267732081525  -0.030802901438801 0
force O   0.001585433503898   0.001589948481949   0.487385187112425 0
force O   0.000154785728587  -0.000270001976225   0.421178288113124 0
force O  -0.000287238991114   0.000150025675329   0.421131646064541 0
force O  -0.000139256090269  -0.000164135147204   0.416266604625651 0
force O  -0.010711106443756  -0.011941514107292  -0.044635127290492 1
force H   0.000650939746159   0.000653911221702  -0.001919266703383 1

# Energy components:
   Eewald =     4793.6548019899555584
       EH =     6226.4627162940460039
     Eloc =   -12759.3411890932402457
      Enl =     -390.5856532017647851
   Epulay =       -0.0003758999111746
      Exc =     -212.0366710612014742
       KE =      729.5198674751550243
-------------------------------------
     Etot =    -1612.3265034969608678
       TS =        0.0101315481519570
-------------------------------------
        F =    -1612.3366350451128710

IonicMinimize: Iter:   6  F: -1612.336635045112871  |grad|_K:  7.017e-04  alpha:  1.000e+00  linmin: -7.834e-03  t[s]:  40373.15
IonicMinimize: Converged (|Delta F|<1.000000e-04 for 3 iters).

#--- Lowdin population analysis ---
# oxidation-state Cr +2.819 +2.790 +2.790 +2.757 +2.635 +2.632 +2.632 +2.636 +2.634 +2.629 +2.629 +2.629 +2.725 +2.725 +2.725 +2.725
# oxidation-state O -0.709 -0.698 -0.698 -0.697 -0.708 -0.679 -0.679 -0.679 -0.681 -0.682 -0.682 -0.681 -0.718 -0.715 -0.715 -0.714 -0.645
# oxidation-state H +0.377


Dumping 'OH.ionpos' ... done
Dumping 'OH.lattice' ... done
Dumping 'OH.Ecomponents' ... done
End date and time: Fri May  2 13:08:16 2025  (Duration: 0-11:12:56.23)
Done!
File 'min_progress.txt' has been deleted.
File 'min_details.txt' does not exist, so it cannot be deleted.
File 'O_pos.txt' does not exist, so it cannot be deleted.
File 'OH_pos.txt' does not exist, so it cannot be deleted.
Directory 'runs' has been deleted.
File '/data2/jt577/March_2025/pure_RSO/ionic_relax_noMagnetism/pure_CrO/runs/wavefunctions/O.wfns' does not exist and cannot be copied.
File '/data2/jt577/March_2025/pure_RSO/ionic_relax_noMagnetism/pure_CrO/runs/wavefunctions/OH.wfns' does not exist and cannot be copied.
File '/data2/jt577/March_2025/pure_RSO/ionic_relax_noMagnetism/pure_CrO/runs/calc_20250501-224536/O/O.wfns' does not exist and cannot be copied.
File '/data2/jt577/March_2025/pure_RSO/ionic_relax_noMagnetism/pure_CrO/runs/calc_20250501-224536/OH/OH.wfns' does not exist and cannot be copied.
File '/data2/jt577/March_2025/pure_RSO/ionic_relax_noMagnetism/pure_CrO/runs/calc_20250501-224536/O/O.ionpos' has been copied to '/data2/jt577/March_2025/pure_RSO/ionic_relax_noMagnetism/pure_CrO/runs/positions/O.ionpos'.
File '/data2/jt577/March_2025/pure_RSO/ionic_relax_noMagnetism/pure_CrO/runs/calc_20250501-224536/O/O.lattice' has been copied to '/data2/jt577/March_2025/pure_RSO/ionic_relax_noMagnetism/pure_CrO/runs/positions/O.lattice'.
File '/data2/jt577/March_2025/pure_RSO/ionic_relax_noMagnetism/pure_CrO/runs/calc_20250501-224536/OH/OH.ionpos' has been copied to '/data2/jt577/March_2025/pure_RSO/ionic_relax_noMagnetism/pure_CrO/runs/positions/OH.ionpos'.
File '/data2/jt577/March_2025/pure_RSO/ionic_relax_noMagnetism/pure_CrO/runs/calc_20250501-224536/OH/OH.lattice' has been copied to '/data2/jt577/March_2025/pure_RSO/ionic_relax_noMagnetism/pure_CrO/runs/positions/OH.lattice'.
File '/data2/jt577/March_2025/pure_RSO/ionic_relax_noMagnetism/pure_CrO/runs/wavefunctions/O.wfns' does not exist and cannot be copied.
File '/data2/jt577/March_2025/pure_RSO/ionic_relax_noMagnetism/pure_CrO/runs/wavefunctions/OH.wfns' does not exist and cannot be copied.
Traceback (most recent call last):
  File "/data2/jt577/March_2025/pure_RSO/ionic_relax_noMagnetism/pure_CrO/main.py", line 243, in <module>
    x, _, unique_folder = mn.PBFGS(fun=cost, x0=x, jac=grad_cost, args=(elements, target, eta, q, first_iteration, generic_inputs, lattice, positions_ordered, ads_O_pos, ads_OH_pos), S=num_species, B=quasi_Hessian, folder=unique_folder, progress_file_path=progress_file_path, details_file_path=details_file_path, maxit=maxit, tol=1e-2, callback=callback_func)
  File "/data2/jt577/March_2025/pure_RSO/ionic_relax_noMagnetism/pure_CrO/modules/minimize.py", line 162, in PBFGS
    unique_folder = bs.perform_calc(x, *args)
  File "/data2/jt577/March_2025/pure_RSO/ionic_relax_noMagnetism/pure_CrO/modules/bsruncalc.py", line 152, in perform_calc
    energy_surface(w, adsorbate='O', elements=elements, folder=unique_folder, first_iteration=first_iteration, generic_inputs=generic_inputs, lattice=lattice, positions_ordered=positions_ordered, ads_O_pos=ads_O_pos, ads_OH_pos=ads_OH_pos)
  File "/data2/jt577/March_2025/pure_RSO/ionic_relax_noMagnetism/pure_CrO/modules/bsruncalc.py", line 128, in energy_surface
    write_input_surface(weights, adsorbate, elements, folder, first_iteration, generic_inputs, lattice, positions_ordered, ads_O_pos, ads_OH_pos)
  File "/data2/jt577/March_2025/pure_RSO/ionic_relax_noMagnetism/pure_CrO/modules/bsruncalc.py", line 82, in write_input_surface
    curr_line = mixed_lines[i]
IndexError: list index out of range
