
*************** JDFTx 1.7.0  ***************

Start date and time: Tue Apr 29 22:17:53 2025
Executable /data2/jt577/jdftx_eat_withLibXC/build/jdftx with command-line: -i /data2/jt577/March_2025/pure_RSO/ionic_relax_noMagnetism/pure_CrO/runs/calc_20250429-221752/O/O.in
Running on hosts (process indices):  node3219 (0-8)
Divided in process groups (process indices):  0 (0)  1 (1)  2 (2)  3 (3)  4 (4)  5 (5)  6 (6)  7 (7)  8 (8)
Resource initialization completed at t[s]:      0.00
Run totals: 9 processes, 36 threads, 0 GPUs


Input parsed successfully to the following command list (including defaults):

add-mix 
basis kpoint-dependent
coords-type Lattice
core-overlap-check vector
coulomb-interaction Periodic
davidson-band-ratio 1.1
dump End IonicPositions Lattice Ecomponents
dump-name O.$VAR
elec-cutoff 30
elec-eigen-algo Davidson
elec-ex-corr gga-x-rpbe gga-c-pbe
elec-smearing Fermi 0.001
electronic-minimize  \
	dirUpdateScheme      FletcherReeves \
	linminMethod         DirUpdateRecommended \
	nIterations          1000 \
	history              15 \
	knormThreshold       0 \
	energyDiffThreshold  1e-06 \
	nEnergyDiff          5 \
	alphaTstart          1 \
	alphaTmin            1e-10 \
	updateTestStepSize   yes \
	alphaTreduceFactor   0.1 \
	alphaTincreaseFactor 3 \
	nAlphaAdjustMax      3 \
	wolfeEnergy          0.0001 \
	wolfeGradient        0.9 \
	fdTest               no
exchange-regularization WignerSeitzTruncated
fluid None
fluid-ex-corr (null) lda-PZ
fluid-gummel-loop 10 1.000000e-05
fluid-minimize  \
	dirUpdateScheme      PolakRibiere \
	linminMethod         DirUpdateRecommended \
	nIterations          100 \
	history              15 \
	knormThreshold       0 \
	energyDiffThreshold  0 \
	nEnergyDiff          2 \
	alphaTstart          1 \
	alphaTmin            1e-10 \
	updateTestStepSize   yes \
	alphaTreduceFactor   0.1 \
	alphaTincreaseFactor 3 \
	nAlphaAdjustMax      3 \
	wolfeEnergy          0.0001 \
	wolfeGradient        0.9 \
	fdTest               no
fluid-solvent H2O 55.338 ScalarEOS \
	epsBulk 78.4 \
	pMol 0.92466 \
	epsInf 1.77 \
	Pvap 1.06736e-10 \
	sigmaBulk 4.62e-05 \
	Rvdw 2.61727 \
	Res 1.42 \
	tauNuc 343133 \
	poleEl 15 7 1
forces-output-coords Positions
initial-state O.$VAR
ion Cr  0.000000000000000   0.000000000000000   0.150000000000000 1
ion Cr  0.500000000000000   0.000000000000000   0.150000000000000 1
ion Cr  0.000000000000000   0.500000000000000   0.150000000000000 1
ion Cr  0.500000000000000   0.500000000000000   0.150000000000000 1
ion Cr  0.250000000000000   0.250000000000000   0.050000000000000 1
ion Cr  0.250000000000000   0.750000000000000   0.050000000000000 1
ion Cr -0.250000000000000   0.250000000000000   0.050000000000000 1
ion Cr -0.250000000000000   0.750000000000000   0.050000000000000 1
ion Cr  0.000000000000000   0.000000000000000  -0.050000000000000 0
ion Cr  0.500000000000000   0.000000000000000  -0.050000000000000 0
ion Cr  0.000000000000000   0.500000000000000  -0.050000000000000 0
ion Cr  0.500000000000000   0.500000000000000  -0.050000000000000 0
ion Cr  0.250000000000000   0.250000000000000  -0.150000000000000 0
ion Cr  0.250000000000000   0.750000000000000  -0.150000000000000 0
ion Cr -0.250000000000000   0.250000000000000  -0.150000000000000 0
ion Cr -0.250000000000000   0.750000000000000  -0.150000000000000 0
ion O  0.250000000000000   0.250000000000000   0.150000000000000 1
ion O  0.250000000000000   0.750000000000000   0.150000000000000 1
ion O -0.250000000000000   0.250000000000000   0.150000000000000 1
ion O -0.250000000000000   0.750000000000000   0.150000000000000 1
ion O  0.000000000000000   0.000000000000000   0.050000000000000 1
ion O  0.500000000000000   0.000000000000000   0.050000000000000 1
ion O  0.000000000000000   0.500000000000000   0.050000000000000 1
ion O  0.500000000000000   0.500000000000000   0.050000000000000 1
ion O  0.250000000000000   0.250000000000000  -0.050000000000000 0
ion O  0.250000000000000   0.750000000000000  -0.050000000000000 0
ion O -0.250000000000000   0.250000000000000  -0.050000000000000 0
ion O -0.250000000000000   0.750000000000000  -0.050000000000000 0
ion O  0.000000000000000   0.000000000000000  -0.150000000000000 0
ion O  0.500000000000000   0.000000000000000  -0.150000000000000 0
ion O  0.000000000000000   0.500000000000000  -0.150000000000000 0
ion O  0.500000000000000   0.500000000000000  -0.150000000000000 0
ion O  0.000000000000000   0.000000000000000   0.230000000000000 1
ion-species SG15/$ID_ONCV_PBE.upf
ion-width 0
ionic-minimize  \
	dirUpdateScheme      L-BFGS \
	linminMethod         DirUpdateRecommended \
	nIterations          1000 \
	history              15 \
	knormThreshold       0.0001 \
	energyDiffThreshold  0.0001 \
	nEnergyDiff          3 \
	alphaTstart          1 \
	alphaTmin            1e-10 \
	updateTestStepSize   yes \
	alphaTreduceFactor   0.1 \
	alphaTincreaseFactor 3 \
	nAlphaAdjustMax      3 \
	wolfeEnergy          0.0001 \
	wolfeGradient        0.9 \
	fdTest               no
kpoint   0.500000000000   0.500000000000   0.500000000000  1.00000000000000
kpoint-folding 3 3 1 
latt-move-scale 1 1 1
latt-scale 1 1 1 
lattice  \
	   8.410000000000000    8.410000000000000    0.000000000000000  \
	   8.410000000000000   -8.410000000000000    0.000000000000000  \
	   0.000000000000000    0.000000000000000   42.049999999999997 
lattice-minimize  \
	dirUpdateScheme      L-BFGS \
	linminMethod         DirUpdateRecommended \
	nIterations          0 \
	history              15 \
	knormThreshold       0 \
	energyDiffThreshold  1e-06 \
	nEnergyDiff          2 \
	alphaTstart          1 \
	alphaTmin            1e-10 \
	updateTestStepSize   yes \
	alphaTreduceFactor   0.1 \
	alphaTincreaseFactor 3 \
	nAlphaAdjustMax      3 \
	wolfeEnergy          0.0001 \
	wolfeGradient        0.9 \
	fdTest               no
lcao-params -1 1e-06 0.001
pcm-variant GLSSA13
spintype no-spin
subspace-rotation-factor 1 yes
symmetries none
symmetry-threshold 0.0001


Applied RMS atom displacement 0 bohrs to make symmetries exact.

---------- Initializing the Grid ----------
R = 
[         8.41         8.41            0  ]
[         8.41        -8.41            0  ]
[            0            0        42.05  ]
unit cell volume = 5948.23
G =
[   0.373554   0.373554         -0  ]
[   0.373554  -0.373554         -0  ]
[         -0         -0   0.149422  ]
Minimum fftbox size, Smin = [  60  60  208  ]
Chosen fftbox size, S = [  60  60  210  ]

---------- Exchange Correlation functional ----------
Initialized LibXC exchange functional 'Hammer, Hansen, and Norskov'
Initialized LibXC correlation functional 'Perdew, Burke & Ernzerhof'

---------- Setting up pseudopotentials ----------
Width of ionic core gaussian charges (only for fluid interactions / plotting) set to 0

Reading pseudopotential file '/data2/jt577/jdftx_eat_withLibXC/build/pseudopotentials/SG15/Cr_ONCV_PBE.upf':
  'Cr' pseudopotential, 'PBE' functional
  Generated using ONCVPSP code by D. R. Hamann
  Author: Martin Schlipf and Francois Gygi  Date: 150915.
  14 valence electrons, 4 orbitals, 6 projectors, 1160 radial grid points, with lMax = 2
  Transforming local potential to a uniform radial grid of dG=0.02 with 1373 points.
  Transforming nonlocal projectors to a uniform radial grid of dG=0.02 with 528 points.
    3S    l: 0   occupation:  2.0   eigenvalue: -2.865131
    3P    l: 1   occupation:  6.0   eigenvalue: -1.810600
    4S    l: 0   occupation:  2.0   eigenvalue: -0.180525
    3D    l: 2   occupation:  4.0   eigenvalue: -0.220312
  Transforming atomic orbitals to a uniform radial grid of dG=0.02 with 528 points.
  WARNING: large normalization error in atomic orbital 1s (integral: 0.000001).
  Core radius for overlap checks: 2.10 bohrs.
  Reading pulay file /data2/jt577/jdftx_eat_withLibXC/build/pseudopotentials/SG15/Cr_ONCV_PBE.pulay ... using dE_dnG = -9.817895e-06 computed for Ecut = 30.

Reading pseudopotential file '/data2/jt577/jdftx_eat_withLibXC/build/pseudopotentials/SG15/O_ONCV_PBE.upf':
  'O' pseudopotential, 'PBE' functional
  Generated using ONCVPSP code by D. R. Hamann
  Author: Martin Schlipf and Francois Gygi  Date: 150915.
  6 valence electrons, 2 orbitals, 4 projectors, 936 radial grid points, with lMax = 1
  Transforming local potential to a uniform radial grid of dG=0.02 with 1373 points.
  Transforming nonlocal projectors to a uniform radial grid of dG=0.02 with 528 points.
    2S    l: 0   occupation:  2.0   eigenvalue: -0.880572
    2P    l: 1   occupation:  4.0   eigenvalue: -0.331869
  Transforming atomic orbitals to a uniform radial grid of dG=0.02 with 528 points.
  Core radius for overlap checks: 1.29 bohrs.
  Reading pulay file /data2/jt577/jdftx_eat_withLibXC/build/pseudopotentials/SG15/O_ONCV_PBE.pulay ... using dE_dnG = -8.209514e-03 computed for Ecut = 30.

Initialized 2 species with 33 total atoms.

Folded 1 k-points by 3x3x1 to 9 k-points.

---------- Setting up k-points, bands, fillings ----------
No reducable k-points. 
Computing the number of bands and number of electrons
Calculating initial fillings.
nElectrons: 326.000000   nBands: 228   nStates: 9

----- Setting up reduced wavefunction bases (one per k-point) -----
average nbasis = 46667.556 , ideal nbasis = 46683.549

---------- Setting up ewald sum ----------
Optimum gaussian width for ewald sums = 4.036024 bohr.
Real space sum over 605 unit cells with max indices [  5  5  2  ]
Reciprocal space sum over 5915 terms with max indices [  6  6  17  ]

---------- Allocating electronic variables ----------
Initializing wave functions:  linear combination of atomic orbitals
Cr pseudo-atom occupations:   s ( 2 0 )  p ( 6 )  d ( 6 )
O pseudo-atom occupations:   s ( 2 )  p ( 4 )
	FillingsUpdate:  mu: +0.890710021  nElectrons: 326.000000
LCAOMinimize: Iter:   0  F: -1479.3435773802784752  |grad|_K:  2.250e-02  alpha:  1.000e+00
LCAOMinimize: 	Step increased F by 1.682046e+02, reducing alpha to 2.448547e-02.
	FillingsUpdate:  mu: +0.626342221  nElectrons: 326.000000
LCAOMinimize: Iter:   1  F: -1484.1561791775775419  |grad|_K:  1.741e-02  alpha:  2.449e-02  linmin: -9.534e-02  cgtest:  6.986e-01  t[s]:     65.19
LCAOMinimize: 	Wrong curvature in test step, increasing alphaT to 7.345640e-02.
	FillingsUpdate:  mu: +0.387727327  nElectrons: 326.000000
LCAOMinimize: Iter:   2  F: -1488.1998429131908779  |grad|_K:  1.820e-02  alpha: -1.420e-01  linmin: -6.379e-02  cgtest:  7.911e-01  t[s]:     81.02
LCAOMinimize: 	Step increased F by 1.557661e+02, reducing alpha to 2.487741e-02.
	FillingsUpdate:  mu: +0.316261186  nElectrons: 326.000000
LCAOMinimize: Iter:   3  F: -1492.6251843244779138  |grad|_K:  1.637e-02  alpha:  2.488e-02  linmin: -8.539e-02  cgtest:  8.854e-01  t[s]:    111.36
LCAOMinimize: 	Predicted alpha/alphaT>3.000000, increasing alphaT to 7.463223e-02.
LCAOMinimize: 	Wrong curvature in test step, increasing alphaT to 2.238967e-01.
	FillingsUpdate:  mu: +0.512005035  nElectrons: 326.000000
LCAOMinimize: Iter:   4  F: -1503.0138965723926958  |grad|_K:  1.996e-02  alpha: -4.412e-01  linmin: -1.433e-01  cgtest:  1.699e-01  t[s]:    132.78
LCAOMinimize: 	Step increased F by 7.558367e+01, reducing alpha to 4.151389e-02.
	FillingsUpdate:  mu: -0.093787573  nElectrons: 326.000000
LCAOMinimize: Iter:   5  F: -1514.1842609314473975  |grad|_K:  3.877e-02  alpha:  4.151e-02  linmin:  1.424e-02  cgtest: -1.807e-01  t[s]:    163.13
	FillingsUpdate:  mu: -0.143192098  nElectrons: 326.000000
LCAOMinimize: Iter:   6  F: -1514.2100270468808958  |grad|_K:  3.241e-02  alpha:  9.870e-04  linmin:  5.014e-03  cgtest:  1.009e+00  t[s]:    181.19
LCAOMinimize: Encountered beta<0, resetting CG.
LCAOMinimize: 	Predicted alpha/alphaT>3.000000, increasing alphaT to 2.961142e-03.
	FillingsUpdate:  mu: -0.028993598  nElectrons: 326.000000
LCAOMinimize: Iter:   7  F: -1516.0160742447128541  |grad|_K:  1.862e-02  alpha:  7.352e-03  linmin:  2.035e-02  cgtest: -4.448e-01  t[s]:    203.60
	FillingsUpdate:  mu: +0.161843456  nElectrons: 326.000000
LCAOMinimize: Iter:   8  F: -1516.3449914202017226  |grad|_K:  2.103e-02  alpha:  3.613e-03  linmin: -7.077e-04  cgtest:  8.243e-01  t[s]:    220.94
	FillingsUpdate:  mu: +0.040279870  nElectrons: 326.000000
LCAOMinimize: Iter:   9  F: -1517.0730798961531036  |grad|_K:  5.109e-03  alpha:  7.046e-03  linmin:  1.694e-02  cgtest:  4.262e-03  t[s]:    238.53
LCAOMinimize: 	Predicted alpha/alphaT>3.000000, increasing alphaT to 2.113774e-02.
	FillingsUpdate:  mu: -0.032302736  nElectrons: 326.000000
LCAOMinimize: Iter:  10  F: -1517.2482947430041804  |grad|_K:  5.121e-03  alpha:  2.854e-02  linmin: -7.254e-03  cgtest:  8.380e-02  t[s]:    261.45
	FillingsUpdate:  mu: -0.020081974  nElectrons: 326.000000
LCAOMinimize: Iter:  11  F: -1517.3292779572409472  |grad|_K:  5.686e-03  alpha:  1.386e-02  linmin:  5.804e-03  cgtest: -1.978e-01  t[s]:    278.65
	FillingsUpdate:  mu: +0.003105955  nElectrons: 326.000000
LCAOMinimize: Iter:  12  F: -1517.4663303839151922  |grad|_K:  2.498e-03  alpha:  1.965e-02  linmin:  2.258e-02  cgtest:  1.402e-01  t[s]:    296.23
	FillingsUpdate:  mu: -0.016094043  nElectrons: 326.000000
LCAOMinimize: Iter:  13  F: -1517.4821992613763086  |grad|_K:  2.074e-03  alpha:  1.107e-02  linmin: -2.205e-03  cgtest:  1.528e-01  t[s]:    313.49
	FillingsUpdate:  mu: -0.023804896  nElectrons: 326.000000
LCAOMinimize: Iter:  14  F: -1517.4941089511730752  |grad|_K:  1.769e-03  alpha:  1.161e-02  linmin: -3.704e-04  cgtest: -4.817e-02  t[s]:    330.63
LCAOMinimize: 	Predicted alpha/alphaT>3.000000, increasing alphaT to 3.483834e-02.
	FillingsUpdate:  mu: -0.040172364  nElectrons: 326.000000
LCAOMinimize: Iter:  15  F: -1517.5553515457645517  |grad|_K:  2.346e-03  alpha:  8.135e-02  linmin: -1.358e-03  cgtest: -3.713e-02  t[s]:    352.91
	FillingsUpdate:  mu: -0.011605329  nElectrons: 326.000000
LCAOMinimize: Iter:  16  F: -1517.5772380810533377  |grad|_K:  3.832e-03  alpha:  2.509e-02  linmin:  6.591e-03  cgtest: -3.284e-01  t[s]:    370.29
	FillingsUpdate:  mu: -0.006297338  nElectrons: 326.000000
LCAOMinimize: Iter:  17  F: -1517.6081776380090105  |grad|_K:  2.925e-03  alpha:  1.362e-02  linmin:  3.298e-04  cgtest:  7.311e-01  t[s]:    387.52
	FillingsUpdate:  mu: -0.043607660  nElectrons: 326.000000
LCAOMinimize: Iter:  18  F: -1517.6298924826974144  |grad|_K:  2.086e-03  alpha:  1.051e-02  linmin:  5.484e-03  cgtest:  2.430e-03  t[s]:    405.27
	FillingsUpdate:  mu: -0.059051655  nElectrons: 326.000000
LCAOMinimize: Iter:  19  F: -1517.6429039753002144  |grad|_K:  1.525e-03  alpha:  1.288e-02  linmin: -3.294e-04  cgtest:  9.204e-02  t[s]:    422.63
	FillingsUpdate:  mu: -0.046222383  nElectrons: 326.000000
LCAOMinimize: Iter:  20  F: -1517.6632010274138338  |grad|_K:  1.031e-03  alpha:  3.696e-02  linmin:  6.730e-05  cgtest: -8.459e-02  t[s]:    440.17
	FillingsUpdate:  mu: -0.048572258  nElectrons: 326.000000
LCAOMinimize: Iter:  21  F: -1517.6656249396194198  |grad|_K:  7.075e-04  alpha:  8.933e-03  linmin: -1.311e-02  cgtest:  9.786e-02  t[s]:    457.89
	FillingsUpdate:  mu: -0.052698833  nElectrons: 326.000000
LCAOMinimize: Iter:  22  F: -1517.6674922647803214  |grad|_K:  3.419e-04  alpha:  1.494e-02  linmin:  5.403e-04  cgtest: -1.437e-01  t[s]:    474.99
LCAOMinimize: 	Predicted alpha/alphaT>3.000000, increasing alphaT to 4.482645e-02.
	FillingsUpdate:  mu: -0.047792918  nElectrons: 326.000000
LCAOMinimize: Iter:  23  F: -1517.6688041202139630  |grad|_K:  4.008e-04  alpha:  4.762e-02  linmin: -7.174e-04  cgtest:  5.682e-02  t[s]:    497.20
	FillingsUpdate:  mu: -0.054253131  nElectrons: 326.000000
LCAOMinimize: Iter:  24  F: -1517.6715778960215175  |grad|_K:  4.838e-04  alpha:  7.275e-02  linmin:  3.648e-04  cgtest: -3.620e-02  t[s]:    514.59
	FillingsUpdate:  mu: -0.053343377  nElectrons: 326.000000
LCAOMinimize: Iter:  25  F: -1517.6723303509547804  |grad|_K:  5.847e-04  alpha:  1.456e-02  linmin:  1.546e-03  cgtest: -3.956e-02  t[s]:    531.99
	FillingsUpdate:  mu: -0.054200586  nElectrons: 326.000000
LCAOMinimize: Iter:  26  F: -1517.6755321727080172  |grad|_K:  3.583e-04  alpha:  4.137e-02  linmin: -8.645e-04  cgtest:  3.255e-01  t[s]:    549.26
	FillingsUpdate:  mu: -0.057223109  nElectrons: 326.000000
LCAOMinimize: Iter:  27  F: -1517.6760843897086488  |grad|_K:  3.576e-04  alpha:  1.792e-02  linmin: -4.139e-04  cgtest:  2.242e-03  t[s]:    567.05
	FillingsUpdate:  mu: -0.057245380  nElectrons: 326.000000
LCAOMinimize: Iter:  28  F: -1517.6764812386154517  |grad|_K:  2.662e-04  alpha:  1.312e-02  linmin: -1.120e-04  cgtest: -7.617e-03  t[s]:    584.83
	FillingsUpdate:  mu: -0.056210118  nElectrons: 326.000000
LCAOMinimize: Iter:  29  F: -1517.6767894791996696  |grad|_K:  7.825e-05  alpha:  1.839e-02  linmin: -1.513e-03  cgtest: -3.006e-03  t[s]:    602.25
	FillingsUpdate:  mu: -0.056748333  nElectrons: 326.000000
LCAOMinimize: Iter:  30  F: -1517.6768528609457007  |grad|_K:  1.031e-04  alpha:  4.372e-02  linmin:  9.523e-05  cgtest: -1.740e-03  t[s]:    619.83
LCAOMinimize: None of the convergence criteria satisfied after 30 iterations.


---- Citations for features of the code used in this run ----

   Software package:
      R. Sundararaman, K. Letchworth-Weaver, K.A. Schwarz, D. Gunceler, Y. Ozhabes and T.A. Arias, 'JDFTx: software for joint density-functional theory', SoftwareX 6, 278 (2017)

   LibXC library of exchange-correlation functions:
      M. A. L. Marques, M. J. T. Oliveira and T. Burnus, Comput. Phys. Commun. 183, 2272 (2012)

   Hammer, Hansen, and Norskov exchange functional:
      B. Hammer, L. B. Hansen, and J. K. Nørskov, Phys. Rev. B 59, 7413 (1999)

   Perdew, Burke & Ernzerhof correlation functional:
      J. P. Perdew, K. Burke, and M. Ernzerhof, Phys. Rev. Lett. 77, 3865 (1996)

   Pseudopotentials:
      M Schlipf and F Gygi, Comput. Phys. Commun. 196, 36 (2015)

   Total energy minimization with Auxiliary Hamiltonian:
      C. Freysoldt, S. Boeck, and J. Neugebauer, Phys. Rev. B 79, 241103(R) (2009)

This list may not be complete. Please suggest additional citations or
report any other bugs at https://github.com/shankar1729/jdftx/issues

Initialization completed successfully at t[s]:    625.16


-------- Electronic minimization -----------
	FillingsUpdate:  mu: -0.056748332  nElectrons: 326.000000
ElecMinimize: Iter:   0  F: -1517.676852860945473  |grad|_K:  6.339e-04  alpha:  1.000e+00
	FillingsUpdate:  mu: +0.440850621  nElectrons: 326.000000
	SubspaceRotationAdjust: set factor to 0.998
ElecMinimize: Iter:   1  F: -1537.298314640249146  |grad|_K:  1.377e-03  alpha:  4.903e-01  linmin:  3.199e-02  t[s]:    679.99
ElecMinimize: 	Step increased F by 1.890189e-01, reducing alpha to 6.544932e-03.
	FillingsUpdate:  mu: +0.203715012  nElectrons: 326.000000
	SubspaceRotationAdjust: set factor to 1.07
ElecMinimize: Iter:   2  F: -1543.348968348580229  |grad|_K:  1.109e-03  alpha:  6.545e-03  linmin: -3.977e-03  t[s]:    741.96
	FillingsUpdate:  mu: +0.206407799  nElectrons: 326.000000
	SubspaceRotationAdjust: set factor to 1.37
ElecMinimize: Iter:   3  F: -1547.736535594252700  |grad|_K:  1.034e-03  alpha:  1.685e-02  linmin: -3.829e-03  t[s]:    779.19
ElecMinimize: 	Predicted alpha/alphaT>3.000000, increasing alphaT to 5.054963e-02.
	FillingsUpdate:  mu: +1.181379003  nElectrons: 326.000000
	SubspaceRotationAdjust: set factor to 0.705
ElecMinimize: Iter:   4  F: -1560.727225971841563  |grad|_K:  4.879e-03  alpha:  6.548e-02  linmin:  6.693e-04  t[s]:    826.33
ElecMinimize: 	Step increased F by 6.933834e+01, reducing alpha to 1.020608e-03.
ElecMinimize: 	Step increased F by 1.265293e+01, reducing alpha to 1.020608e-04.
ElecMinimize: 	Step increased F by 1.620614e+01, reducing alpha to 1.020608e-05.
ElecMinimize: 	Step failed to reduce F after 3 attempts. Quitting step.
ElecMinimize: 	Undoing step.
ElecMinimize: 	Step failed: resetting search direction.
	FillingsUpdate:  mu: +1.088785893  nElectrons: 326.000000
	SubspaceRotationAdjust: set factor to 0.374
ElecMinimize: Iter:   5  F: -1544.474092805991631  |grad|_K:  3.670e-03  alpha:  1.021e-05
ElecMinimize: 	Step increased F by 4.862435e+00, reducing alpha to 1.392096e-03.
	FillingsUpdate:  mu: +0.889238342  nElectrons: 326.000000
	SubspaceRotationAdjust: set factor to 0.218
ElecMinimize: Iter:   6  F: -1547.688158798700897  |grad|_K:  2.226e-03  alpha:  1.392e-03  linmin: -4.747e-02  t[s]:    998.89
ElecMinimize: 	Predicted alpha/alphaT>3.000000, increasing alphaT to 4.176288e-03.
	FillingsUpdate:  mu: +0.234732836  nElectrons: 326.000000
	SubspaceRotationAdjust: set factor to 0.133
	SubspaceRotationAdjust: resetting CG because factor has changed by 0.1335
ElecMinimize: 	State modified externally: resetting search direction.
ElecMinimize: Iter:   7  F: -1553.283812891210800  |grad|_K:  9.239e-04  alpha:  6.639e-03
ElecMinimize: 	Predicted alpha/alphaT>3.000000, increasing alphaT to 1.991642e-02.
ElecMinimize: 	Predicted alpha/alphaT>3.000000, increasing alphaT to 5.974927e-02.
	FillingsUpdate:  mu: +0.411058985  nElectrons: 326.000000
	SubspaceRotationAdjust: set factor to 0.0822
ElecMinimize: Iter:   8  F: -1565.172354075919202  |grad|_K:  1.375e-03  alpha:  1.442e-01  linmin: -1.204e-03  t[s]:   1121.63
	FillingsUpdate:  mu: -0.143826935  nElectrons: 326.000000
	SubspaceRotationAdjust: set factor to 0.0593
ElecMinimize: Iter:   9  F: -1578.121766885928082  |grad|_K:  7.574e-04  alpha:  6.864e-02  linmin:  3.153e-04  t[s]:   1158.96
ElecMinimize: 	Predicted alpha/alphaT>3.000000, increasing alphaT to 2.059298e-01.
	FillingsUpdate:  mu: +0.373186538  nElectrons: 326.000000
	SubspaceRotationAdjust: set factor to 0.0724
ElecMinimize: Iter:  10  F: -1590.454428871183154  |grad|_K:  6.831e-04  alpha:  2.273e-01  linmin:  7.386e-04  t[s]:   1206.30
	FillingsUpdate:  mu: +0.401357830  nElectrons: 326.000000
	SubspaceRotationAdjust: set factor to 0.0619
ElecMinimize: Iter:  11  F: -1594.252659106775127  |grad|_K:  6.803e-04  alpha:  1.105e-01  linmin:  1.241e-03  t[s]:   1243.60
	FillingsUpdate:  mu: +0.151581699  nElectrons: 326.000000
	SubspaceRotationAdjust: set factor to 0.0749
ElecMinimize: Iter:  12  F: -1597.663993948197458  |grad|_K:  3.880e-04  alpha:  8.661e-02  linmin: -4.103e-04  t[s]:   1281.89
	FillingsUpdate:  mu: +0.092940648  nElectrons: 326.000000
	SubspaceRotationAdjust: set factor to 0.0686
ElecMinimize: Iter:  13  F: -1600.202767745344772  |grad|_K:  4.192e-04  alpha:  1.705e-01  linmin: -1.327e-04  t[s]:   1319.07
	FillingsUpdate:  mu: +0.045363168  nElectrons: 326.000000
	SubspaceRotationAdjust: set factor to 0.0685
ElecMinimize: Iter:  14  F: -1601.817373379039054  |grad|_K:  3.137e-04  alpha:  9.602e-02  linmin: -2.471e-05  t[s]:   1356.53
	FillingsUpdate:  mu: +0.137465899  nElectrons: 326.000000
	SubspaceRotationAdjust: set factor to 0.0882
ElecMinimize: Iter:  15  F: -1603.254613750343879  |grad|_K:  2.511e-04  alpha:  1.499e-01  linmin: -2.988e-04  t[s]:   1393.98
	FillingsUpdate:  mu: +0.198966719  nElectrons: 326.000000
	SubspaceRotationAdjust: set factor to 0.0752
ElecMinimize: Iter:  16  F: -1603.896687566866831  |grad|_K:  2.447e-04  alpha:  9.932e-02  linmin: -1.432e-04  t[s]:   1431.36
	FillingsUpdate:  mu: +0.156423853  nElectrons: 326.000000
	SubspaceRotationAdjust: set factor to 0.101
ElecMinimize: Iter:  17  F: -1604.591803600294270  |grad|_K:  1.661e-04  alpha:  1.178e-01  linmin: -1.876e-04  t[s]:   1468.37
	FillingsUpdate:  mu: +0.061459031  nElectrons: 326.000000
	SubspaceRotationAdjust: set factor to 0.106
ElecMinimize: Iter:  18  F: -1605.088701304276128  |grad|_K:  1.827e-04  alpha:  1.797e-01  linmin: -1.066e-04  t[s]:   1505.35
	FillingsUpdate:  mu: +0.044429351  nElectrons: 326.000000
	SubspaceRotationAdjust: set factor to 0.0901
ElecMinimize: Iter:  19  F: -1605.384036740981628  |grad|_K:  1.880e-04  alpha:  8.996e-02  linmin: -1.497e-05  t[s]:   1542.56
	FillingsUpdate:  mu: +0.101270973  nElectrons: 326.000000
	SubspaceRotationAdjust: set factor to 0.107
ElecMinimize: Iter:  20  F: -1605.831458839048764  |grad|_K:  1.408e-04  alpha:  1.306e-01  linmin: -5.865e-05  t[s]:   1579.63
	FillingsUpdate:  mu: +0.160064483  nElectrons: 326.000000
	SubspaceRotationAdjust: set factor to 0.103
ElecMinimize: Iter:  21  F: -1606.248571720678456  |grad|_K:  1.769e-04  alpha:  2.123e-01  linmin: -5.226e-05  t[s]:   1616.89
	FillingsUpdate:  mu: +0.123330275  nElectrons: 326.000000
	SubspaceRotationAdjust: set factor to 0.0849
ElecMinimize: Iter:  22  F: -1606.521879489814410  |grad|_K:  1.847e-04  alpha:  9.069e-02  linmin: -7.284e-06  t[s]:   1654.45
	FillingsUpdate:  mu: +0.069989879  nElectrons: 326.000000
	SubspaceRotationAdjust: set factor to 0.0831
ElecMinimize: Iter:  23  F: -1606.943384360569098  |grad|_K:  1.479e-04  alpha:  1.269e-01  linmin: -6.601e-05  t[s]:   1692.13
	FillingsUpdate:  mu: +0.017664341  nElectrons: 326.000000
	SubspaceRotationAdjust: set factor to 0.0917
ElecMinimize: Iter:  24  F: -1607.487725273775823  |grad|_K:  1.748e-04  alpha:  2.420e-01  linmin: -8.195e-05  t[s]:   1729.66
	FillingsUpdate:  mu: +0.039255372  nElectrons: 326.000000
	SubspaceRotationAdjust: set factor to 0.07
ElecMinimize: Iter:  25  F: -1607.859556829376970  |grad|_K:  1.812e-04  alpha:  1.182e-01  linmin: -3.922e-05  t[s]:   1766.96
	FillingsUpdate:  mu: +0.166602945  nElectrons: 326.000000
	SubspaceRotationAdjust: set factor to 0.0554
ElecMinimize: Iter:  26  F: -1608.539680855683855  |grad|_K:  2.083e-04  alpha:  2.068e-01  linmin: -2.955e-05  t[s]:   1804.29
	FillingsUpdate:  mu: +0.008335801  nElectrons: 326.000000
	SubspaceRotationAdjust: set factor to 0.0474
ElecMinimize: Iter:  27  F: -1609.318991572786445  |grad|_K:  2.296e-04  alpha:  2.085e-01  linmin:  5.100e-03  t[s]:   1841.66
ElecMinimize: 	Bad step direction: g.d > 0.
ElecMinimize: 	Undoing step.
ElecMinimize: 	Step failed: resetting search direction.
	FillingsUpdate:  mu: +0.008335801  nElectrons: 326.000000
	SubspaceRotationAdjust: set factor to 0.0516
ElecMinimize: Iter:  28  F: -1609.318991572788036  |grad|_K:  2.277e-04  alpha:  0.000e+00
	FillingsUpdate:  mu: +0.058090080  nElectrons: 326.000000
	SubspaceRotationAdjust: set factor to 0.0474
ElecMinimize: Iter:  29  F: -1610.680481171853671  |grad|_K:  1.002e-04  alpha:  2.729e-01  linmin: -5.774e-03  t[s]:   1905.76
	FillingsUpdate:  mu: +0.059303119  nElectrons: 326.000000
	SubspaceRotationAdjust: set factor to 0.031
ElecMinimize: Iter:  30  F: -1610.799545797612154  |grad|_K:  8.501e-05  alpha:  1.213e-01  linmin: -1.215e-03  t[s]:   1942.94
	FillingsUpdate:  mu: +0.066810790  nElectrons: 326.000000
	SubspaceRotationAdjust: set factor to 0.0329
ElecMinimize: Iter:  31  F: -1610.960177147159811  |grad|_K:  5.371e-05  alpha:  2.315e-01  linmin:  1.160e-03  t[s]:   1980.01
	FillingsUpdate:  mu: +0.068507310  nElectrons: 326.000000
	SubspaceRotationAdjust: set factor to 0.0269
ElecMinimize: Iter:  32  F: -1611.123738256017305  |grad|_K:  7.069e-05  alpha:  5.944e-01  linmin: -9.172e-04  t[s]:   2017.08
	FillingsUpdate:  mu: +0.096891983  nElectrons: 326.000000
	SubspaceRotationAdjust: set factor to 0.0176
	SubspaceRotationAdjust: resetting CG because factor has changed by 0.132094
ElecMinimize: 	State modified externally: resetting search direction.
ElecMinimize: Iter:  33  F: -1611.204078674940320  |grad|_K:  4.809e-05  alpha:  1.672e-01
	FillingsUpdate:  mu: +0.087151618  nElectrons: 326.000000
	SubspaceRotationAdjust: set factor to 0.0186
ElecMinimize: Iter:  34  F: -1611.256951898273428  |grad|_K:  2.529e-05  alpha:  2.383e-01  linmin: -9.210e-04  t[s]:   2109.74
	FillingsUpdate:  mu: +0.088127680  nElectrons: 326.000000
	SubspaceRotationAdjust: set factor to 0.0175
ElecMinimize: Iter:  35  F: -1611.280125781389415  |grad|_K:  1.954e-05  alpha:  3.770e-01  linmin: -2.304e-03  t[s]:   2147.86
	FillingsUpdate:  mu: +0.092759381  nElectrons: 326.000000
	SubspaceRotationAdjust: set factor to 0.0188
ElecMinimize: Iter:  36  F: -1611.302126459705505  |grad|_K:  2.125e-05  alpha:  5.936e-01  linmin: -2.399e-03  t[s]:   2185.21
	FillingsUpdate:  mu: +0.097868211  nElectrons: 326.000000
	SubspaceRotationAdjust: set factor to 0.0201
ElecMinimize: Iter:  37  F: -1611.333329965972553  |grad|_K:  2.474e-05  alpha:  7.010e-01  linmin: -2.615e-03  t[s]:   2222.52
	FillingsUpdate:  mu: +0.096528412  nElectrons: 326.000000
	SubspaceRotationAdjust: set factor to 0.0219
ElecMinimize: Iter:  38  F: -1611.373542672778740  |grad|_K:  2.408e-05  alpha:  6.548e-01  linmin: -3.630e-03  t[s]:   2259.71
	FillingsUpdate:  mu: +0.098200343  nElectrons: 326.000000
	SubspaceRotationAdjust: set factor to 0.0222
ElecMinimize: Iter:  39  F: -1611.413755515624644  |grad|_K:  2.888e-05  alpha:  6.678e-01  linmin: -2.415e-03  t[s]:   2296.97
	FillingsUpdate:  mu: +0.107030412  nElectrons: 326.000000
	SubspaceRotationAdjust: set factor to 0.0192
ElecMinimize: Iter:  40  F: -1611.457914669727870  |grad|_K:  3.109e-05  alpha:  5.268e-01  linmin: -2.905e-03  t[s]:   2334.60
	FillingsUpdate:  mu: +0.105777623  nElectrons: 326.000000
	SubspaceRotationAdjust: set factor to 0.0143
ElecMinimize: Iter:  41  F: -1611.501097295358704  |grad|_K:  3.721e-05  alpha:  4.246e-01  linmin: -9.577e-04  t[s]:   2372.02
	FillingsUpdate:  mu: +0.112379517  nElectrons: 326.000000
	SubspaceRotationAdjust: set factor to 0.0103
ElecMinimize: Iter:  42  F: -1611.553808060602933  |grad|_K:  3.076e-05  alpha:  3.686e-01  linmin:  1.051e-03  t[s]:   2409.59
	FillingsUpdate:  mu: +0.114410601  nElectrons: 326.000000
	SubspaceRotationAdjust: set factor to 0.014
ElecMinimize: Iter:  43  F: -1611.592965563551843  |grad|_K:  2.801e-05  alpha:  4.503e-01  linmin: -5.111e-04  t[s]:   2446.68
	FillingsUpdate:  mu: +0.130280884  nElectrons: 326.000000
	SubspaceRotationAdjust: set factor to 0.0125
ElecMinimize: Iter:  44  F: -1611.621232316889973  |grad|_K:  2.092e-05  alpha:  3.710e-01  linmin: -5.576e-04  t[s]:   2483.62
	FillingsUpdate:  mu: +0.138224940  nElectrons: 326.000000
	SubspaceRotationAdjust: set factor to 0.0142
ElecMinimize: Iter:  45  F: -1611.639269804925561  |grad|_K:  1.508e-05  alpha:  4.220e-01  linmin: -2.390e-04  t[s]:   2520.87
	FillingsUpdate:  mu: +0.137947357  nElectrons: 326.000000
	SubspaceRotationAdjust: set factor to 0.0161
ElecMinimize: Iter:  46  F: -1611.647929690328965  |grad|_K:  1.302e-05  alpha:  3.945e-01  linmin: -1.656e-04  t[s]:   2558.22
	FillingsUpdate:  mu: +0.135809435  nElectrons: 326.000000
	SubspaceRotationAdjust: set factor to 0.0166
ElecMinimize: Iter:  47  F: -1611.655513941024765  |grad|_K:  1.265e-05  alpha:  4.649e-01  linmin: -1.031e-04  t[s]:   2595.55
	FillingsUpdate:  mu: +0.134245771  nElectrons: 326.000000
	SubspaceRotationAdjust: set factor to 0.0172
ElecMinimize: Iter:  48  F: -1611.663103859860712  |grad|_K:  1.295e-05  alpha:  4.932e-01  linmin: -8.420e-05  t[s]:   2633.22
	FillingsUpdate:  mu: +0.134108988  nElectrons: 326.000000
	SubspaceRotationAdjust: set factor to 0.0189
ElecMinimize: Iter:  49  F: -1611.670921108558559  |grad|_K:  1.251e-05  alpha:  4.849e-01  linmin: -1.196e-04  t[s]:   2671.09
	FillingsUpdate:  mu: +0.131812752  nElectrons: 326.000000
	SubspaceRotationAdjust: set factor to 0.0213
ElecMinimize: Iter:  50  F: -1611.678804241424587  |grad|_K:  1.250e-05  alpha:  5.230e-01  linmin: -2.736e-04  t[s]:   2708.12
	FillingsUpdate:  mu: +0.127989450  nElectrons: 326.000000
	SubspaceRotationAdjust: set factor to 0.0217
ElecMinimize: Iter:  51  F: -1611.685988156516714  |grad|_K:  1.324e-05  alpha:  4.741e-01  linmin: -2.814e-04  t[s]:   2745.65
	FillingsUpdate:  mu: +0.125412193  nElectrons: 326.000000
	SubspaceRotationAdjust: set factor to 0.0186
ElecMinimize: Iter:  52  F: -1611.692475435750794  |grad|_K:  1.420e-05  alpha:  3.842e-01  linmin: -5.043e-04  t[s]:   2782.72
	FillingsUpdate:  mu: +0.124524316  nElectrons: 326.000000
	SubspaceRotationAdjust: set factor to 0.0159
ElecMinimize: Iter:  53  F: -1611.699513627801480  |grad|_K:  1.283e-05  alpha:  3.553e-01  linmin: -2.830e-04  t[s]:   2820.37
	FillingsUpdate:  mu: +0.123750084  nElectrons: 326.000000
	SubspaceRotationAdjust: set factor to 0.0171
ElecMinimize: Iter:  54  F: -1611.706922127017151  |grad|_K:  1.106e-05  alpha:  4.609e-01  linmin: -5.537e-04  t[s]:   2857.65
	FillingsUpdate:  mu: +0.120304526  nElectrons: 326.000000
	SubspaceRotationAdjust: set factor to 0.0171
ElecMinimize: Iter:  55  F: -1611.711890838069394  |grad|_K:  9.617e-06  alpha:  4.129e-01  linmin: -1.831e-04  t[s]:   2895.24
	FillingsUpdate:  mu: +0.119269702  nElectrons: 326.000000
	SubspaceRotationAdjust: set factor to 0.0152
ElecMinimize: Iter:  56  F: -1611.715270177521916  |grad|_K:  8.053e-06  alpha:  3.779e-01  linmin: -8.926e-05  t[s]:   2932.53
	FillingsUpdate:  mu: +0.119840112  nElectrons: 326.000000
	SubspaceRotationAdjust: set factor to 0.0148
ElecMinimize: Iter:  57  F: -1611.717584059546880  |grad|_K:  6.414e-06  alpha:  3.705e-01  linmin: -3.362e-05  t[s]:   2969.80
	FillingsUpdate:  mu: +0.119615402  nElectrons: 326.000000
	SubspaceRotationAdjust: set factor to 0.0161
ElecMinimize: Iter:  58  F: -1611.719312781104009  |grad|_K:  5.740e-06  alpha:  4.372e-01  linmin: -3.807e-05  t[s]:   3007.20
	FillingsUpdate:  mu: +0.118755335  nElectrons: 326.000000
	SubspaceRotationAdjust: set factor to 0.0164
ElecMinimize: Iter:  59  F: -1611.720615784416395  |grad|_K:  5.038e-06  alpha:  4.115e-01  linmin: -7.473e-05  t[s]:   3044.82
	FillingsUpdate:  mu: +0.118559958  nElectrons: 326.000000
	SubspaceRotationAdjust: set factor to 0.0163
ElecMinimize: Iter:  60  F: -1611.721595912919838  |grad|_K:  4.287e-06  alpha:  4.014e-01  linmin: -1.174e-04  t[s]:   3082.35
	FillingsUpdate:  mu: +0.118948071  nElectrons: 326.000000
	SubspaceRotationAdjust: set factor to 0.0181
ElecMinimize: Iter:  61  F: -1611.722297098032641  |grad|_K:  3.651e-06  alpha:  3.961e-01  linmin: -1.552e-04  t[s]:   3119.82
	FillingsUpdate:  mu: +0.119131406  nElectrons: 326.000000
	SubspaceRotationAdjust: set factor to 0.0208
ElecMinimize: Iter:  62  F: -1611.722873477437133  |grad|_K:  3.388e-06  alpha:  4.485e-01  linmin: -1.809e-04  t[s]:   3157.53
	FillingsUpdate:  mu: +0.119212250  nElectrons: 326.000000
	SubspaceRotationAdjust: set factor to 0.0212
ElecMinimize: Iter:  63  F: -1611.723343495523295  |grad|_K:  3.337e-06  alpha:  4.242e-01  linmin: -1.597e-04  t[s]:   3194.97
	FillingsUpdate:  mu: +0.119739538  nElectrons: 326.000000
	SubspaceRotationAdjust: set factor to 0.0193
ElecMinimize: Iter:  64  F: -1611.723738572668481  |grad|_K:  3.267e-06  alpha:  3.676e-01  linmin: -1.271e-04  t[s]:   3232.54
	FillingsUpdate:  mu: +0.120734038  nElectrons: 326.000000
	SubspaceRotationAdjust: set factor to 0.0191
ElecMinimize: Iter:  65  F: -1611.724157311750105  |grad|_K:  2.992e-06  alpha:  4.064e-01  linmin: -1.002e-04  t[s]:   3269.94
	FillingsUpdate:  mu: +0.121438218  nElectrons: 326.000000
	SubspaceRotationAdjust: set factor to 0.0207
ElecMinimize: Iter:  66  F: -1611.724555602322653  |grad|_K:  2.762e-06  alpha:  4.613e-01  linmin: -8.147e-05  t[s]:   3307.82
	FillingsUpdate:  mu: +0.121747211  nElectrons: 326.000000
	SubspaceRotationAdjust: set factor to 0.0217
ElecMinimize: Iter:  67  F: -1611.724885228172070  |grad|_K:  2.592e-06  alpha:  4.481e-01  linmin: -5.727e-05  t[s]:   3345.08
	FillingsUpdate:  mu: +0.121946069  nElectrons: 326.000000
	SubspaceRotationAdjust: set factor to 0.0203
ElecMinimize: Iter:  68  F: -1611.725139048818619  |grad|_K:  2.511e-06  alpha:  3.921e-01  linmin: -3.328e-05  t[s]:   3382.52
	FillingsUpdate:  mu: +0.122126174  nElectrons: 326.000000
	SubspaceRotationAdjust: set factor to 0.0177
ElecMinimize: Iter:  69  F: -1611.725346866805694  |grad|_K:  2.294e-06  alpha:  3.427e-01  linmin: -3.080e-05  t[s]:   3420.11
	FillingsUpdate:  mu: +0.122216633  nElectrons: 326.000000
	SubspaceRotationAdjust: set factor to 0.0182
ElecMinimize: Iter:  70  F: -1611.725544552004294  |grad|_K:  1.995e-06  alpha:  3.904e-01  linmin: -2.386e-05  t[s]:   3457.44
	FillingsUpdate:  mu: +0.122156187  nElectrons: 326.000000
	SubspaceRotationAdjust: set factor to 0.0207
ElecMinimize: Iter:  71  F: -1611.725711978402160  |grad|_K:  1.782e-06  alpha:  4.375e-01  linmin: -2.734e-05  t[s]:   3495.14
	FillingsUpdate:  mu: +0.122148624  nElectrons: 326.000000
	SubspaceRotationAdjust: set factor to 0.0209
ElecMinimize: Iter:  72  F: -1611.725836690412734  |grad|_K:  1.747e-06  alpha:  4.081e-01  linmin: -2.427e-05  t[s]:   3532.37
	FillingsUpdate:  mu: +0.122121658  nElectrons: 326.000000
	SubspaceRotationAdjust: set factor to 0.0196
ElecMinimize: Iter:  73  F: -1611.725940343621232  |grad|_K:  1.649e-06  alpha:  3.533e-01  linmin: -1.778e-05  t[s]:   3569.66
	FillingsUpdate:  mu: +0.121956860  nElectrons: 326.000000
	SubspaceRotationAdjust: set factor to 0.0207
ElecMinimize: Iter:  74  F: -1611.726047592022951  |grad|_K:  1.551e-06  alpha:  4.103e-01  linmin: -2.003e-05  t[s]:   3607.22
	FillingsUpdate:  mu: +0.121713944  nElectrons: 326.000000
	SubspaceRotationAdjust: set factor to 0.0236
ElecMinimize: Iter:  75  F: -1611.726158143355860  |grad|_K:  1.530e-06  alpha:  4.778e-01  linmin: -1.521e-05  t[s]:   3644.80
	FillingsUpdate:  mu: +0.121542197  nElectrons: 326.000000
	SubspaceRotationAdjust: set factor to 0.0246
ElecMinimize: Iter:  76  F: -1611.726264105118844  |grad|_K:  1.628e-06  alpha:  4.708e-01  linmin: -1.269e-05  t[s]:   3682.20
	FillingsUpdate:  mu: +0.121370848  nElectrons: 326.000000
	SubspaceRotationAdjust: set factor to 0.0213
ElecMinimize: Iter:  77  F: -1611.726353477305111  |grad|_K:  1.723e-06  alpha:  3.509e-01  linmin: -1.302e-05  t[s]:   3719.38
	FillingsUpdate:  mu: +0.121143881  nElectrons: 326.000000
	SubspaceRotationAdjust: set factor to 0.0185
ElecMinimize: Iter:  78  F: -1611.726444800960735  |grad|_K:  1.518e-06  alpha:  3.198e-01  linmin: -8.969e-06  t[s]:   3756.81
	FillingsUpdate:  mu: +0.120835346  nElectrons: 326.000000
	SubspaceRotationAdjust: set factor to 0.0198
ElecMinimize: Iter:  79  F: -1611.726539103536425  |grad|_K:  1.371e-06  alpha:  4.256e-01  linmin: -6.686e-06  t[s]:   3794.48
	FillingsUpdate:  mu: +0.120616516  nElectrons: 326.000000
	SubspaceRotationAdjust: set factor to 0.0204
ElecMinimize: Iter:  80  F: -1611.726616292999552  |grad|_K:  1.280e-06  alpha:  4.274e-01  linmin: -2.853e-06  t[s]:   3831.95
	FillingsUpdate:  mu: +0.120459893  nElectrons: 326.000000
	SubspaceRotationAdjust: set factor to 0.0179
ElecMinimize: Iter:  81  F: -1611.726672233982981  |grad|_K:  1.195e-06  alpha:  3.556e-01  linmin:  1.968e-06  t[s]:   3869.22
	FillingsUpdate:  mu: +0.120380461  nElectrons: 326.000000
	SubspaceRotationAdjust: set factor to 0.0167
ElecMinimize: Iter:  82  F: -1611.726719692218921  |grad|_K:  9.987e-07  alpha:  3.463e-01  linmin:  4.545e-06  t[s]:   3906.83
	FillingsUpdate:  mu: +0.120283497  nElectrons: 326.000000
	SubspaceRotationAdjust: set factor to 0.0191
ElecMinimize: Iter:  83  F: -1611.726758381265199  |grad|_K:  8.503e-07  alpha:  4.043e-01  linmin:  9.724e-06  t[s]:   3943.89
	FillingsUpdate:  mu: +0.120252067  nElectrons: 326.000000
	SubspaceRotationAdjust: set factor to 0.0199
ElecMinimize: Iter:  84  F: -1611.726785635254828  |grad|_K:  7.722e-07  alpha:  3.931e-01  linmin:  8.904e-06  t[s]:   3981.19
	FillingsUpdate:  mu: +0.120306671  nElectrons: 326.000000
	SubspaceRotationAdjust: set factor to 0.0194
ElecMinimize: Iter:  85  F: -1611.726805666676455  |grad|_K:  7.003e-07  alpha:  3.502e-01  linmin:  6.151e-06  t[s]:   4018.59
	FillingsUpdate:  mu: +0.120345562  nElectrons: 326.000000
	SubspaceRotationAdjust: set factor to 0.0219
ElecMinimize: Iter:  86  F: -1611.726824471302734  |grad|_K:  6.382e-07  alpha:  3.996e-01  linmin:  5.022e-06  t[s]:   4055.94
	FillingsUpdate:  mu: +0.120395991  nElectrons: 326.000000
	SubspaceRotationAdjust: set factor to 0.0258
ElecMinimize: Iter:  87  F: -1611.726842734180991  |grad|_K:  6.414e-07  alpha:  4.673e-01  linmin:  3.216e-06  t[s]:   4092.93
	FillingsUpdate:  mu: +0.120512973  nElectrons: 326.000000
	SubspaceRotationAdjust: set factor to 0.0266
ElecMinimize: Iter:  88  F: -1611.726860437241612  |grad|_K:  7.295e-07  alpha:  4.484e-01  linmin:  5.556e-07  t[s]:   4130.62
	FillingsUpdate:  mu: +0.120633191  nElectrons: 326.000000
	SubspaceRotationAdjust: set factor to 0.0226
ElecMinimize: Iter:  89  F: -1611.726875999349886  |grad|_K:  7.539e-07  alpha:  3.047e-01  linmin: -9.590e-07  t[s]:   4168.40
	FillingsUpdate:  mu: +0.120808626  nElectrons: 326.000000
	SubspaceRotationAdjust: set factor to 0.0212
ElecMinimize: Iter:  90  F: -1611.726894618760298  |grad|_K:  6.731e-07  alpha:  3.413e-01  linmin:  1.550e-07  t[s]:   4205.81
	FillingsUpdate:  mu: +0.120927183  nElectrons: 326.000000
	SubspaceRotationAdjust: set factor to 0.0226
ElecMinimize: Iter:  91  F: -1611.726913864538119  |grad|_K:  6.299e-07  alpha:  4.426e-01  linmin: -3.063e-07  t[s]:   4243.16
	FillingsUpdate:  mu: +0.121032037  nElectrons: 326.000000
	SubspaceRotationAdjust: set factor to 0.0226
ElecMinimize: Iter:  92  F: -1611.726930110456806  |grad|_K:  6.004e-07  alpha:  4.266e-01  linmin: -9.559e-07  t[s]:   4280.73
	FillingsUpdate:  mu: +0.121133455  nElectrons: 326.000000
	SubspaceRotationAdjust: set factor to 0.0192
ElecMinimize: Iter:  93  F: -1611.726941636169386  |grad|_K:  5.520e-07  alpha:  3.330e-01  linmin: -4.737e-07  t[s]:   4318.37
	FillingsUpdate:  mu: +0.121197430  nElectrons: 326.000000
	SubspaceRotationAdjust: set factor to 0.0164
ElecMinimize: Iter:  94  F: -1611.726950376090826  |grad|_K:  4.411e-07  alpha:  2.988e-01  linmin: -3.945e-07  t[s]:   4355.43
	FillingsUpdate:  mu: +0.121239044  nElectrons: 326.000000
	SubspaceRotationAdjust: set factor to 0.0182
ElecMinimize: Iter:  95  F: -1611.726957278187228  |grad|_K:  3.499e-07  alpha:  3.695e-01  linmin: -1.655e-07  t[s]:   4392.74
	FillingsUpdate:  mu: +0.121270096  nElectrons: 326.000000
	SubspaceRotationAdjust: set factor to 0.0183
ElecMinimize: Iter:  96  F: -1611.726961588957010  |grad|_K:  2.979e-07  alpha:  3.668e-01  linmin: -7.522e-08  t[s]:   4430.50
	FillingsUpdate:  mu: +0.121289368  nElectrons: 326.000000
	SubspaceRotationAdjust: set factor to 0.0175
ElecMinimize: Iter:  97  F: -1611.726964396578296  |grad|_K:  2.490e-07  alpha:  3.297e-01  linmin:  1.263e-06  t[s]:   4468.07
	FillingsUpdate:  mu: +0.121300674  nElectrons: 326.000000
	SubspaceRotationAdjust: set factor to 0.0203
ElecMinimize: Iter:  98  F: -1611.726966650859367  |grad|_K:  2.088e-07  alpha:  3.787e-01  linmin:  9.269e-07  t[s]:   4505.44
	FillingsUpdate:  mu: +0.121295772  nElectrons: 326.000000
	SubspaceRotationAdjust: set factor to 0.0236
ElecMinimize: Iter:  99  F: -1611.726968350988955  |grad|_K:  1.945e-07  alpha:  4.064e-01  linmin: -1.168e-06  t[s]:   4542.88
	FillingsUpdate:  mu: +0.121284102  nElectrons: 326.000000
	SubspaceRotationAdjust: set factor to 0.0238
ElecMinimize: Iter: 100  F: -1611.726969671343113  |grad|_K:  1.980e-07  alpha:  3.636e-01  linmin: -3.036e-06  t[s]:   4580.25
	FillingsUpdate:  mu: +0.121275765  nElectrons: 326.000000
	SubspaceRotationAdjust: set factor to 0.0238
ElecMinimize: Iter: 101  F: -1611.726970937755141  |grad|_K:  1.875e-07  alpha:  3.366e-01  linmin: -1.698e-06  t[s]:   4618.07
	FillingsUpdate:  mu: +0.121250485  nElectrons: 326.000000
	SubspaceRotationAdjust: set factor to 0.0266
ElecMinimize: Iter: 102  F: -1611.726972321482435  |grad|_K:  1.762e-07  alpha:  4.100e-01  linmin: -3.845e-08  t[s]:   4655.62
	FillingsUpdate:  mu: +0.121210008  nElectrons: 326.000000
	SubspaceRotationAdjust: set factor to 0.03
ElecMinimize: Iter: 103  F: -1611.726973690240584  |grad|_K:  1.751e-07  alpha:  4.590e-01  linmin: -1.431e-06  t[s]:   4692.54
	FillingsUpdate:  mu: +0.121167995  nElectrons: 326.000000
	SubspaceRotationAdjust: set factor to 0.032
ElecMinimize: Iter: 104  F: -1611.726975017908444  |grad|_K:  1.801e-07  alpha:  4.513e-01  linmin: -1.350e-06  t[s]:   4729.71
	FillingsUpdate:  mu: +0.121132822  nElectrons: 326.000000
	SubspaceRotationAdjust: set factor to 0.0286
ElecMinimize: Iter: 105  F: -1611.726976037822396  |grad|_K:  2.006e-07  alpha:  3.274e-01  linmin: -4.721e-07  t[s]:   4766.89
	FillingsUpdate:  mu: +0.121109727  nElectrons: 326.000000
	SubspaceRotationAdjust: set factor to 0.0224
ElecMinimize: Iter: 106  F: -1611.726976875175751  |grad|_K:  1.719e-07  alpha:  2.169e-01  linmin: -1.235e-06  t[s]:   4804.94
	FillingsUpdate:  mu: +0.121075752  nElectrons: 326.000000
	SubspaceRotationAdjust: set factor to 0.0246
ElecMinimize: Iter: 107  F: -1611.726977912994698  |grad|_K:  1.500e-07  alpha:  3.657e-01  linmin: -3.381e-06  t[s]:   4842.86
	FillingsUpdate:  mu: +0.121052864  nElectrons: 326.000000
	SubspaceRotationAdjust: set factor to 0.0271
ElecMinimize: Iter: 108  F: -1611.726978814278709  |grad|_K:  1.455e-07  alpha:  4.170e-01  linmin: -2.772e-06  t[s]:   4879.97
	FillingsUpdate:  mu: +0.121046465  nElectrons: 326.000000
	SubspaceRotationAdjust: set factor to 0.025
ElecMinimize: Iter: 109  F: -1611.726979452923842  |grad|_K:  1.497e-07  alpha:  3.143e-01  linmin: -2.415e-06  t[s]:   4917.72
	FillingsUpdate:  mu: +0.121041295  nElectrons: 326.000000
	SubspaceRotationAdjust: set factor to 0.0234
ElecMinimize: Iter: 110  F: -1611.726980038366491  |grad|_K:  1.309e-07  alpha:  2.718e-01  linmin:  1.535e-07  t[s]:   4954.87
	FillingsUpdate:  mu: +0.121040621  nElectrons: 326.000000
	SubspaceRotationAdjust: set factor to 0.0279
ElecMinimize: Iter: 111  F: -1611.726980702625042  |grad|_K:  1.206e-07  alpha:  4.035e-01  linmin: -7.576e-06  t[s]:   4991.69
	FillingsUpdate:  mu: +0.121045282  nElectrons: 326.000000
	SubspaceRotationAdjust: set factor to 0.0318
ElecMinimize: Iter: 112  F: -1611.726981309869416  |grad|_K:  1.251e-07  alpha:  4.343e-01  linmin: -6.178e-06  t[s]:   5028.74
ElecMinimize: Converged (|Delta F|<1.000000e-06 for 5 iters).
Setting wave functions to eigenvectors of Hamiltonian

# Ionic positions in lattice coordinates:
ion Cr   0.000000000000000   0.000000000000000   0.150000000000000 1
ion Cr   0.500000000000000   0.000000000000000   0.150000000000000 1
ion Cr   0.000000000000000   0.500000000000000   0.150000000000000 1
ion Cr   0.500000000000000   0.500000000000000   0.150000000000000 1
ion Cr   0.250000000000000   0.250000000000000   0.050000000000000 1
ion Cr   0.250000000000000   0.750000000000000   0.050000000000000 1
ion Cr  -0.250000000000000   0.250000000000000   0.050000000000000 1
ion Cr  -0.250000000000000   0.750000000000000   0.050000000000000 1
ion Cr   0.000000000000000   0.000000000000000  -0.050000000000000 0
ion Cr   0.500000000000000   0.000000000000000  -0.050000000000000 0
ion Cr   0.000000000000000   0.500000000000000  -0.050000000000000 0
ion Cr   0.500000000000000   0.500000000000000  -0.050000000000000 0
ion Cr   0.250000000000000   0.250000000000000  -0.150000000000000 0
ion Cr   0.250000000000000   0.750000000000000  -0.150000000000000 0
ion Cr  -0.250000000000000   0.250000000000000  -0.150000000000000 0
ion Cr  -0.250000000000000   0.750000000000000  -0.150000000000000 0
ion O   0.250000000000000   0.250000000000000   0.150000000000000 1
ion O   0.250000000000000   0.750000000000000   0.150000000000000 1
ion O  -0.250000000000000   0.250000000000000   0.150000000000000 1
ion O  -0.250000000000000   0.750000000000000   0.150000000000000 1
ion O   0.000000000000000   0.000000000000000   0.050000000000000 1
ion O   0.500000000000000   0.000000000000000   0.050000000000000 1
ion O   0.000000000000000   0.500000000000000   0.050000000000000 1
ion O   0.500000000000000   0.500000000000000   0.050000000000000 1
ion O   0.250000000000000   0.250000000000000  -0.050000000000000 0
ion O   0.250000000000000   0.750000000000000  -0.050000000000000 0
ion O  -0.250000000000000   0.250000000000000  -0.050000000000000 0
ion O  -0.250000000000000   0.750000000000000  -0.050000000000000 0
ion O   0.000000000000000   0.000000000000000  -0.150000000000000 0
ion O   0.500000000000000   0.000000000000000  -0.150000000000000 0
ion O   0.000000000000000   0.500000000000000  -0.150000000000000 0
ion O   0.500000000000000   0.500000000000000  -0.150000000000000 0
ion O   0.000000000000000   0.000000000000000   0.230000000000000 1

# Forces in Lattice coordinates:
force Cr  -0.000037582773184  -0.000005633415603   4.048088978839082 1
force Cr   0.000014770120329   0.000004044194003  -1.347805680418759 1
force Cr  -0.000037640680786   0.000020158784278  -1.347994659512927 1
force Cr   0.000014191432336  -0.000005022384138  -1.429365503804599 1
force Cr   0.024163906469184   0.024173646675560   0.545031935497382 1
force Cr   0.024179938054610  -0.024147302813018   0.545106692201458 1
force Cr  -0.024167661349721   0.024117113052547   0.545152395670160 1
force Cr  -0.024150541226913  -0.024135805403368   0.545081419829555 1
force Cr   0.000067886018447  -0.000048072714315  -0.459558064578536 0
force Cr  -0.000068905199558   0.000075658541765  -0.584696215777680 0
force Cr   0.000048710042053   0.000039592850584  -0.584956086858705 0
force Cr  -0.000029810782225   0.000029951747825  -0.646813820613365 0
force Cr   0.009181600580455   0.009213576547523   1.275865559031364 0
force Cr   0.009179835847266  -0.009193565252616   1.276181769860016 0
force Cr  -0.009154384505746   0.009149712338971   1.275927759653993 0
force Cr  -0.009138790739983  -0.009132159757257   1.276287482752630 0
force O   0.049775807997665   0.049812579589029  -0.791805043179554 1
force O   0.049535951596156  -0.049590634819889  -0.792998597745303 1
force O  -0.049649505640552   0.049906771455276  -0.791153863152831 1
force O  -0.049920350620845  -0.049642765631323  -0.792407750736587 1
force O   0.000201575076966  -0.000123823803784  -0.328100043540859 1
force O  -0.000004853785843   0.000063380432050   0.229355492545136 1
force O  -0.000068017320744   0.000241971854505   0.229628339903863 1
force O  -0.000299860701745   0.000007510970311   0.077046776991933 1
force O  -0.004647299102988  -0.004866596996720  -0.057379155710660 0
force O  -0.004703772813680   0.005081168421137  -0.056838386763274 0
force O   0.004882816002067  -0.005078514317187  -0.056232589880736 0
force O   0.004610750803078   0.004786271576531  -0.056644398927768 0
force O  -0.000242592994283   0.000106791561806   0.470792668683835 0
force O   0.000254232144093   0.000118244487516   0.405820236696552 0
force O  -0.000079050000671  -0.000150823177618   0.405189449662153 0
force O   0.000346780130707  -0.000237923583677   0.423181581130098 0
force O  -0.000091899789096   0.000026037100581  -3.511499969513338 1

# Energy components:
   Eewald =     4799.8176467127941578
       EH =     6228.7120339707853418
     Eloc =   -12766.7977368784686405
      Enl =     -390.2610814041511276
   Epulay =       -0.0003756781916500
      Exc =     -211.5584737104042574
       KE =      728.3711111034332362
-------------------------------------
     Etot =    -1611.7168758842026364
       TS =        0.0101054256667138
-------------------------------------
        F =    -1611.7269813098694158

IonicMinimize: Iter:   0  F: -1611.726981309869416  |grad|_K:  2.069e-02  t[s]:   5037.76

#--- Lowdin population analysis ---
# oxidation-state Cr +2.811 +2.796 +2.796 +2.753 +2.629 +2.629 +2.629 +2.629 +2.639 +2.637 +2.637 +2.633 +2.752 +2.752 +2.752 +2.752
# oxidation-state O -0.695 -0.695 -0.695 -0.695 -0.719 -0.681 -0.681 -0.680 -0.682 -0.682 -0.682 -0.682 -0.717 -0.714 -0.714 -0.712 -0.430


-------- Electronic minimization -----------
	FillingsUpdate:  mu: +0.107977904  nElectrons: 326.000000
ElecMinimize: Iter:   0  F: -1610.670908889352631  |grad|_K:  1.936e-04  alpha:  1.000e+00
	FillingsUpdate:  mu: +0.115712260  nElectrons: 326.000000
	SubspaceRotationAdjust: set factor to 0.0308
ElecMinimize: Iter:   1  F: -1611.569957183894758  |grad|_K:  5.261e-05  alpha:  2.703e-01  linmin:  9.809e-02  t[s]:   5101.54
	FillingsUpdate:  mu: +0.107259595  nElectrons: 326.000000
	SubspaceRotationAdjust: set factor to 0.0215
ElecMinimize: Iter:   2  F: -1611.621309244953409  |grad|_K:  3.346e-05  alpha:  2.089e-01  linmin: -1.241e-03  t[s]:   5138.97
	FillingsUpdate:  mu: +0.119119888  nElectrons: 326.000000
	SubspaceRotationAdjust: set factor to 0.0136
ElecMinimize: Iter:   3  F: -1611.635072616614025  |grad|_K:  1.473e-05  alpha:  1.278e-01  linmin: -1.103e-04  t[s]:   5176.19
ElecMinimize: 	Predicted alpha/alphaT>3.000000, increasing alphaT to 3.833388e-01.
	FillingsUpdate:  mu: +0.122506412  nElectrons: 326.000000
	SubspaceRotationAdjust: set factor to 0.0216
ElecMinimize: Iter:   4  F: -1611.643375654792408  |grad|_K:  9.590e-06  alpha:  3.983e-01  linmin: -5.305e-04  t[s]:   5223.25
	FillingsUpdate:  mu: +0.121181798  nElectrons: 326.000000
	SubspaceRotationAdjust: set factor to 0.0158
ElecMinimize: Iter:   5  F: -1611.647415502588274  |grad|_K:  1.068e-05  alpha:  4.555e-01  linmin: -2.479e-04  t[s]:   5260.71
	FillingsUpdate:  mu: +0.122527215  nElectrons: 326.000000
	SubspaceRotationAdjust: set factor to 0.0138
ElecMinimize: Iter:   6  F: -1611.651469026998711  |grad|_K:  1.095e-05  alpha:  3.687e-01  linmin:  3.222e-06  t[s]:   5298.35
	FillingsUpdate:  mu: +0.124170398  nElectrons: 326.000000
	SubspaceRotationAdjust: set factor to 0.0165
ElecMinimize: Iter:   7  F: -1611.660760001461995  |grad|_K:  1.430e-05  alpha:  8.059e-01  linmin: -4.840e-05  t[s]:   5335.43
	FillingsUpdate:  mu: +0.122107099  nElectrons: 326.000000
	SubspaceRotationAdjust: set factor to 0.0155
ElecMinimize: Iter:   8  F: -1611.673325977578315  |grad|_K:  1.810e-05  alpha:  6.464e-01  linmin: -1.919e-04  t[s]:   5372.75
	FillingsUpdate:  mu: +0.122766230  nElectrons: 326.000000
	SubspaceRotationAdjust: set factor to 0.0121
ElecMinimize: Iter:   9  F: -1611.687553715951708  |grad|_K:  1.882e-05  alpha:  4.230e-01  linmin: -7.508e-05  t[s]:   5409.78
	FillingsUpdate:  mu: +0.124323304  nElectrons: 326.000000
	SubspaceRotationAdjust: set factor to 0.0152
ElecMinimize: Iter:  10  F: -1611.706156508223557  |grad|_K:  1.980e-05  alpha:  5.438e-01  linmin:  1.040e-05  t[s]:   5446.85
	FillingsUpdate:  mu: +0.125541039  nElectrons: 326.000000
	SubspaceRotationAdjust: set factor to 0.0145
ElecMinimize: Iter:  11  F: -1611.721305770979143  |grad|_K:  1.608e-05  alpha:  4.101e-01  linmin: -1.452e-04  t[s]:   5483.92
	FillingsUpdate:  mu: +0.125356818  nElectrons: 326.000000
	SubspaceRotationAdjust: set factor to 0.0145
ElecMinimize: Iter:  12  F: -1611.731734984169407  |grad|_K:  1.238e-05  alpha:  4.154e-01  linmin:  1.966e-04  t[s]:   5521.14
	FillingsUpdate:  mu: +0.123984125  nElectrons: 326.000000
	SubspaceRotationAdjust: set factor to 0.0161
ElecMinimize: Iter:  13  F: -1611.737624668845001  |grad|_K:  9.413e-06  alpha:  4.056e-01  linmin: -1.214e-04  t[s]:   5558.35
	FillingsUpdate:  mu: +0.123748488  nElectrons: 326.000000
	SubspaceRotationAdjust: set factor to 0.0178
ElecMinimize: Iter:  14  F: -1611.740977975955502  |grad|_K:  6.785e-06  alpha:  3.919e-01  linmin: -3.674e-05  t[s]:   5595.78
	FillingsUpdate:  mu: +0.123656374  nElectrons: 326.000000
	SubspaceRotationAdjust: set factor to 0.017
ElecMinimize: Iter:  15  F: -1611.742820505586451  |grad|_K:  5.879e-06  alpha:  4.164e-01  linmin:  8.338e-05  t[s]:   5633.92
	FillingsUpdate:  mu: +0.124092069  nElectrons: 326.000000
	SubspaceRotationAdjust: set factor to 0.0146
ElecMinimize: Iter:  16  F: -1611.743989708871595  |grad|_K:  4.419e-06  alpha:  3.534e-01  linmin:  2.079e-05  t[s]:   5670.71
	FillingsUpdate:  mu: +0.124033678  nElectrons: 326.000000
	SubspaceRotationAdjust: set factor to 0.0146
ElecMinimize: Iter:  17  F: -1611.744746378175250  |grad|_K:  3.479e-06  alpha:  4.039e-01  linmin:  3.762e-05  t[s]:   5707.84
	FillingsUpdate:  mu: +0.123883895  nElectrons: 326.000000
	SubspaceRotationAdjust: set factor to 0.0159
ElecMinimize: Iter:  18  F: -1611.745240825912788  |grad|_K:  2.659e-06  alpha:  4.260e-01  linmin:  1.240e-05  t[s]:   5744.99
	FillingsUpdate:  mu: +0.123816176  nElectrons: 326.000000
	SubspaceRotationAdjust: set factor to 0.0154
ElecMinimize: Iter:  19  F: -1611.745515542222620  |grad|_K:  2.100e-06  alpha:  4.049e-01  linmin: -9.137e-06  t[s]:   5783.17
	FillingsUpdate:  mu: +0.123984011  nElectrons: 326.000000
	SubspaceRotationAdjust: set factor to 0.0138
ElecMinimize: Iter:  20  F: -1611.745684022394471  |grad|_K:  1.725e-06  alpha:  3.981e-01  linmin: -3.816e-06  t[s]:   5819.94
	FillingsUpdate:  mu: +0.124098035  nElectrons: 326.000000
	SubspaceRotationAdjust: set factor to 0.0149
ElecMinimize: Iter:  21  F: -1611.745797333199107  |grad|_K:  1.289e-06  alpha:  3.964e-01  linmin: -1.871e-05  t[s]:   5857.49
	FillingsUpdate:  mu: +0.124132720  nElectrons: 326.000000
	SubspaceRotationAdjust: set factor to 0.0172
ElecMinimize: Iter:  22  F: -1611.745876919099601  |grad|_K:  1.165e-06  alpha:  4.987e-01  linmin: -1.690e-05  t[s]:   5896.29
	FillingsUpdate:  mu: +0.124245039  nElectrons: 326.000000
	SubspaceRotationAdjust: set factor to 0.0175
ElecMinimize: Iter:  23  F: -1611.745932833439610  |grad|_K:  1.095e-06  alpha:  4.287e-01  linmin: -3.758e-06  t[s]:   5934.09
	FillingsUpdate:  mu: +0.124404117  nElectrons: 326.000000
	SubspaceRotationAdjust: set factor to 0.0178
ElecMinimize: Iter:  24  F: -1611.745986249819225  |grad|_K:  1.061e-06  alpha:  4.642e-01  linmin: -6.172e-06  t[s]:   5971.83
	FillingsUpdate:  mu: +0.124635573  nElectrons: 326.000000
	SubspaceRotationAdjust: set factor to 0.0189
ElecMinimize: Iter:  25  F: -1611.746041703336232  |grad|_K:  1.089e-06  alpha:  5.126e-01  linmin: -5.827e-06  t[s]:   6008.98
	FillingsUpdate:  mu: +0.124881816  nElectrons: 326.000000
	SubspaceRotationAdjust: set factor to 0.0205
ElecMinimize: Iter:  26  F: -1611.746104923658095  |grad|_K:  1.109e-06  alpha:  5.549e-01  linmin: -7.117e-06  t[s]:   6046.20
	FillingsUpdate:  mu: +0.125080820  nElectrons: 326.000000
	SubspaceRotationAdjust: set factor to 0.0215
ElecMinimize: Iter:  27  F: -1611.746167944835406  |grad|_K:  1.121e-06  alpha:  5.340e-01  linmin: -5.517e-06  t[s]:   6084.17
	FillingsUpdate:  mu: +0.125210771  nElectrons: 326.000000
	SubspaceRotationAdjust: set factor to 0.02
ElecMinimize: Iter:  28  F: -1611.746224787304754  |grad|_K:  1.141e-06  alpha:  4.710e-01  linmin: -5.217e-06  t[s]:   6121.06
	FillingsUpdate:  mu: +0.125288533  nElectrons: 326.000000
	SubspaceRotationAdjust: set factor to 0.0156
ElecMinimize: Iter:  29  F: -1611.746265589396216  |grad|_K:  1.015e-06  alpha:  3.266e-01  linmin: -5.415e-07  t[s]:   6158.61
	FillingsUpdate:  mu: +0.125397721  nElectrons: 326.000000
	SubspaceRotationAdjust: set factor to 0.015
ElecMinimize: Iter:  30  F: -1611.746304404435932  |grad|_K:  8.372e-07  alpha:  3.923e-01  linmin:  9.666e-07  t[s]:   6195.96
	FillingsUpdate:  mu: +0.125412779  nElectrons: 326.000000
	SubspaceRotationAdjust: set factor to 0.0171
ElecMinimize: Iter:  31  F: -1611.746333731753111  |grad|_K:  7.019e-07  alpha:  4.359e-01  linmin:  2.345e-06  t[s]:   6233.26
	FillingsUpdate:  mu: +0.125362501  nElectrons: 326.000000
	SubspaceRotationAdjust: set factor to 0.0166
ElecMinimize: Iter:  32  F: -1611.746354040480355  |grad|_K:  6.451e-07  alpha:  4.295e-01  linmin:  4.400e-07  t[s]:   6270.25
	FillingsUpdate:  mu: +0.125333746  nElectrons: 326.000000
	SubspaceRotationAdjust: set factor to 0.0158
ElecMinimize: Iter:  33  F: -1611.746369448118003  |grad|_K:  5.573e-07  alpha:  3.857e-01  linmin:  5.602e-06  t[s]:   6308.01
	FillingsUpdate:  mu: +0.125271830  nElectrons: 326.000000
	SubspaceRotationAdjust: set factor to 0.018
ElecMinimize: Iter:  34  F: -1611.746383446468144  |grad|_K:  5.151e-07  alpha:  4.696e-01  linmin:  1.230e-06  t[s]:   6345.76
	FillingsUpdate:  mu: +0.125190849  nElectrons: 326.000000
	SubspaceRotationAdjust: set factor to 0.0202
ElecMinimize: Iter:  35  F: -1611.746395833835777  |grad|_K:  5.103e-07  alpha:  4.864e-01  linmin:  5.916e-07  t[s]:   6382.98
	FillingsUpdate:  mu: +0.125096276  nElectrons: 326.000000
	SubspaceRotationAdjust: set factor to 0.0192
ElecMinimize: Iter:  36  F: -1611.746407672847454  |grad|_K:  5.536e-07  alpha:  4.736e-01  linmin:  2.094e-06  t[s]:   6420.23
	FillingsUpdate:  mu: +0.124975026  nElectrons: 326.000000
	SubspaceRotationAdjust: set factor to 0.0167
ElecMinimize: Iter:  37  F: -1611.746418545379811  |grad|_K:  5.249e-07  alpha:  3.697e-01  linmin: -1.456e-06  t[s]:   6457.71
	FillingsUpdate:  mu: +0.124838233  nElectrons: 326.000000
	SubspaceRotationAdjust: set factor to 0.0173
ElecMinimize: Iter:  38  F: -1611.746431319505746  |grad|_K:  4.877e-07  alpha:  4.829e-01  linmin:  4.311e-07  t[s]:   6494.73
	FillingsUpdate:  mu: +0.124710029  nElectrons: 326.000000
	SubspaceRotationAdjust: set factor to 0.0185
ElecMinimize: Iter:  39  F: -1611.746442264691723  |grad|_K:  4.487e-07  alpha:  4.794e-01  linmin: -1.109e-06  t[s]:   6532.13
	FillingsUpdate:  mu: +0.124605828  nElectrons: 326.000000
	SubspaceRotationAdjust: set factor to 0.017
ElecMinimize: Iter:  40  F: -1611.746450354689614  |grad|_K:  4.124e-07  alpha:  4.186e-01  linmin: -2.128e-06  t[s]:   6569.49
	FillingsUpdate:  mu: +0.124547546  nElectrons: 326.000000
	SubspaceRotationAdjust: set factor to 0.0142
ElecMinimize: Iter:  41  F: -1611.746456330672345  |grad|_K:  3.435e-07  alpha:  3.660e-01  linmin:  2.296e-07  t[s]:   6607.11
	FillingsUpdate:  mu: +0.124490986  nElectrons: 326.000000
	SubspaceRotationAdjust: set factor to 0.0148
ElecMinimize: Iter:  42  F: -1611.746460861797232  |grad|_K:  2.776e-07  alpha:  4.001e-01  linmin: -1.679e-06  t[s]:   6644.45
	FillingsUpdate:  mu: +0.124449741  nElectrons: 326.000000
	SubspaceRotationAdjust: set factor to 0.016
ElecMinimize: Iter:  43  F: -1611.746463996855937  |grad|_K:  2.299e-07  alpha:  4.239e-01  linmin: -4.506e-07  t[s]:   6681.76
	FillingsUpdate:  mu: +0.124431368  nElectrons: 326.000000
	SubspaceRotationAdjust: set factor to 0.0151
ElecMinimize: Iter:  44  F: -1611.746466090070044  |grad|_K:  1.998e-07  alpha:  4.126e-01  linmin: -2.457e-06  t[s]:   6718.62
	FillingsUpdate:  mu: +0.124417946  nElectrons: 326.000000
	SubspaceRotationAdjust: set factor to 0.0155
ElecMinimize: Iter:  45  F: -1611.746467617080498  |grad|_K:  1.658e-07  alpha:  3.983e-01  linmin: -2.555e-06  t[s]:   6755.99
	FillingsUpdate:  mu: +0.124413996  nElectrons: 326.000000
	SubspaceRotationAdjust: set factor to 0.0183
ElecMinimize: Iter:  46  F: -1611.746468827223680  |grad|_K:  1.484e-07  alpha:  4.584e-01  linmin: -8.924e-07  t[s]:   6793.38
	FillingsUpdate:  mu: +0.124417541  nElectrons: 326.000000
	SubspaceRotationAdjust: set factor to 0.0198
ElecMinimize: Iter:  47  F: -1611.746469820431457  |grad|_K:  1.491e-07  alpha:  4.695e-01  linmin: -1.275e-06  t[s]:   6830.91
	FillingsUpdate:  mu: +0.124420439  nElectrons: 326.000000
	SubspaceRotationAdjust: set factor to 0.019
ElecMinimize: Iter:  48  F: -1611.746470760505872  |grad|_K:  1.590e-07  alpha:  4.404e-01  linmin: -2.034e-06  t[s]:   6868.25
	FillingsUpdate:  mu: +0.124432188  nElectrons: 326.000000
	SubspaceRotationAdjust: set factor to 0.0188
ElecMinimize: Iter:  49  F: -1611.746471839410106  |grad|_K:  1.595e-07  alpha:  4.444e-01  linmin:  1.366e-06  t[s]:   6905.88
	FillingsUpdate:  mu: +0.124444392  nElectrons: 326.000000
	SubspaceRotationAdjust: set factor to 0.0201
ElecMinimize: Iter:  50  F: -1611.746473161483891  |grad|_K:  1.677e-07  alpha:  5.413e-01  linmin: -4.670e-07  t[s]:   6943.75
	FillingsUpdate:  mu: +0.124464497  nElectrons: 326.000000
	SubspaceRotationAdjust: set factor to 0.0213
ElecMinimize: Iter:  51  F: -1611.746474656560395  |grad|_K:  1.759e-07  alpha:  5.537e-01  linmin:  2.088e-07  t[s]:   6981.33
	FillingsUpdate:  mu: +0.124487242  nElectrons: 326.000000
	SubspaceRotationAdjust: set factor to 0.02
ElecMinimize: Iter:  52  F: -1611.746476030395343  |grad|_K:  1.769e-07  alpha:  4.623e-01  linmin:  4.910e-07  t[s]:   7019.22
	FillingsUpdate:  mu: +0.124497800  nElectrons: 326.000000
	SubspaceRotationAdjust: set factor to 0.0157
ElecMinimize: Iter:  53  F: -1611.746477072026209  |grad|_K:  1.632e-07  alpha:  3.466e-01  linmin:  5.688e-07  t[s]:   7056.98
	FillingsUpdate:  mu: +0.124513637  nElectrons: 326.000000
	SubspaceRotationAdjust: set factor to 0.0144
ElecMinimize: Iter:  54  F: -1611.746477996923204  |grad|_K:  1.288e-07  alpha:  3.616e-01  linmin: -4.378e-07  t[s]:   7095.29
	FillingsUpdate:  mu: +0.124524485  nElectrons: 326.000000
	SubspaceRotationAdjust: set factor to 0.0157
ElecMinimize: Iter:  55  F: -1611.746478678808671  |grad|_K:  1.041e-07  alpha:  4.280e-01  linmin: -7.055e-08  t[s]:   7132.63
	FillingsUpdate:  mu: +0.124529162  nElectrons: 326.000000
	SubspaceRotationAdjust: set factor to 0.0144
ElecMinimize: Iter:  56  F: -1611.746479067775454  |grad|_K:  8.407e-08  alpha:  3.741e-01  linmin:  1.755e-06  t[s]:   7170.17
	FillingsUpdate:  mu: +0.124533449  nElectrons: 326.000000
	SubspaceRotationAdjust: set factor to 0.0142
ElecMinimize: Iter:  57  F: -1611.746479320969456  |grad|_K:  6.427e-08  alpha:  3.733e-01  linmin: -2.848e-06  t[s]:   7207.72
	FillingsUpdate:  mu: +0.124533843  nElectrons: 326.000000
	SubspaceRotationAdjust: set factor to 0.0163
ElecMinimize: Iter:  58  F: -1611.746479484944757  |grad|_K:  5.282e-08  alpha:  4.146e-01  linmin:  4.738e-05  t[s]:   7244.98
ElecMinimize: Converged (|Delta F|<1.000000e-06 for 5 iters).
Setting wave functions to eigenvectors of Hamiltonian

# Ionic positions in lattice coordinates:
ion Cr  -0.000000265684878  -0.000000039824452   0.152289380870595 1
ion Cr   0.500000104414796   0.000000028589726   0.149237753775137 1
ion Cr  -0.000000266094245   0.500000142509019   0.149237646898750 1
ion Cr   0.500000100323862   0.499999964495129   0.149191627936390 1
ion Cr   0.250170822533542   0.250170891390236   0.050308240676901 1
ion Cr   0.250170935866046   0.749829294843117   0.050308282955262 1
ion Cr  -0.250170849078017   0.250170491735622   0.050308308802680 1
ion Cr  -0.250170728050286   0.749829376122055   0.050308268662571 1
ion Cr   0.000000000000000   0.000000000000000  -0.050000000000000 0
ion Cr   0.500000000000000   0.000000000000000  -0.050000000000000 0
ion Cr   0.000000000000000   0.500000000000000  -0.050000000000000 0
ion Cr   0.500000000000000   0.500000000000000  -0.050000000000000 0
ion Cr   0.250000000000000   0.250000000000000  -0.150000000000000 0
ion Cr   0.250000000000000   0.750000000000000  -0.150000000000000 0
ion Cr  -0.250000000000000   0.250000000000000  -0.150000000000000 0
ion Cr  -0.250000000000000   0.750000000000000  -0.150000000000000 0
ion O   0.250351881416281   0.250352141366649   0.149552197758357 1
ion O   0.250350185793172   0.749649427633289   0.149551522748246 1
ion O  -0.250350988543737   0.250352807239663   0.149552566030671 1
ion O  -0.250352903235212   0.749649059103586   0.149551856899458 1
ion O   0.000001424999943  -0.000000875350842   0.049814444305140 1
ion O   0.499999965687005   0.000000448056940   0.050129711100705 1
ion O  -0.000000480836618   0.500001710577935   0.050129865408461 1
ion O   0.499997880186929   0.500000053097498   0.050043573503030 1
ion O   0.250000000000000   0.250000000000000  -0.050000000000000 0
ion O   0.250000000000000   0.750000000000000  -0.050000000000000 0
ion O  -0.250000000000000   0.250000000000000  -0.050000000000000 0
ion O  -0.250000000000000   0.750000000000000  -0.050000000000000 0
ion O   0.000000000000000   0.000000000000000  -0.150000000000000 0
ion O   0.500000000000000   0.000000000000000  -0.150000000000000 0
ion O   0.000000000000000   0.500000000000000  -0.150000000000000 0
ion O   0.500000000000000   0.500000000000000  -0.150000000000000 0
ion O  -0.000000649669573   0.000000184064753   0.228014084942469 1

# Forces in Lattice coordinates:
force Cr   0.000000042913568   0.000000135504300   2.750718546470559 1
force Cr   0.000010811720185  -0.000001999175163  -1.440519102055137 1
force Cr  -0.000005230775541  -0.000008460226062  -1.440536940467699 1
force Cr   0.000017873754294  -0.000002136589109  -1.460534632097639 1
force Cr   0.021052501789603   0.021034629273317   0.554432238682403 1
force Cr   0.021057337679141  -0.021041436735608   0.554456448466065 1
force Cr  -0.021050966762658   0.021043667725033   0.554452673619453 1
force Cr  -0.021052196518448  -0.021053650057400   0.554431647969903 1
force Cr   0.000003039217597   0.000001113917842  -0.401531362255871 0
force Cr   0.000000568432334  -0.000000306567731  -0.607796190068284 0
force Cr   0.000001348316610  -0.000004312306016  -0.607846816704555 0
force Cr   0.000004461178782   0.000001290512569  -0.676629579145174 0
force Cr   0.008028997049807   0.008037610303657   1.280380918105556 0
force Cr   0.008031050186159  -0.008035962046290   1.280402182455476 0
force Cr  -0.008025753780357   0.008036950893547   1.280394013549889 0
force Cr  -0.008025118637116  -0.008031299814646   1.280390370521884 0
force O   0.041182411634200   0.041156215114150  -0.666088563714979 1
force O   0.041167280754419  -0.041156844277921  -0.665994831626854 1
force O  -0.041186230983765   0.041178833206235  -0.665875378029208 1
force O  -0.041184289398778  -0.041168047709003  -0.665968956758938 1
force O   0.000007033121949   0.000010791097071  -0.246809413325290 1
force O  -0.000009286118698   0.000010885058267   0.202096068043655 1
force O  -0.000003797950274   0.000025843807561   0.202090473361719 1
force O  -0.000046121551374  -0.000000646325933   0.069069193265141 1
force O  -0.003300808675394  -0.003309722367057  -0.052214058651102 0
force O  -0.003324333720820   0.003317427700776  -0.052299261491163 0
force O   0.003283646886004  -0.003306855153037  -0.052130851511883 0
force O   0.003244800552045   0.003283087169437  -0.052244918920801 0
force O  -0.000025715674145   0.000037525668311   0.473926104305768 0
force O   0.000082245156251   0.000030427488059   0.414715765664692 0
force O  -0.000038268727202  -0.000019785850178   0.414591866438640 0
force O   0.000067461337765  -0.000028293625633   0.430642991937310 0
force O  -0.000010474864924  -0.000011569735417  -2.485205980311143 1

# Energy components:
   Eewald =     4805.9278885863541291
       EH =     6235.6729525442287922
     Eloc =   -12779.9503935392094718
      Enl =     -390.2775259943400101
   Epulay =       -0.0003756781916500
      Exc =     -211.6011444502306063
       KE =      728.4922364208792942
-------------------------------------
     Etot =    -1611.7363621105096172
       TS =        0.0101173744350762
-------------------------------------
        F =    -1611.7464794849447571

IonicMinimize: Iter:   1  F: -1611.746479484944757  |grad|_K:  1.611e-02  alpha:  1.000e+00  linmin: -8.406e-01  t[s]:   7253.91

#--- Lowdin population analysis ---
# oxidation-state Cr +2.825 +2.796 +2.796 +2.755 +2.630 +2.630 +2.630 +2.630 +2.642 +2.635 +2.635 +2.632 +2.737 +2.737 +2.737 +2.737
# oxidation-state O -0.697 -0.697 -0.697 -0.697 -0.724 -0.678 -0.678 -0.677 -0.682 -0.682 -0.682 -0.682 -0.718 -0.715 -0.715 -0.713 -0.393


-------- Electronic minimization -----------
	FillingsUpdate:  mu: +0.083630352  nElectrons: 326.000000
ElecMinimize: Iter:   0  F: -1608.946266730284833  |grad|_K:  3.132e-04  alpha:  1.000e+00
	FillingsUpdate:  mu: +0.111894990  nElectrons: 326.000000
	SubspaceRotationAdjust: set factor to 0.0162
ElecMinimize: Iter:   1  F: -1611.311312466389836  |grad|_K:  7.509e-05  alpha:  2.719e-01  linmin:  1.502e-01  t[s]:   7316.72
	FillingsUpdate:  mu: +0.116405631  nElectrons: 326.000000
	SubspaceRotationAdjust: set factor to 0.0179
ElecMinimize: Iter:   2  F: -1611.444190474933521  |grad|_K:  2.610e-05  alpha:  2.656e-01  linmin: -5.942e-03  t[s]:   7353.72
	FillingsUpdate:  mu: +0.115253286  nElectrons: 326.000000
	SubspaceRotationAdjust: set factor to 0.0221
ElecMinimize: Iter:   3  F: -1611.469375884127885  |grad|_K:  1.590e-05  alpha:  3.828e-01  linmin: -9.749e-04  t[s]:   7391.04
	FillingsUpdate:  mu: +0.120805587  nElectrons: 326.000000
	SubspaceRotationAdjust: set factor to 0.0179
ElecMinimize: Iter:   4  F: -1611.481928764890199  |grad|_K:  1.763e-05  alpha:  5.157e-01  linmin:  3.388e-05  t[s]:   7428.66
	FillingsUpdate:  mu: +0.120906200  nElectrons: 326.000000
	SubspaceRotationAdjust: set factor to 0.0159
ElecMinimize: Iter:   5  F: -1611.493850718735530  |grad|_K:  1.989e-05  alpha:  4.016e-01  linmin: -2.524e-04  t[s]:   7466.26
	FillingsUpdate:  mu: +0.129635530  nElectrons: 326.000000
	SubspaceRotationAdjust: set factor to 0.0153
ElecMinimize: Iter:   6  F: -1611.518658598570937  |grad|_K:  2.436e-05  alpha:  6.619e-01  linmin:  8.846e-04  t[s]:   7503.60
	FillingsUpdate:  mu: +0.126949562  nElectrons: 326.000000
	SubspaceRotationAdjust: set factor to 0.0176
ElecMinimize: Iter:   7  F: -1611.555971775881062  |grad|_K:  3.105e-05  alpha:  6.914e-01  linmin:  5.294e-04  t[s]:   7540.94
	FillingsUpdate:  mu: +0.137008416  nElectrons: 326.000000
	SubspaceRotationAdjust: set factor to 0.0185
ElecMinimize: Iter:   8  F: -1611.602630156752184  |grad|_K:  3.101e-05  alpha:  5.411e-01  linmin: -4.473e-04  t[s]:   7578.78
	FillingsUpdate:  mu: +0.136530658  nElectrons: 326.000000
	SubspaceRotationAdjust: set factor to 0.0198
ElecMinimize: Iter:   9  F: -1611.650691896882108  |grad|_K:  3.431e-05  alpha:  4.932e-01  linmin:  8.232e-04  t[s]:   7616.06
	FillingsUpdate:  mu: +0.137065538  nElectrons: 326.000000
	SubspaceRotationAdjust: set factor to 0.0269
ElecMinimize: Iter:  10  F: -1611.690012627622536  |grad|_K:  3.056e-05  alpha:  3.848e-01  linmin: -2.907e-04  t[s]:   7653.46
	FillingsUpdate:  mu: +0.129042948  nElectrons: 326.000000
	SubspaceRotationAdjust: set factor to 0.0251
ElecMinimize: Iter:  11  F: -1611.721041552010774  |grad|_K:  2.325e-05  alpha:  3.423e-01  linmin: -7.193e-04  t[s]:   7690.78
	FillingsUpdate:  mu: +0.127566765  nElectrons: 326.000000
	SubspaceRotationAdjust: set factor to 0.0198
ElecMinimize: Iter:  12  F: -1611.736253080593087  |grad|_K:  2.175e-05  alpha:  2.772e-01  linmin:  2.312e-04  t[s]:   7728.19
	FillingsUpdate:  mu: +0.129367296  nElectrons: 326.000000
	SubspaceRotationAdjust: set factor to 0.017
ElecMinimize: Iter:  13  F: -1611.748562569535579  |grad|_K:  1.528e-05  alpha:  2.748e-01  linmin: -3.994e-04  t[s]:   7765.65
	FillingsUpdate:  mu: +0.132016814  nElectrons: 326.000000
	SubspaceRotationAdjust: set factor to 0.0184
ElecMinimize: Iter:  14  F: -1611.756315473352288  |grad|_K:  1.036e-05  alpha:  3.390e-01  linmin: -2.456e-05  t[s]:   7802.78
	FillingsUpdate:  mu: +0.132655705  nElectrons: 326.000000
	SubspaceRotationAdjust: set factor to 0.0158
ElecMinimize: Iter:  15  F: -1611.759978745695207  |grad|_K:  9.066e-06  alpha:  3.550e-01  linmin:  1.425e-04  t[s]:   7840.03
	FillingsUpdate:  mu: +0.133181871  nElectrons: 326.000000
	SubspaceRotationAdjust: set factor to 0.0138
ElecMinimize: Iter:  16  F: -1611.762292584252691  |grad|_K:  6.016e-06  alpha:  2.946e-01  linmin: -6.038e-05  t[s]:   7877.74
	FillingsUpdate:  mu: +0.132413662  nElectrons: 326.000000
	SubspaceRotationAdjust: set factor to 0.0155
ElecMinimize: Iter:  17  F: -1611.763541170235385  |grad|_K:  4.411e-06  alpha:  3.589e-01  linmin: -2.011e-05  t[s]:   7915.65
	FillingsUpdate:  mu: +0.132273381  nElectrons: 326.000000
	SubspaceRotationAdjust: set factor to 0.0142
ElecMinimize: Iter:  18  F: -1611.764225134049866  |grad|_K:  3.565e-06  alpha:  3.660e-01  linmin:  4.892e-05  t[s]:   7953.02
	FillingsUpdate:  mu: +0.132341976  nElectrons: 326.000000
	SubspaceRotationAdjust: set factor to 0.0142
ElecMinimize: Iter:  19  F: -1611.764647134619963  |grad|_K:  2.538e-06  alpha:  3.461e-01  linmin: -1.460e-05  t[s]:   7990.44
	FillingsUpdate:  mu: +0.132125745  nElectrons: 326.000000
	SubspaceRotationAdjust: set factor to 0.0165
ElecMinimize: Iter:  20  F: -1611.764893401554218  |grad|_K:  2.152e-06  alpha:  3.982e-01  linmin: -9.291e-06  t[s]:   8027.80
	FillingsUpdate:  mu: +0.132039944  nElectrons: 326.000000
	SubspaceRotationAdjust: set factor to 0.017
ElecMinimize: Iter:  21  F: -1611.765069365939553  |grad|_K:  1.828e-06  alpha:  3.956e-01  linmin: -9.529e-06  t[s]:   8065.30
	FillingsUpdate:  mu: +0.131921987  nElectrons: 326.000000
	SubspaceRotationAdjust: set factor to 0.0178
ElecMinimize: Iter:  22  F: -1611.765200863188966  |grad|_K:  1.739e-06  alpha:  4.100e-01  linmin: -1.393e-05  t[s]:   8102.20
	FillingsUpdate:  mu: +0.131745650  nElectrons: 326.000000
	SubspaceRotationAdjust: set factor to 0.0211
ElecMinimize: Iter:  23  F: -1611.765336178547614  |grad|_K:  1.642e-06  alpha:  4.661e-01  linmin: -1.281e-05  t[s]:   8139.05
	FillingsUpdate:  mu: +0.131263783  nElectrons: 326.000000
	SubspaceRotationAdjust: set factor to 0.0228
ElecMinimize: Iter:  24  F: -1611.765474906025929  |grad|_K:  1.866e-06  alpha:  5.354e-01  linmin: -1.080e-05  t[s]:   8176.78
	FillingsUpdate:  mu: +0.130730794  nElectrons: 326.000000
	SubspaceRotationAdjust: set factor to 0.0202
ElecMinimize: Iter:  25  F: -1611.765597750260213  |grad|_K:  1.966e-06  alpha:  3.672e-01  linmin: -8.436e-06  t[s]:   8214.31
	FillingsUpdate:  mu: +0.130430917  nElectrons: 326.000000
	SubspaceRotationAdjust: set factor to 0.0186
ElecMinimize: Iter:  26  F: -1611.765741348817755  |grad|_K:  1.896e-06  alpha:  3.869e-01  linmin: -2.243e-05  t[s]:   8252.27
	FillingsUpdate:  mu: +0.129856185  nElectrons: 326.000000
	SubspaceRotationAdjust: set factor to 0.02
ElecMinimize: Iter:  27  F: -1611.765910065553498  |grad|_K:  1.804e-06  alpha:  4.881e-01  linmin: -8.087e-06  t[s]:   8289.75
	FillingsUpdate:  mu: +0.129241242  nElectrons: 326.000000
	SubspaceRotationAdjust: set factor to 0.0203
ElecMinimize: Iter:  28  F: -1611.766050745945449  |grad|_K:  1.703e-06  alpha:  4.499e-01  linmin: -4.075e-06  t[s]:   8328.01
	FillingsUpdate:  mu: +0.128929470  nElectrons: 326.000000
	SubspaceRotationAdjust: set factor to 0.0177
ElecMinimize: Iter:  29  F: -1611.766154914179197  |grad|_K:  1.584e-06  alpha:  3.743e-01  linmin: -8.092e-06  t[s]:   8366.19
	FillingsUpdate:  mu: +0.128723133  nElectrons: 326.000000
	SubspaceRotationAdjust: set factor to 0.016
ElecMinimize: Iter:  30  F: -1611.766235214354765  |grad|_K:  1.275e-06  alpha:  3.333e-01  linmin:  3.976e-06  t[s]:   8403.66
	FillingsUpdate:  mu: +0.128524684  nElectrons: 326.000000
	SubspaceRotationAdjust: set factor to 0.0182
ElecMinimize: Iter:  31  F: -1611.766300770975704  |grad|_K:  1.060e-06  alpha:  4.202e-01  linmin:  1.241e-06  t[s]:   8441.34
	FillingsUpdate:  mu: +0.128352531  nElectrons: 326.000000
	SubspaceRotationAdjust: set factor to 0.0191
ElecMinimize: Iter:  32  F: -1611.766346276646573  |grad|_K:  9.696e-07  alpha:  4.218e-01  linmin:  5.621e-07  t[s]:   8478.59
	FillingsUpdate:  mu: +0.128230370  nElectrons: 326.000000
	SubspaceRotationAdjust: set factor to 0.0185
ElecMinimize: Iter:  33  F: -1611.766380316993036  |grad|_K:  9.026e-07  alpha:  3.772e-01  linmin: -1.296e-06  t[s]:   8516.13
	FillingsUpdate:  mu: +0.128261460  nElectrons: 326.000000
	SubspaceRotationAdjust: set factor to 0.0203
ElecMinimize: Iter:  34  F: -1611.766411232855717  |grad|_K:  7.978e-07  alpha:  3.952e-01  linmin: -2.427e-06  t[s]:   8553.62
	FillingsUpdate:  mu: +0.128281610  nElectrons: 326.000000
	SubspaceRotationAdjust: set factor to 0.0238
ElecMinimize: Iter:  35  F: -1611.766443619842221  |grad|_K:  8.099e-07  alpha:  5.299e-01  linmin: -2.061e-06  t[s]:   8591.41
	FillingsUpdate:  mu: +0.128257098  nElectrons: 326.000000
	SubspaceRotationAdjust: set factor to 0.025
ElecMinimize: Iter:  36  F: -1611.766471527301746  |grad|_K:  8.686e-07  alpha:  4.432e-01  linmin: -3.584e-06  t[s]:   8628.57
	FillingsUpdate:  mu: +0.128337032  nElectrons: 326.000000
	SubspaceRotationAdjust: set factor to 0.0217
ElecMinimize: Iter:  37  F: -1611.766497605548466  |grad|_K:  9.516e-07  alpha:  3.601e-01  linmin: -4.701e-06  t[s]:   8665.70
	FillingsUpdate:  mu: +0.128465106  nElectrons: 326.000000
	SubspaceRotationAdjust: set factor to 0.0196
ElecMinimize: Iter:  38  F: -1611.766527051900312  |grad|_K:  8.325e-07  alpha:  3.386e-01  linmin:  1.384e-06  t[s]:   8703.20
	FillingsUpdate:  mu: +0.128658876  nElectrons: 326.000000
	SubspaceRotationAdjust: set factor to 0.0208
[...]

#--- Lowdin population analysis ---
# oxidation-state Cr +2.900 +2.191 +2.221 +2.272 +2.413 +2.102 +2.344 +2.236 +2.627 +2.758 +2.720 +2.755 +2.760 +2.746 +2.755 +2.745
# oxidation-state O -0.498 -0.575 -0.560 -0.615 -0.502 -0.625 -0.595 -0.584 -0.646 -0.666 -0.666 -0.680 -0.741 -0.731 -0.732 -0.743 -0.333


-------- Electronic minimization -----------
	FillingsUpdate:  mu: +0.113747167  nElectrons: 326.000000
ElecMinimize: Iter:   0  F: -1608.283463752452690  |grad|_K:  3.699e-04  alpha:  1.000e+00
	FillingsUpdate:  mu: +0.117492000  nElectrons: 326.000000
	SubspaceRotationAdjust: set factor to 0.068
ElecMinimize: Iter:   1  F: -1611.545986676556822  |grad|_K:  9.732e-05  alpha:  2.669e-01  linmin:  5.529e-02  t[s]: 171157.68
	FillingsUpdate:  mu: +0.097406973  nElectrons: 326.000000
	SubspaceRotationAdjust: set factor to 0.0584
ElecMinimize: Iter:   2  F: -1611.761130617204117  |grad|_K:  4.835e-05  alpha:  2.538e-01  linmin: -8.930e-04  t[s]: 171194.72
	FillingsUpdate:  mu: +0.103206032  nElectrons: 326.000000
	SubspaceRotationAdjust: set factor to 0.0415
ElecMinimize: Iter:   3  F: -1611.797208225185841  |grad|_K:  3.788e-05  alpha:  1.612e-01  linmin:  1.079e-05  t[s]: 171231.77
	FillingsUpdate:  mu: +0.121539906  nElectrons: 326.000000
	SubspaceRotationAdjust: set factor to 0.0574
ElecMinimize: Iter:   4  F: -1611.842929867170596  |grad|_K:  2.594e-05  alpha:  3.317e-01  linmin: -1.947e-04  t[s]: 171268.73
	FillingsUpdate:  mu: +0.100555964  nElectrons: 326.000000
	SubspaceRotationAdjust: set factor to 0.0495
ElecMinimize: Iter:   5  F: -1611.881852442561240  |grad|_K:  3.230e-05  alpha:  5.967e-01  linmin: -3.989e-04  t[s]: 171305.77
	FillingsUpdate:  mu: +0.104570595  nElectrons: 326.000000
	SubspaceRotationAdjust: set factor to 0.0402
ElecMinimize: Iter:   6  F: -1611.910942150723940  |grad|_K:  3.669e-05  alpha:  2.814e-01  linmin: -1.814e-04  t[s]: 171343.30
	FillingsUpdate:  mu: +0.128180530  nElectrons: 326.000000
	SubspaceRotationAdjust: set factor to 0.0475
ElecMinimize: Iter:   7  F: -1611.968102935912384  |grad|_K:  3.698e-05  alpha:  4.396e-01  linmin:  1.407e-04  t[s]: 171380.34
	FillingsUpdate:  mu: +0.117774348  nElectrons: 326.000000
	SubspaceRotationAdjust: set factor to 0.0465
ElecMinimize: Iter:   8  F: -1612.027297063817059  |grad|_K:  4.156e-05  alpha:  4.551e-01  linmin: -4.956e-04  t[s]: 171417.74
	FillingsUpdate:  mu: +0.114273658  nElectrons: 326.000000
	SubspaceRotationAdjust: set factor to 0.0332
ElecMinimize: Iter:   9  F: -1612.070649366316502  |grad|_K:  3.300e-05  alpha:  2.417e-01  linmin: -2.165e-04  t[s]: 171454.78
	FillingsUpdate:  mu: +0.109841575  nElectrons: 326.000000
	SubspaceRotationAdjust: set factor to 0.0386
ElecMinimize: Iter:  10  F: -1612.111597919371661  |grad|_K:  2.435e-05  alpha:  3.819e-01  linmin: -2.372e-04  t[s]: 171491.99
	FillingsUpdate:  mu: +0.112741603  nElectrons: 326.000000
	SubspaceRotationAdjust: set factor to 0.0333
ElecMinimize: Iter:  11  F: -1612.132755024540302  |grad|_K:  1.891e-05  alpha:  3.655e-01  linmin: -1.046e-04  t[s]: 171529.12
	FillingsUpdate:  mu: +0.120119538  nElectrons: 326.000000
	SubspaceRotationAdjust: set factor to 0.0241
ElecMinimize: Iter:  12  F: -1612.142076315206168  |grad|_K:  1.295e-05  alpha:  2.693e-01  linmin:  2.867e-05  t[s]: 171566.44
	FillingsUpdate:  mu: +0.116108966  nElectrons: 326.000000
	SubspaceRotationAdjust: set factor to 0.0294
ElecMinimize: Iter:  13  F: -1612.148125146385382  |grad|_K:  8.420e-06  alpha:  3.758e-01  linmin: -6.463e-05  t[s]: 171604.47
	FillingsUpdate:  mu: +0.113081715  nElectrons: 326.000000
	SubspaceRotationAdjust: set factor to 0.0261
ElecMinimize: Iter:  14  F: -1612.150604511907886  |grad|_K:  6.172e-06  alpha:  3.636e-01  linmin: -2.591e-05  t[s]: 171641.98
	FillingsUpdate:  mu: +0.116929620  nElectrons: 326.000000
	SubspaceRotationAdjust: set factor to 0.0236
ElecMinimize: Iter:  15  F: -1612.151876056485662  |grad|_K:  4.111e-06  alpha:  3.476e-01  linmin:  1.881e-05  t[s]: 171679.35
	FillingsUpdate:  mu: +0.116664166  nElectrons: 326.000000
	SubspaceRotationAdjust: set factor to 0.028
ElecMinimize: Iter:  16  F: -1612.152582146206214  |grad|_K:  3.174e-06  alpha:  4.355e-01  linmin:  3.035e-06  t[s]: 171716.41
	FillingsUpdate:  mu: +0.115012598  nElectrons: 326.000000
	SubspaceRotationAdjust: set factor to 0.0282
ElecMinimize: Iter:  17  F: -1612.152963838061169  |grad|_K:  2.521e-06  alpha:  3.947e-01  linmin: -4.166e-06  t[s]: 171753.76
	FillingsUpdate:  mu: +0.115746966  nElectrons: 326.000000
	SubspaceRotationAdjust: set factor to 0.031
ElecMinimize: Iter:  18  F: -1612.153249667271893  |grad|_K:  2.216e-06  alpha:  4.684e-01  linmin:  5.021e-06  t[s]: 171790.97
	FillingsUpdate:  mu: +0.115633756  nElectrons: 326.000000
	SubspaceRotationAdjust: set factor to 0.0367
ElecMinimize: Iter:  19  F: -1612.153490089736351  |grad|_K:  2.141e-06  alpha:  5.102e-01  linmin: -3.363e-06  t[s]: 171828.22
	FillingsUpdate:  mu: +0.114767709  nElectrons: 326.000000
	SubspaceRotationAdjust: set factor to 0.0389
ElecMinimize: Iter:  20  F: -1612.153725288824489  |grad|_K:  2.338e-06  alpha:  5.346e-01  linmin: -8.315e-06  t[s]: 171865.53
	FillingsUpdate:  mu: +0.115784953  nElectrons: 326.000000
	SubspaceRotationAdjust: set factor to 0.0361
ElecMinimize: Iter:  21  F: -1612.153980888027490  |grad|_K:  2.503e-06  alpha:  4.868e-01  linmin:  7.421e-06  t[s]: 171903.13
	FillingsUpdate:  mu: +0.114263086  nElectrons: 326.000000
	SubspaceRotationAdjust: set factor to 0.0343
ElecMinimize: Iter:  22  F: -1612.154246303507534  |grad|_K:  2.377e-06  alpha:  4.417e-01  linmin: -7.202e-06  t[s]: 171940.51
	FillingsUpdate:  mu: +0.114310498  nElectrons: 326.000000
	SubspaceRotationAdjust: set factor to 0.0368
ElecMinimize: Iter:  23  F: -1612.154536990581619  |grad|_K:  2.190e-06  alpha:  5.358e-01  linmin:  6.903e-06  t[s]: 171977.44
	FillingsUpdate:  mu: +0.114707580  nElectrons: 326.000000
	SubspaceRotationAdjust: set factor to 0.0381
ElecMinimize: Iter:  24  F: -1612.154756195841401  |grad|_K:  1.976e-06  alpha:  4.763e-01  linmin:  5.054e-06  t[s]: 172014.72
	FillingsUpdate:  mu: +0.113612531  nElectrons: 326.000000
	SubspaceRotationAdjust: set factor to 0.0341
ElecMinimize: Iter:  25  F: -1612.154910389589077  |grad|_K:  1.718e-06  alpha:  4.115e-01  linmin: -5.740e-06  t[s]: 172052.16
	FillingsUpdate:  mu: +0.114309895  nElectrons: 326.000000
	SubspaceRotationAdjust: set factor to 0.0295
ElecMinimize: Iter:  26  F: -1612.155014811992260  |grad|_K:  1.386e-06  alpha:  3.685e-01  linmin:  5.364e-06  t[s]: 172089.52
	FillingsUpdate:  mu: +0.114079886  nElectrons: 326.000000
	SubspaceRotationAdjust: set factor to 0.0317
ElecMinimize: Iter:  27  F: -1612.155091901438027  |grad|_K:  1.078e-06  alpha:  4.183e-01  linmin: -2.988e-06  t[s]: 172127.02
	FillingsUpdate:  mu: +0.113984407  nElectrons: 326.000000
	SubspaceRotationAdjust: set factor to 0.0347
ElecMinimize: Iter:  28  F: -1612.155140644256562  |grad|_K:  8.946e-07  alpha:  4.367e-01  linmin: -1.503e-06  t[s]: 172164.36
	FillingsUpdate:  mu: +0.114357246  nElectrons: 326.000000
	SubspaceRotationAdjust: set factor to 0.0339
ElecMinimize: Iter:  29  F: -1612.155172274420465  |grad|_K:  7.639e-07  alpha:  4.117e-01  linmin:  1.730e-06  t[s]: 172202.21
	FillingsUpdate:  mu: +0.114117664  nElectrons: 326.000000
	SubspaceRotationAdjust: set factor to 0.0338
ElecMinimize: Iter:  30  F: -1612.155194804298844  |grad|_K:  6.434e-07  alpha:  4.023e-01  linmin: -2.029e-06  t[s]: 172239.74
	FillingsUpdate:  mu: +0.114383721  nElectrons: 326.000000
	SubspaceRotationAdjust: set factor to 0.039
ElecMinimize: Iter:  31  F: -1612.155213521375117  |grad|_K:  5.591e-07  alpha:  4.709e-01  linmin:  7.712e-07  t[s]: 172276.98
	FillingsUpdate:  mu: +0.114539986  nElectrons: 326.000000
	SubspaceRotationAdjust: set factor to 0.0438
ElecMinimize: Iter:  32  F: -1612.155227637626695  |grad|_K:  5.267e-07  alpha:  4.704e-01  linmin:  2.211e-07  t[s]: 172314.88
	FillingsUpdate:  mu: +0.114388095  nElectrons: 326.000000
	SubspaceRotationAdjust: set factor to 0.0423
ElecMinimize: Iter:  33  F: -1612.155239291020962  |grad|_K:  5.173e-07  alpha:  4.375e-01  linmin:  2.692e-07  t[s]: 172352.51
	FillingsUpdate:  mu: +0.114818827  nElectrons: 326.000000
	SubspaceRotationAdjust: set factor to 0.0366
ElecMinimize: Iter:  34  F: -1612.155248664515511  |grad|_K:  4.833e-07  alpha:  3.650e-01  linmin:  1.138e-07  t[s]: 172391.25
	FillingsUpdate:  mu: +0.114753596  nElectrons: 326.000000
	SubspaceRotationAdjust: set factor to 0.0359
ElecMinimize: Iter:  35  F: -1612.155257782324497  |grad|_K:  4.074e-07  alpha:  4.066e-01  linmin:  7.230e-08  t[s]: 172428.67
	FillingsUpdate:  mu: +0.114796580  nElectrons: 326.000000
	SubspaceRotationAdjust: set factor to 0.0399
ElecMinimize: Iter:  36  F: -1612.155265131080796  |grad|_K:  3.567e-07  alpha:  4.613e-01  linmin:  1.712e-07  t[s]: 172465.85
	FillingsUpdate:  mu: +0.114965199  nElectrons: 326.000000
	SubspaceRotationAdjust: set factor to 0.041
ElecMinimize: Iter:  37  F: -1612.155270658869540  |grad|_K:  3.196e-07  alpha:  4.526e-01  linmin:  1.322e-07  t[s]: 172503.32
	FillingsUpdate:  mu: +0.114850134  nElectrons: 326.000000
	SubspaceRotationAdjust: set factor to 0.0363
ElecMinimize: Iter:  38  F: -1612.155274344446298  |grad|_K:  2.952e-07  alpha:  3.758e-01  linmin:  7.711e-07  t[s]: 172540.63
	FillingsUpdate:  mu: +0.114984338  nElectrons: 326.000000
	SubspaceRotationAdjust: set factor to 0.0346
ElecMinimize: Iter:  39  F: -1612.155277492241112  |grad|_K:  2.431e-07  alpha:  3.764e-01  linmin:  1.509e-06  t[s]: 172578.07
	FillingsUpdate:  mu: +0.114917670  nElectrons: 326.000000
	SubspaceRotationAdjust: set factor to 0.0396
ElecMinimize: Iter:  40  F: -1612.155280021311683  |grad|_K:  2.086e-07  alpha:  4.457e-01  linmin: -1.997e-06  t[s]: 172616.64
	FillingsUpdate:  mu: +0.114857407  nElectrons: 326.000000
	SubspaceRotationAdjust: set factor to 0.0438
ElecMinimize: Iter:  41  F: -1612.155281988024853  |grad|_K:  1.935e-07  alpha:  4.707e-01  linmin: -3.402e-07  t[s]: 172654.96
	FillingsUpdate:  mu: +0.114950216  nElectrons: 326.000000
	SubspaceRotationAdjust: set factor to 0.0404
ElecMinimize: Iter:  42  F: -1612.155283382382095  |grad|_K:  1.864e-07  alpha:  3.879e-01  linmin:  8.255e-07  t[s]: 172692.07
	FillingsUpdate:  mu: +0.114822967  nElectrons: 326.000000
	SubspaceRotationAdjust: set factor to 0.0365
ElecMinimize: Iter:  43  F: -1612.155284598367643  |grad|_K:  1.632e-07  alpha:  3.647e-01  linmin:  1.251e-06  t[s]: 172729.34
	FillingsUpdate:  mu: +0.114815369  nElectrons: 326.000000
	SubspaceRotationAdjust: set factor to 0.0397
ElecMinimize: Iter:  44  F: -1612.155285693915630  |grad|_K:  1.383e-07  alpha:  4.286e-01  linmin: -2.509e-06  t[s]: 172767.14
	FillingsUpdate:  mu: +0.114798819  nElectrons: 326.000000
	SubspaceRotationAdjust: set factor to 0.0435
ElecMinimize: Iter:  45  F: -1612.155286555682324  |grad|_K:  1.226e-07  alpha:  4.695e-01  linmin:  3.611e-06  t[s]: 172804.99
	FillingsUpdate:  mu: +0.114729003  nElectrons: 326.000000
	SubspaceRotationAdjust: set factor to 0.0411
ElecMinimize: Iter:  46  F: -1612.155287139872144  |grad|_K:  1.127e-07  alpha:  4.047e-01  linmin: -1.355e-06  t[s]: 172842.15
	FillingsUpdate:  mu: +0.114770459  nElectrons: 326.000000
	SubspaceRotationAdjust: set factor to 0.034
ElecMinimize: Iter:  47  F: -1612.155287552260461  |grad|_K:  9.748e-08  alpha:  3.384e-01  linmin: -8.519e-07  t[s]: 172879.86
	FillingsUpdate:  mu: +0.114714951  nElectrons: 326.000000
	SubspaceRotationAdjust: set factor to 0.0341
ElecMinimize: Iter:  48  F: -1612.155287892649767  |grad|_K:  7.731e-08  alpha:  3.735e-01  linmin:  2.079e-05  t[s]: 172917.33
	FillingsUpdate:  mu: +0.114699765  nElectrons: 326.000000
	SubspaceRotationAdjust: set factor to 0.0391
ElecMinimize: Iter:  49  F: -1612.155288148294176  |grad|_K:  6.523e-08  alpha:  4.458e-01  linmin: -4.936e-06  t[s]: 172954.71
ElecMinimize: Converged (|Delta F|<1.000000e-06 for 5 iters).
Setting wave functions to eigenvectors of Hamiltonian
IonicMinimize: 	Wolfe criterion not satisfied: alpha: 0.702475  (E-E0)/|gdotd0|: 0.361617  gdotd/gdotd0: -0.758778 (taking cubic step)

-------- Electronic minimization -----------
	FillingsUpdate:  mu: +0.115634295  nElectrons: 326.000000
ElecMinimize: Iter:   0  F: -1611.980687646228034  |grad|_K:  8.969e-05  alpha:  1.000e+00
	FillingsUpdate:  mu: +0.114169503  nElectrons: 326.000000
	SubspaceRotationAdjust: set factor to 0.0389
ElecMinimize: Iter:   1  F: -1612.143845314198643  |grad|_K:  1.727e-05  alpha:  2.138e-01  linmin:  3.109e-02  t[s]: 173030.08
	FillingsUpdate:  mu: +0.115803005  nElectrons: 326.000000
	SubspaceRotationAdjust: set factor to 0.0386
ElecMinimize: Iter:   2  F: -1612.150349336593763  |grad|_K:  6.582e-06  alpha:  2.299e-01  linmin: -1.677e-04  t[s]: 173067.35
	FillingsUpdate:  mu: +0.114213060  nElectrons: 326.000000
	SubspaceRotationAdjust: set factor to 0.0392
ElecMinimize: Iter:   3  F: -1612.151574499957178  |grad|_K:  3.442e-06  alpha:  2.945e-01  linmin: -6.685e-06  t[s]: 173104.73
	FillingsUpdate:  mu: +0.115790145  nElectrons: 326.000000
	SubspaceRotationAdjust: set factor to 0.0384
ElecMinimize: Iter:   4  F: -1612.152033447092890  |grad|_K:  2.756e-06  alpha:  4.035e-01  linmin: -1.348e-05  t[s]: 173142.06
	FillingsUpdate:  mu: +0.114020220  nElectrons: 326.000000
	SubspaceRotationAdjust: set factor to 0.0343
ElecMinimize: Iter:   5  F: -1612.152310963699847  |grad|_K:  2.601e-06  alpha:  3.805e-01  linmin:  7.683e-07  t[s]: 173179.62
	FillingsUpdate:  mu: +0.115257464  nElectrons: 326.000000
	SubspaceRotationAdjust: set factor to 0.0363
ElecMinimize: Iter:   6  F: -1612.152625499092665  |grad|_K:  2.381e-06  alpha:  4.845e-01  linmin: -5.780e-08  t[s]: 173217.16
	FillingsUpdate:  mu: +0.114780351  nElectrons: 326.000000
	SubspaceRotationAdjust: set factor to 0.0413
ElecMinimize: Iter:   7  F: -1612.152979833591644  |grad|_K:  2.735e-06  alpha:  6.513e-01  linmin: -1.014e-06  t[s]: 173254.67
	FillingsUpdate:  mu: +0.114049282  nElectrons: 326.000000
	SubspaceRotationAdjust: set factor to 0.0444
ElecMinimize: Iter:   8  F: -1612.153516702023580  |grad|_K:  3.255e-06  alpha:  7.477e-01  linmin: -2.490e-06  t[s]: 173291.62
	FillingsUpdate:  mu: +0.115810294  nElectrons: 326.000000
	SubspaceRotationAdjust: set factor to 0.0392
ElecMinimize: Iter:   9  F: -1612.154058799630320  |grad|_K:  3.813e-06  alpha:  5.326e-01  linmin:  4.799e-08  t[s]: 173328.90
	FillingsUpdate:  mu: +0.113439461  nElectrons: 326.000000
	SubspaceRotationAdjust: set factor to 0.0277
ElecMinimize: Iter:  10  F: -1612.154520420961944  |grad|_K:  3.313e-06  alpha:  3.311e-01  linmin:  5.079e-07  t[s]: 173366.16
	FillingsUpdate:  mu: +0.114499759  nElectrons: 326.000000
	SubspaceRotationAdjust: set factor to 0.0276
ElecMinimize: Iter:  11  F: -1612.154994689320120  |grad|_K:  2.731e-06  alpha:  4.502e-01  linmin:  3.274e-06  t[s]: 173403.55
	FillingsUpdate:  mu: +0.114976243  nElectrons: 326.000000
	SubspaceRotationAdjust: set factor to 0.0285
ElecMinimize: Iter:  12  F: -1612.155290244272010  |grad|_K:  2.035e-06  alpha:  4.130e-01  linmin:  1.055e-06  t[s]: 173440.93
	FillingsUpdate:  mu: +0.113994318  nElectrons: 326.000000
	SubspaceRotationAdjust: set factor to 0.0237
ElecMinimize: Iter:  13  F: -1612.155445756813378  |grad|_K:  1.499e-06  alpha:  3.912e-01  linmin: -1.453e-06  t[s]: 173478.23
	FillingsUpdate:  mu: +0.114538619  nElectrons: 326.000000
	SubspaceRotationAdjust: set factor to 0.0223
ElecMinimize: Iter:  14  F: -1612.155531898559730  |grad|_K:  1.030e-06  alpha:  3.993e-01  linmin:  1.115e-06  t[s]: 173515.72
	FillingsUpdate:  mu: +0.114592846  nElectrons: 326.000000
	SubspaceRotationAdjust: set factor to 0.0243
ElecMinimize: Iter:  15  F: -1612.155573728408626  |grad|_K:  7.682e-07  alpha:  4.109e-01  linmin:  6.081e-07  t[s]: 173553.15
	FillingsUpdate:  mu: +0.114374136  nElectrons: 326.000000
	SubspaceRotationAdjust: set factor to 0.0242
ElecMinimize: Iter:  16  F: -1612.155596206707969  |grad|_K:  5.598e-07  alpha:  3.968e-01  linmin: -6.494e-07  t[s]: 173590.68
	FillingsUpdate:  mu: +0.114505439  nElectrons: 326.000000
	SubspaceRotationAdjust: set factor to 0.0264
ElecMinimize: Iter:  17  F: -1612.155609054996376  |grad|_K:  4.306e-07  alpha:  4.270e-01  linmin: -4.829e-08  t[s]: 173627.90
	FillingsUpdate:  mu: +0.114563107  nElectrons: 326.000000
	SubspaceRotationAdjust: set factor to 0.0306
ElecMinimize: Iter:  18  F: -1612.155616937684499  |grad|_K:  3.526e-07  alpha:  4.428e-01  linmin: -6.029e-07  t[s]: 173665.63
	FillingsUpdate:  mu: +0.114498656  nElectrons: 326.000000
	SubspaceRotationAdjust: set factor to 0.0338
ElecMinimize: Iter:  19  F: -1612.155622540102968  |grad|_K:  3.138e-07  alpha:  4.695e-01  linmin: -7.660e-07  t[s]: 173703.06
	FillingsUpdate:  mu: +0.114644230  nElectrons: 326.000000
	SubspaceRotationAdjust: set factor to 0.037
ElecMinimize: Iter:  20  F: -1612.155627175216296  |grad|_K:  2.933e-07  alpha:  4.902e-01  linmin: -1.101e-06  t[s]: 173740.81
	FillingsUpdate:  mu: +0.114622985  nElectrons: 326.000000
	SubspaceRotationAdjust: set factor to 0.0411
ElecMinimize: Iter:  21  F: -1612.155631425910087  |grad|_K:  2.895e-07  alpha:  5.147e-01  linmin:  1.331e-07  t[s]: 173778.32
	FillingsUpdate:  mu: +0.114717604  nElectrons: 326.000000
	SubspaceRotationAdjust: set factor to 0.046
ElecMinimize: Iter:  22  F: -1612.155635627206493  |grad|_K:  2.781e-07  alpha:  5.221e-01  linmin:  9.510e-07  t[s]: 173816.70
	FillingsUpdate:  mu: +0.114784338  nElectrons: 326.000000
	SubspaceRotationAdjust: set factor to 0.0509
ElecMinimize: Iter:  23  F: -1612.155639536477338  |grad|_K:  2.621e-07  alpha:  5.264e-01  linmin:  1.798e-07  t[s]: 173853.91
	FillingsUpdate:  mu: +0.114757009  nElectrons: 326.000000
	SubspaceRotationAdjust: set factor to 0.0523
ElecMinimize: Iter:  24  F: -1612.155642819902369  |grad|_K:  2.550e-07  alpha:  4.977e-01  linmin: -7.510e-07  t[s]: 173891.31
	FillingsUpdate:  mu: +0.114928658  nElectrons: 326.000000
	SubspaceRotationAdjust: set factor to 0.0431
ElecMinimize: Iter:  25  F: -1612.155644982872218  |grad|_K:  2.562e-07  alpha:  3.464e-01  linmin: -3.347e-07  t[s]: 173928.61
	FillingsUpdate:  mu: +0.114800492  nElectrons: 326.000000
	SubspaceRotationAdjust: set factor to 0.0332
ElecMinimize: Iter:  26  F: -1612.155646748991785  |grad|_K:  1.999e-07  alpha:  2.804e-01  linmin:  1.018e-06  t[s]: 173966.03
	FillingsUpdate:  mu: +0.114848827  nElectrons: 326.000000
	SubspaceRotationAdjust: set factor to 0.0376
ElecMinimize: Iter:  27  F: -1612.155648321148874  |grad|_K:  1.637e-07  alpha:  4.100e-01  linmin:  4.754e-06  t[s]: 174003.45
	FillingsUpdate:  mu: +0.114895348  nElectrons: 326.000000
	SubspaceRotationAdjust: set factor to 0.04
ElecMinimize: Iter:  28  F: -1612.155649390513190  |grad|_K:  1.380e-07  alpha:  4.157e-01  linmin:  3.354e-06  t[s]: 174041.00
	FillingsUpdate:  mu: +0.114813450  nElectrons: 326.000000
	SubspaceRotationAdjust: set factor to 0.0359
ElecMinimize: Iter:  29  F: -1612.155650071736545  |grad|_K:  1.226e-07  alpha:  3.726e-01  linmin: -5.511e-06  t[s]: 174078.45
	FillingsUpdate:  mu: +0.114854396  nElectrons: 326.000000
	SubspaceRotationAdjust: set factor to 0.0353
ElecMinimize: Iter:  30  F: -1612.155650593275368  |grad|_K:  1.001e-07  alpha:  3.614e-01  linmin:  1.541e-06  t[s]: 174116.27
	FillingsUpdate:  mu: +0.114831154  nElectrons: 326.000000
	SubspaceRotationAdjust: set factor to 0.0423
ElecMinimize: Iter:  31  F: -1612.155651019987772  |grad|_K:  8.604e-08  alpha:  4.440e-01  linmin:  2.735e-06  t[s]: 174153.79
	FillingsUpdate:  mu: +0.114788943  nElectrons: 326.000000
	SubspaceRotationAdjust: set factor to 0.0459
ElecMinimize: Iter:  32  F: -1612.155651327099349  |grad|_K:  8.036e-08  alpha:  4.321e-01  linmin: -2.067e-05  t[s]: 174191.31
mpirun: Forwarding signal 18 to job
slurmstepd-node3219: error: *** JOB 43662 ON node3219 CANCELLED AT 2025-05-01T22:41:36 ***
