/var/spool/slurmd/job44521/slurm_script: line 9: module: command not found
/var/spool/slurmd/job44521/slurm_script: line 10: module: command not found

*************** JDFTx 1.7.0  ***************

Start date and time: Tue May 20 16:43:45 2025
Executable /data2/jt577/jdftx_eat_withLibXC/build/jdftx with command-line: -i /data2/jt577/May_2025/Relax_Mag_litU/rel12+1_6/OH/runs/calc_/run.in
Running on hosts (process indices):  node3405 (0-8)
Divided in process groups (process indices):  0 (0)  1 (1)  2 (2)  3 (3)  4 (4)  5 (5)  6 (6)  7 (7)  8 (8)
Resource initialization completed at t[s]:      0.00
Run totals: 9 processes, 90 threads, 0 GPUs


Input parsed successfully to the following command list (including defaults):

add-mix 
add-U 	Ni d 0.235196 \
	Co d 0.121273 \
	V d 0.113923
basis kpoint-dependent
coords-type Lattice
core-overlap-check vector
coulomb-interaction Periodic
davidson-band-ratio 1.1
dump End IonicPositions Lattice Ecomponents
dump-name run.$VAR
elec-cutoff 30
elec-eigen-algo Davidson
elec-ex-corr gga-x-rpbe gga-c-pbe
elec-smearing Fermi 0.001
electronic-minimize  \
	dirUpdateScheme      FletcherReeves \
	linminMethod         DirUpdateRecommended \
	nIterations          1000 \
	history              15 \
	knormThreshold       0 \
	energyDiffThreshold  1e-06 \
	nEnergyDiff          5 \
	alphaTstart          1 \
	alphaTmin            1e-10 \
	updateTestStepSize   yes \
	alphaTreduceFactor   0.1 \
	alphaTincreaseFactor 3 \
	nAlphaAdjustMax      3 \
	wolfeEnergy          0.0001 \
	wolfeGradient        0.9 \
	fdTest               no
exchange-regularization WignerSeitzTruncated
fluid None
fluid-ex-corr (null) lda-PZ
fluid-gummel-loop 10 1.000000e-05
fluid-minimize  \
	dirUpdateScheme      PolakRibiere \
	linminMethod         DirUpdateRecommended \
	nIterations          100 \
	history              15 \
	knormThreshold       0 \
	energyDiffThreshold  0 \
	nEnergyDiff          2 \
	alphaTstart          1 \
	alphaTmin            1e-10 \
	updateTestStepSize   yes \
	alphaTreduceFactor   0.1 \
	alphaTincreaseFactor 3 \
	nAlphaAdjustMax      3 \
	wolfeEnergy          0.0001 \
	wolfeGradient        0.9 \
	fdTest               no
fluid-solvent H2O 55.338 ScalarEOS \
	epsBulk 78.4 \
	pMol 0.92466 \
	epsInf 1.77 \
	Pvap 1.06736e-10 \
	sigmaBulk 4.62e-05 \
	Rvdw 2.61727 \
	Res 1.42 \
	tauNuc 343133 \
	poleEl 15 7 1
forces-output-coords Positions
initial-magnetic-moments  \
	Ni 1 -1 -1 1 1 1 \
	Co 1 -1 -1 \
	V -1 1 -1 -1 -1 1 1
initial-state run.$VAR
ion Ni  0.000000000000000   0.000000000000000   0.150000000000000 1
ion Ni  0.500000000000000   0.000000000000000   0.150000000000000 1
ion Ni  0.500000000000000   0.500000000000000   0.150000000000000 1
ion Ni  0.250000000000000   0.250000000000000   0.050000000000000 1
ion Ni  0.250000000000000   0.750000000000000   0.050000000000000 1
ion Ni  0.500000000000000   0.500000000000000  -0.050000000000000 0
ion Co  0.000000000000000   0.500000000000000   0.150000000000000 1
ion Co -0.250000000000000   0.250000000000000   0.050000000000000 1
ion Co -0.250000000000000   0.750000000000000   0.050000000000000 1
ion V  0.000000000000000   0.000000000000000  -0.050000000000000 0
ion V  0.500000000000000   0.000000000000000  -0.050000000000000 0
ion V  0.000000000000000   0.500000000000000  -0.050000000000000 0
ion V  0.250000000000000   0.250000000000000  -0.150000000000000 0
ion V  0.250000000000000   0.750000000000000  -0.150000000000000 0
ion V -0.250000000000000   0.250000000000000  -0.150000000000000 0
ion V -0.250000000000000   0.750000000000000  -0.150000000000000 0
ion O  0.250000000000000   0.250000000000000   0.150000000000000 1
ion O  0.250000000000000   0.750000000000000   0.150000000000000 1
ion O -0.250000000000000   0.250000000000000   0.150000000000000 1
ion O -0.250000000000000   0.750000000000000   0.150000000000000 1
ion O  0.000000000000000   0.000000000000000   0.050000000000000 1
ion O  0.500000000000000   0.000000000000000   0.050000000000000 1
ion O  0.000000000000000   0.500000000000000   0.050000000000000 1
ion O  0.500000000000000   0.500000000000000   0.050000000000000 1
ion O  0.250000000000000   0.250000000000000  -0.050000000000000 0
ion O  0.250000000000000   0.750000000000000  -0.050000000000000 0
ion O -0.250000000000000   0.250000000000000  -0.050000000000000 0
ion O -0.250000000000000   0.750000000000000  -0.050000000000000 0
ion O  0.000000000000000   0.000000000000000  -0.150000000000000 0
ion O  0.500000000000000   0.000000000000000  -0.150000000000000 0
ion O  0.000000000000000   0.500000000000000  -0.150000000000000 0
ion O  0.500000000000000   0.500000000000000  -0.150000000000000 0
ion O -0.008040138212305  -0.008269777577920   0.235000196603227 1
ion H  0.095742872057713   0.094897636790041   0.252810710255288 1
ion-species SG15/$ID_ONCV_PBE.upf
ion-width 0
ionic-minimize  \
	dirUpdateScheme      L-BFGS \
	linminMethod         DirUpdateRecommended \
	nIterations          1000 \
	history              15 \
	knormThreshold       0.0001 \
	energyDiffThreshold  0.0001 \
	nEnergyDiff          3 \
	alphaTstart          1 \
	alphaTmin            1e-10 \
	updateTestStepSize   yes \
	alphaTreduceFactor   0.1 \
	alphaTincreaseFactor 3 \
	nAlphaAdjustMax      3 \
	wolfeEnergy          0.0001 \
	wolfeGradient        0.9 \
	fdTest               no
kpoint   0.500000000000   0.500000000000   0.500000000000  1.00000000000000
kpoint-folding 3 3 1 
latt-move-scale 1 1 1
latt-scale 1 1 1 
lattice  \
	   8.140000000000001    8.140000000000001    0.000000000000000  \
	   8.140000000000001   -8.140000000000001    0.000000000000000  \
	   0.000000000000000    0.000000000000000   40.700000000000003 
lattice-minimize  \
	dirUpdateScheme      L-BFGS \
	linminMethod         DirUpdateRecommended \
	nIterations          0 \
	history              15 \
	knormThreshold       0 \
	energyDiffThreshold  1e-06 \
	nEnergyDiff          2 \
	alphaTstart          1 \
	alphaTmin            1e-10 \
	updateTestStepSize   yes \
	alphaTreduceFactor   0.1 \
	alphaTincreaseFactor 3 \
	nAlphaAdjustMax      3 \
	wolfeEnergy          0.0001 \
	wolfeGradient        0.9 \
	fdTest               no
lcao-params -1 1e-06 0.001
pcm-variant GLSSA13
spintype z-spin
subspace-rotation-factor 1 yes
symmetries none
symmetry-threshold 0.0001


Applied RMS atom displacement 0 bohrs to make symmetries exact.

---------- Initializing the Grid ----------
R = 
[         8.14         8.14            0  ]
[         8.14        -8.14            0  ]
[            0            0         40.7  ]
unit cell volume = 5393.53
G =
[   0.385945   0.385945         -0  ]
[   0.385945  -0.385945         -0  ]
[         -0         -0   0.154378  ]
Minimum fftbox size, Smin = [  60  60  204  ]
Chosen fftbox size, S = [  60  60  210  ]

---------- Exchange Correlation functional ----------
Initialized LibXC exchange functional 'Hammer, Hansen, and Norskov'
Initialized LibXC correlation functional 'Perdew, Burke & Ernzerhof'

---------- Setting up pseudopotentials ----------
Width of ionic core gaussian charges (only for fluid interactions / plotting) set to 0

Reading pseudopotential file '/data2/jt577/jdftx_eat_withLibXC/build/pseudopotentials/SG15/Ni_ONCV_PBE.upf':
  'Ni' pseudopotential, 'PBE' functional
  Generated using ONCVPSP code by D. R. Hamann
  Author: Martin Schlipf and Francois Gygi  Date: 150915.
  18 valence electrons, 4 orbitals, 6 projectors, 1292 radial grid points, with lMax = 2
  Transforming local potential to a uniform radial grid of dG=0.02 with 1419 points.
  Transforming nonlocal projectors to a uniform radial grid of dG=0.02 with 528 points.
    3S    l: 0   occupation:  2.0   eigenvalue: -4.081355
    3P    l: 1   occupation:  6.0   eigenvalue: -2.623460
    4S    l: 0   occupation:  2.0   eigenvalue: -0.207378
    3D    l: 2   occupation:  8.0   eigenvalue: -0.326118
  Transforming atomic orbitals to a uniform radial grid of dG=0.02 with 528 points.
  WARNING: large normalization error in atomic orbital 1s (integral: 0.000006).
  Core radius for overlap checks: 1.99 bohrs.
  Reading pulay file /data2/jt577/jdftx_eat_withLibXC/build/pseudopotentials/SG15/Ni_ONCV_PBE.pulay ... using dE_dnG = -7.250568e-04 computed for Ecut = 30.

Reading pseudopotential file '/data2/jt577/jdftx_eat_withLibXC/build/pseudopotentials/SG15/Co_ONCV_PBE.upf':
  'Co' pseudopotential, 'PBE' functional
  Generated using ONCVPSP code by D. R. Hamann
  Author: Martin Schlipf and Francois Gygi  Date: 150915.
  17 valence electrons, 4 orbitals, 6 projectors, 1388 radial grid points, with lMax = 2
  Transforming local potential to a uniform radial grid of dG=0.02 with 1419 points.
  Transforming nonlocal projectors to a uniform radial grid of dG=0.02 with 528 points.
    3S    l: 0   occupation:  2.0   eigenvalue: -3.763303
    3P    l: 1   occupation:  6.0   eigenvalue: -2.412101
    4S    l: 0   occupation:  2.0   eigenvalue: -0.201022
    3D    l: 2   occupation:  7.0   eigenvalue: -0.301498
  Transforming atomic orbitals to a uniform radial grid of dG=0.02 with 528 points.
  Core radius for overlap checks: 1.94 bohrs.
  Reading pulay file /data2/jt577/jdftx_eat_withLibXC/build/pseudopotentials/SG15/Co_ONCV_PBE.pulay ... using dE_dnG = -9.787391e-05 computed for Ecut = 30.

Reading pseudopotential file '/data2/jt577/jdftx_eat_withLibXC/build/pseudopotentials/SG15/V_ONCV_PBE.upf':
  'V' pseudopotential, 'PBE' functional
  Generated using ONCVPSP code by D. R. Hamann
  Author: Martin Schlipf and Francois Gygi  Date: 150915.
  13 valence electrons, 4 orbitals, 6 projectors, 1536 radial grid points, with lMax = 2
  Transforming local potential to a uniform radial grid of dG=0.02 with 1419 points.
  Transforming nonlocal projectors to a uniform radial grid of dG=0.02 with 528 points.
    3S    l: 0   occupation:  2.0   eigenvalue: -2.581105
    3P    l: 1   occupation:  6.0   eigenvalue: -1.618486
    4S    l: 0   occupation:  2.0   eigenvalue: -0.172804
    3D    l: 2   occupation:  3.0   eigenvalue: -0.189795
  Transforming atomic orbitals to a uniform radial grid of dG=0.02 with 528 points.
  Core radius for overlap checks: 1.80 bohrs.
  Reading pulay file /data2/jt577/jdftx_eat_withLibXC/build/pseudopotentials/SG15/V_ONCV_PBE.pulay ... using dE_dnG = -1.698632e-04 computed for Ecut = 30.

Reading pseudopotential file '/data2/jt577/jdftx_eat_withLibXC/build/pseudopotentials/SG15/O_ONCV_PBE.upf':
  'O' pseudopotential, 'PBE' functional
  Generated using ONCVPSP code by D. R. Hamann
  Author: Martin Schlipf and Francois Gygi  Date: 150915.
  6 valence electrons, 2 orbitals, 4 projectors, 936 radial grid points, with lMax = 1
  Transforming local potential to a uniform radial grid of dG=0.02 with 1419 points.
  Transforming nonlocal projectors to a uniform radial grid of dG=0.02 with 528 points.
    2S    l: 0   occupation:  2.0   eigenvalue: -0.880572
    2P    l: 1   occupation:  4.0   eigenvalue: -0.331869
  Transforming atomic orbitals to a uniform radial grid of dG=0.02 with 528 points.
  Core radius for overlap checks: 1.29 bohrs.
  Reading pulay file /data2/jt577/jdftx_eat_withLibXC/build/pseudopotentials/SG15/O_ONCV_PBE.pulay ... using dE_dnG = -8.209514e-03 computed for Ecut = 30.

Reading pseudopotential file '/data2/jt577/jdftx_eat_withLibXC/build/pseudopotentials/SG15/H_ONCV_PBE.upf':
  'H' pseudopotential, 'PBE' functional
  Generated using ONCVPSP code by D. R. Hamann
  Author: Martin Schlipf and Francois Gygi  Date: 150915.
  1 valence electrons, 1 orbitals, 2 projectors, 1166 radial grid points, with lMax = 0
  Transforming local potential to a uniform radial grid of dG=0.02 with 1419 points.
  Transforming nonlocal projectors to a uniform radial grid of dG=0.02 with 528 points.
    1S    l: 0   occupation:  1.0   eigenvalue: -0.238602
  Transforming atomic orbitals to a uniform radial grid of dG=0.02 with 528 points.
  Core radius for overlap checks: 1.01 bohrs.
  Reading pulay file /data2/jt577/jdftx_eat_withLibXC/build/pseudopotentials/SG15/H_ONCV_PBE.pulay ... using dE_dnG = -8.245991e-05 computed for Ecut = 30.

Initialized 5 species with 34 total atoms.

Folded 1 k-points by 3x3x1 to 9 k-points.

---------- Setting up k-points, bands, fillings ----------
No reducable k-points. 
Computing the number of bands and number of electrons
Calculating initial fillings.
nElectrons: 353.000000   nBands: 229   nStates: 18

----- Setting up reduced wavefunction bases (one per k-point) -----
average nbasis = 42312.000 , ideal nbasis = 42330.081

---------- Setting up ewald sum ----------
Optimum gaussian width for ewald sums = 3.887061 bohr.
Real space sum over 605 unit cells with max indices [  5  5  2  ]
Reciprocal space sum over 5915 terms with max indices [  6  6  17  ]

---------- Allocating electronic variables ----------
Initializing wave functions:  linear combination of atomic orbitals
Ni (M=1) pseudo-atom majority spin occupations:   s ( 1 0.5 )  p ( 3 )  d ( 5 )
Ni (M=1) pseudo-atom minority spin occupations:   s ( 1 0 )  p ( 3 )  d ( 4.5 )
Co (M=1) pseudo-atom majority spin occupations:   s ( 1 0 )  p ( 3 )  d ( 5 )
Co (M=1) pseudo-atom minority spin occupations:   s ( 1 0 )  p ( 3 )  d ( 4 )
V (M=1) pseudo-atom majority spin occupations:   s ( 1 0 )  p ( 3 )  d ( 3 )
V (M=1) pseudo-atom minority spin occupations:   s ( 1 0 )  p ( 3 )  d ( 2 )
O pseudo-atom occupations:   s ( 2 )  p ( 4 )
H pseudo-atom occupations:   s ( 1 )
	FillingsUpdate:  mu: -0.483006671  nElectrons: 353.000000  magneticMoment: [ Abs: 2.55062  Tot: +0.00000 ]
LCAOMinimize: Iter:   0  F: -1958.2677843647340978  |grad|_K:  1.358e-02  alpha:  1.000e+00
LCAOMinimize: 	Step increased F by 2.607606e+01, reducing alpha to 2.018442e-02.
	FillingsUpdate:  mu: -0.331905425  nElectrons: 353.000000  magneticMoment: [ Abs: 3.33277  Tot: -0.00000 ]
LCAOMinimize: Iter:   1  F: -1966.7630977285980407  |grad|_K:  1.955e-02  alpha:  2.018e-02  linmin: -1.122e-01  cgtest:  4.736e-01  t[s]:     55.08
	FillingsUpdate:  mu: +0.485493683  nElectrons: 353.000000  magneticMoment: [ Abs: 3.78963  Tot: -0.00000 ]
LCAOMinimize: Iter:   2  F: -1971.4528157726688278  |grad|_K:  1.296e-02  alpha:  9.079e-03  linmin:  2.967e-02  cgtest: -2.286e-01  t[s]:     69.79
LCAOMinimize: 	Bad step direction: g.d > 0.
LCAOMinimize: 	Undoing step.
LCAOMinimize: 	Step failed: resetting search direction.
	FillingsUpdate:  mu: +0.485493683  nElectrons: 353.000000  magneticMoment: [ Abs: 3.78963  Tot: -0.00000 ]
LCAOMinimize: Iter:   3  F: -1971.4528157726688278  |grad|_K:  1.296e-02  alpha:  0.000e+00
LCAOMinimize: 	Wrong curvature in test step, increasing alphaT to 2.723721e-02.
	FillingsUpdate:  mu: +0.366559282  nElectrons: 353.000000  magneticMoment: [ Abs: 4.31523  Tot: -0.00000 ]
LCAOMinimize: Iter:   4  F: -1973.0918750533810453  |grad|_K:  1.785e-02  alpha: -3.547e-02  linmin: -4.834e-02  cgtest:  5.930e-01  t[s]:     93.45
LCAOMinimize: 	Step increased F by 7.429689e+02, reducing alpha to 1.686467e-02.
	FillingsUpdate:  mu: -0.131786552  nElectrons: 353.000000  magneticMoment: [ Abs: 7.24464  Tot: -0.00000 ]
LCAOMinimize: Iter:   5  F: -1983.4450339239247114  |grad|_K:  1.627e-02  alpha:  1.686e-02  linmin: -9.350e-03  cgtest:  5.286e-01  t[s]:    117.86
LCAOMinimize: 	Predicted alpha/alphaT>3.000000, increasing alphaT to 5.059402e-02.
LCAOMinimize: 	Predicted alpha/alphaT>3.000000, increasing alphaT to 1.517820e-01.
	FillingsUpdate:  mu: -0.169169309  nElectrons: 353.000000  magneticMoment: [ Abs: 8.80528  Tot: +0.00000 ]
LCAOMinimize: Iter:   6  F: -1986.7815626388903638  |grad|_K:  1.503e-02  alpha:  1.152e-02  linmin: -3.621e-02  cgtest:  1.020e+00  t[s]:    140.31
LCAOMinimize: Encountered beta<0, resetting CG.
LCAOMinimize: 	Predicted alpha/alphaT>3.000000, increasing alphaT to 3.454583e-02.
	FillingsUpdate:  mu: +0.310976290  nElectrons: 353.000000  magneticMoment: [ Abs: 8.60868  Tot: -0.00000 ]
LCAOMinimize: Iter:   7  F: -1990.5361906213049679  |grad|_K:  1.788e-02  alpha:  3.131e-02  linmin:  1.448e-02  cgtest:  1.587e-01  t[s]:    158.86
LCAOMinimize: 	Wrong curvature in test step, increasing alphaT to 9.393298e-02.
	FillingsUpdate:  mu: +0.411097768  nElectrons: 353.000000  magneticMoment: [ Abs: 10.33725  Tot: +0.00000 ]
LCAOMinimize: Iter:   8  F: -2001.0408052069938094  |grad|_K:  1.914e-02  alpha: -2.192e-02  linmin: -1.931e-02  cgtest:  9.072e-01  t[s]:    172.57
LCAOMinimize: 	Step increased F by 3.603985e+02, reducing alpha to 1.429212e-02.
	FillingsUpdate:  mu: +0.372657120  nElectrons: 353.000000  magneticMoment: [ Abs: 12.76353  Tot: -0.00000 ]
LCAOMinimize: Iter:   9  F: -2003.7549736598614345  |grad|_K:  1.618e-02  alpha:  1.429e-02  linmin:  1.385e-02  cgtest: -1.690e-01  t[s]:    197.43
LCAOMinimize: 	Step increased F by 4.427452e+00, reducing alpha to 3.350563e-03.
	FillingsUpdate:  mu: +0.393174146  nElectrons: 353.000000  magneticMoment: [ Abs: 13.06110  Tot: +0.00000 ]
LCAOMinimize: Iter:  10  F: -2004.3068968507275258  |grad|_K:  1.663e-02  alpha:  3.351e-03  linmin: -2.673e-02  cgtest:  1.037e+00  t[s]:    222.15
LCAOMinimize: Encountered beta<0, resetting CG.
LCAOMinimize: 	Predicted alpha/alphaT>3.000000, increasing alphaT to 1.005169e-02.
	FillingsUpdate:  mu: +0.423283249  nElectrons: 353.000000  magneticMoment: [ Abs: 10.99338  Tot: +0.00000 ]
LCAOMinimize: Iter:  11  F: -2005.6674491985338591  |grad|_K:  2.086e-02  alpha:  1.940e-02  linmin:  4.988e-02  cgtest: -4.942e-01  t[s]:    241.18
	FillingsUpdate:  mu: +0.535585546  nElectrons: 353.000000  magneticMoment: [ Abs: 10.52610  Tot: -0.00000 ]
LCAOMinimize: Iter:  12  F: -2005.6755323816794316  |grad|_K:  2.349e-02  alpha:  3.010e-03  linmin:  1.325e-03  cgtest:  1.021e+00  t[s]:    255.55
LCAOMinimize: 	Predicted alpha/alphaT>3.000000, increasing alphaT to 9.029484e-03.
	FillingsUpdate:  mu: +0.260108724  nElectrons: 353.000000  magneticMoment: [ Abs: 12.78680  Tot: -0.00000 ]
LCAOMinimize: Iter:  13  F: -2008.7579202292083664  |grad|_K:  1.246e-02  alpha:  1.318e-02  linmin:  5.677e-02  cgtest: -5.639e-01  t[s]:    273.87
	FillingsUpdate:  mu: +0.412115200  nElectrons: 353.000000  magneticMoment: [ Abs: 13.01585  Tot: -0.00000 ]
LCAOMinimize: Iter:  14  F: -2009.0079740207331724  |grad|_K:  1.712e-02  alpha:  9.960e-03  linmin: -3.350e-04  cgtest:  9.290e-01  t[s]:    288.45
	FillingsUpdate:  mu: +0.141520796  nElectrons: 353.000000  magneticMoment: [ Abs: 12.06990  Tot: -0.00000 ]
LCAOMinimize: Iter:  15  F: -2010.5808043928088864  |grad|_K:  5.546e-03  alpha:  1.102e-02  linmin: -4.446e-02  cgtest:  1.076e-01  t[s]:    302.82
LCAOMinimize: 	Predicted alpha/alphaT>3.000000, increasing alphaT to 3.307266e-02.
LCAOMinimize: 	Predicted alpha/alphaT>3.000000, increasing alphaT to 9.921797e-02.
	FillingsUpdate:  mu: +0.332279312  nElectrons: 353.000000  magneticMoment: [ Abs: 15.77965  Tot: +0.00000 ]
LCAOMinimize: Iter:  16  F: -2012.1049753445438455  |grad|_K:  1.299e-02  alpha:  1.488e-01  linmin:  2.720e-02  cgtest: -3.868e-01  t[s]:    325.82
LCAOMinimize: 	Bad step direction: g.d > 0.
LCAOMinimize: 	Undoing step.
LCAOMinimize: 	Step failed: resetting search direction.
	FillingsUpdate:  mu: +0.332279312  nElectrons: 353.000000  magneticMoment: [ Abs: 15.77965  Tot: +0.00000 ]
LCAOMinimize: Iter:  17  F: -2012.1049753445438455  |grad|_K:  1.299e-02  alpha:  0.000e+00
LCAOMinimize: 	Step increased F by 1.039811e-02, reducing alpha to 2.791157e-03.
	FillingsUpdate:  mu: +0.254285333  nElectrons: 353.000000  magneticMoment: [ Abs: 15.58370  Tot: -0.00000 ]
LCAOMinimize: Iter:  18  F: -2012.5030677158931667  |grad|_K:  1.030e-02  alpha:  2.791e-03  linmin: -1.572e-01  cgtest:  9.961e-01  t[s]:    360.27
LCAOMinimize: Encountered beta<0, resetting CG.
LCAOMinimize: 	Predicted alpha/alphaT>3.000000, increasing alphaT to 8.373472e-03.
	FillingsUpdate:  mu: +0.075773137  nElectrons: 353.000000  magneticMoment: [ Abs: 14.49160  Tot: +0.00000 ]
LCAOMinimize: Iter:  19  F: -2013.4186294214450754  |grad|_K:  6.251e-03  alpha:  1.664e-02  linmin: -2.739e-02  cgtest:  1.334e-01  t[s]:    379.04
	FillingsUpdate:  mu: +0.210820275  nElectrons: 353.000000  magneticMoment: [ Abs: 14.88249  Tot: -0.00000 ]
LCAOMinimize: Iter:  20  F: -2013.8839216147207480  |grad|_K:  4.076e-03  alpha:  2.382e-02  linmin:  1.382e-02  cgtest: -2.616e-01  t[s]:    393.54
	FillingsUpdate:  mu: +0.131285149  nElectrons: 353.000000  magneticMoment: [ Abs: 15.06172  Tot: -0.00000 ]
LCAOMinimize: Iter:  21  F: -2014.0245873446217502  |grad|_K:  2.651e-03  alpha:  2.043e-02  linmin: -2.554e-03  cgtest:  5.283e-01  t[s]:    408.08
	FillingsUpdate:  mu: +0.087126649  nElectrons: 353.000000  magneticMoment: [ Abs: 16.03881  Tot: +0.00000 ]
LCAOMinimize: Iter:  22  F: -2014.1311846691830851  |grad|_K:  2.436e-03  alpha:  3.571e-02  linmin:  1.393e-02  cgtest: -1.238e-01  t[s]:    422.46
	FillingsUpdate:  mu: +0.105124354  nElectrons: 353.000000  magneticMoment: [ Abs: 16.78247  Tot: -0.00000 ]
LCAOMinimize: Iter:  23  F: -2014.1772235852702124  |grad|_K:  2.350e-03  alpha:  2.117e-02  linmin: -4.278e-04  cgtest:  4.150e-01  t[s]:    436.78
	FillingsUpdate:  mu: +0.143256664  nElectrons: 353.000000  magneticMoment: [ Abs: 17.07253  Tot: -0.00000 ]
LCAOMinimize: Iter:  24  F: -2014.2805937132304734  |grad|_K:  1.479e-03  alpha:  3.677e-02  linmin: -7.994e-03  cgtest: -3.432e-02  t[s]:    451.06
	FillingsUpdate:  mu: +0.092762874  nElectrons: 353.000000  magneticMoment: [ Abs: 18.05990  Tot: +0.00000 ]
LCAOMinimize: Iter:  25  F: -2014.3429845814307555  |grad|_K:  1.204e-03  alpha:  5.074e-02  linmin: -2.463e-03  cgtest: -2.517e-01  t[s]:    465.43
	FillingsUpdate:  mu: +0.116795345  nElectrons: 353.000000  magneticMoment: [ Abs: 18.96232  Tot: +0.00000 ]
LCAOMinimize: Iter:  26  F: -2014.3697580649793508  |grad|_K:  1.874e-03  alpha:  3.290e-02  linmin:  1.223e-04  cgtest:  1.891e-01  t[s]:    479.74
	FillingsUpdate:  mu: +0.120596624  nElectrons: 353.000000  magneticMoment: [ Abs: 20.14791  Tot: -0.00000 ]
LCAOMinimize: Iter:  27  F: -2014.4149655562507633  |grad|_K:  1.113e-03  alpha:  2.789e-02  linmin: -5.632e-04  cgtest:  7.306e-01  t[s]:    494.15
LCAOMinimize: Encountered beta<0, resetting CG.
	FillingsUpdate:  mu: +0.122614797  nElectrons: 353.000000  magneticMoment: [ Abs: 20.13235  Tot: +0.00000 ]
LCAOMinimize: Iter:  28  F: -2014.4244513745820768  |grad|_K:  9.290e-04  alpha:  1.604e-02  linmin:  6.714e-05  cgtest:  3.070e-02  t[s]:    508.56
LCAOMinimize: 	Predicted alpha/alphaT>3.000000, increasing alphaT to 4.813359e-02.
	FillingsUpdate:  mu: +0.121661525  nElectrons: 353.000000  magneticMoment: [ Abs: 20.88476  Tot: +0.00000 ]
LCAOMinimize: Iter:  29  F: -2014.4502393191094143  |grad|_K:  8.920e-04  alpha:  6.179e-02  linmin: -1.852e-03  cgtest: -1.151e-01  t[s]:    527.14
	FillingsUpdate:  mu: +0.121604676  nElectrons: 353.000000  magneticMoment: [ Abs: 22.28492  Tot: +0.00000 ]
LCAOMinimize: Iter:  30  F: -2014.4927632241815445  |grad|_K:  1.091e-03  alpha:  9.853e-02  linmin: -2.424e-03  cgtest: -2.437e-02  t[s]:    541.55
LCAOMinimize: None of the convergence criteria satisfied after 30 iterations.


---- Citations for features of the code used in this run ----

   Software package:
      R. Sundararaman, K. Letchworth-Weaver, K.A. Schwarz, D. Gunceler, Y. Ozhabes and T.A. Arias, 'JDFTx: software for joint density-functional theory', SoftwareX 6, 278 (2017)

   Simplified rotationally-invariant DFT+U:
      S. L. Dudarev et al., Phys. Rev. B 57, 1505 (1998)

   LibXC library of exchange-correlation functions:
      M. A. L. Marques, M. J. T. Oliveira and T. Burnus, Comput. Phys. Commun. 183, 2272 (2012)

   Hammer, Hansen, and Norskov exchange functional:
      B. Hammer, L. B. Hansen, and J. K. Nørskov, Phys. Rev. B 59, 7413 (1999)

   Perdew, Burke & Ernzerhof correlation functional:
      J. P. Perdew, K. Burke, and M. Ernzerhof, Phys. Rev. Lett. 77, 3865 (1996)

   Pseudopotentials:
      M Schlipf and F Gygi, Comput. Phys. Commun. 196, 36 (2015)

   Total energy minimization with Auxiliary Hamiltonian:
      C. Freysoldt, S. Boeck, and J. Neugebauer, Phys. Rev. B 79, 241103(R) (2009)

This list may not be complete. Please suggest additional citations or
report any other bugs at https://github.com/shankar1729/jdftx/issues

Initialization completed successfully at t[s]:    547.77


-------- Electronic minimization -----------
	FillingsUpdate:  mu: +0.121604717  nElectrons: 353.000000  magneticMoment: [ Abs: 22.28492  Tot: +0.00000 ]
ElecMinimize: Iter:   0  F: -2014.492763224181317  |grad|_K:  1.031e-03  alpha:  1.000e+00
	FillingsUpdate:  mu: +1.028078647  nElectrons: 353.000000  magneticMoment: [ Abs: 26.61817  Tot: -0.00000 ]
	SubspaceRotationAdjust: set factor to 0.99
ElecMinimize: Iter:   1  F: -2060.205924703655000  |grad|_K:  1.476e-03  alpha:  4.688e-01  linmin:  9.096e-03  t[s]:    640.53
ElecMinimize: 	Step increased F by 4.882024e+01, reducing alpha to 1.188899e-02.
	FillingsUpdate:  mu: +0.489308640  nElectrons: 353.000000  magneticMoment: [ Abs: 25.26093  Tot: +0.00000 ]
	SubspaceRotationAdjust: set factor to 1.66
ElecMinimize: Iter:   2  F: -2065.306058858846427  |grad|_K:  8.620e-04  alpha:  1.189e-02  linmin: -3.930e-03  t[s]:    759.81
	FillingsUpdate:  mu: +0.500142009  nElectrons: 353.000000  magneticMoment: [ Abs: 23.21837  Tot: -0.00000 ]
	SubspaceRotationAdjust: set factor to 1.45
ElecMinimize: Iter:   3  F: -2068.452325660683982  |grad|_K:  1.006e-03  alpha:  1.799e-02  linmin: -1.319e-03  t[s]:    833.82
ElecMinimize: 	Predicted alpha/alphaT>3.000000, increasing alphaT to 5.395852e-02.
	FillingsUpdate:  mu: +0.241892376  nElectrons: 353.000000  magneticMoment: [ Abs: 27.34978  Tot: +0.00000 ]
	SubspaceRotationAdjust: set factor to 1.35
ElecMinimize: Iter:   4  F: -2089.056717704407220  |grad|_K:  6.983e-04  alpha:  9.649e-02  linmin:  5.284e-04  t[s]:    940.31
	FillingsUpdate:  mu: +0.201998707  nElectrons: 353.000000  magneticMoment: [ Abs: 26.93730  Tot: +0.00000 ]
	SubspaceRotationAdjust: set factor to 1.68
ElecMinimize: Iter:   5  F: -2090.941320263215857  |grad|_K:  5.507e-04  alpha:  1.693e-02  linmin: -9.886e-04  t[s]:   1015.39
	FillingsUpdate:  mu: +0.215573668  nElectrons: 353.000000  magneticMoment: [ Abs: 25.01704  Tot: -0.00000 ]
	SubspaceRotationAdjust: set factor to 1.57
ElecMinimize: Iter:   6  F: -2093.542209402399294  |grad|_K:  4.969e-04  alpha:  3.371e-02  linmin: -2.997e-04  t[s]:   1089.66
	FillingsUpdate:  mu: +0.278706346  nElectrons: 353.000000  magneticMoment: [ Abs: 26.30912  Tot: +0.00000 ]
	SubspaceRotationAdjust: set factor to 1.39
ElecMinimize: Iter:   7  F: -2094.854596547807887  |grad|_K:  4.811e-04  alpha:  1.996e-02  linmin: -3.902e-04  t[s]:   1166.64
	FillingsUpdate:  mu: +0.386822161  nElectrons: 353.000000  magneticMoment: [ Abs: 28.28478  Tot: +0.00000 ]
	SubspaceRotationAdjust: set factor to 0.94
ElecMinimize: Iter:   8  F: -2095.773221230260788  |grad|_K:  5.102e-04  alpha:  1.849e-02  linmin: -1.316e-04  t[s]:   1242.07
	FillingsUpdate:  mu: +0.289768330  nElectrons: 353.000000  magneticMoment: [ Abs: 28.56705  Tot: +0.00000 ]
	SubspaceRotationAdjust: set factor to 0.63
ElecMinimize: Iter:   9  F: -2096.466010277973510  |grad|_K:  4.274e-04  alpha:  1.378e-02  linmin:  9.589e-06  t[s]:   1319.17
	FillingsUpdate:  mu: +0.203850362  nElectrons: 353.000000  magneticMoment: [ Abs: 29.17681  Tot: +0.00000 ]
	SubspaceRotationAdjust: set factor to 0.408
ElecMinimize: Iter:  10  F: -2096.922125684089224  |grad|_K:  3.917e-04  alpha:  1.589e-02  linmin:  7.024e-04  t[s]:   1396.04
	FillingsUpdate:  mu: +0.177741526  nElectrons: 353.000000  magneticMoment: [ Abs: 29.24898  Tot: -0.00000 ]
	SubspaceRotationAdjust: set factor to 0.288
ElecMinimize: Iter:  11  F: -2097.064375146886050  |grad|_K:  3.360e-04  alpha:  6.512e-03  linmin: -2.446e-04  t[s]:   1472.34
	FillingsUpdate:  mu: +0.153592589  nElectrons: 353.000000  magneticMoment: [ Abs: 29.64835  Tot: -0.00000 ]
	SubspaceRotationAdjust: set factor to 0.221
ElecMinimize: Iter:  12  F: -2097.264391578245522  |grad|_K:  2.936e-04  alpha:  8.590e-03  linmin: -1.658e-04  t[s]:   1549.47
	FillingsUpdate:  mu: +0.118049946  nElectrons: 353.000000  magneticMoment: [ Abs: 29.64297  Tot: +0.00000 ]
	SubspaceRotationAdjust: set factor to 0.19
ElecMinimize: Iter:  13  F: -2097.656131824182921  |grad|_K:  2.510e-04  alpha:  2.468e-02  linmin:  3.422e-04  t[s]:   1623.36
	FillingsUpdate:  mu: +0.120202550  nElectrons: 353.000000  magneticMoment: [ Abs: 29.66552  Tot: +0.00000 ]
	SubspaceRotationAdjust: set factor to 0.168
ElecMinimize: Iter:  14  F: -2097.734037985796931  |grad|_K:  2.443e-04  alpha:  9.007e-03  linmin:  1.003e-05  t[s]:   1696.31
	FillingsUpdate:  mu: +0.124749727  nElectrons: 353.000000  magneticMoment: [ Abs: 29.61063  Tot: -0.00000 ]
	SubspaceRotationAdjust: set factor to 0.141
ElecMinimize: Iter:  15  F: -2097.864334358899214  |grad|_K:  2.437e-04  alpha:  1.223e-02  linmin: -1.198e-04  t[s]:   1771.17
	FillingsUpdate:  mu: +0.144777312  nElectrons: 353.000000  magneticMoment: [ Abs: 29.42634  Tot: +0.00000 ]
	SubspaceRotationAdjust: set factor to 0.119
	SubspaceRotationAdjust: resetting CG because factor has changed by 0.118955
ElecMinimize: 	State modified externally: resetting search direction.
ElecMinimize: Iter:  16  F: -2098.123448269321216  |grad|_K:  2.153e-04  alpha:  2.232e-02
ElecMinimize: 	Predicted alpha/alphaT>3.000000, increasing alphaT to 6.695601e-02.
	FillingsUpdate:  mu: +0.215629028  nElectrons: 353.000000  magneticMoment: [ Abs: 30.85775  Tot: -0.00000 ]
	SubspaceRotationAdjust: set factor to 0.0843
ElecMinimize: Iter:  17  F: -2099.369420900728528  |grad|_K:  1.128e-04  alpha:  1.572e-01  linmin:  2.786e-03  t[s]:   1966.98
	FillingsUpdate:  mu: +0.134391875  nElectrons: 353.000000  magneticMoment: [ Abs: 30.61288  Tot: +0.00000 ]
	SubspaceRotationAdjust: set factor to 0.0488
ElecMinimize: Iter:  18  F: -2099.705621365681964  |grad|_K:  5.642e-05  alpha:  1.541e-01  linmin:  3.238e-03  t[s]:   2041.79
	FillingsUpdate:  mu: +0.136443151  nElectrons: 353.000000  magneticMoment: [ Abs: 31.02908  Tot: +0.00000 ]
	SubspaceRotationAdjust: set factor to 0.0707
ElecMinimize: Iter:  19  F: -2099.883055753276949  |grad|_K:  4.232e-05  alpha:  3.538e-01  linmin:  4.070e-05  t[s]:   2117.26
	FillingsUpdate:  mu: +0.139739291  nElectrons: 353.000000  magneticMoment: [ Abs: 31.50510  Tot: -0.00000 ]
	SubspaceRotationAdjust: set factor to 0.0679
ElecMinimize: Iter:  20  F: -2100.005016800604608  |grad|_K:  4.065e-05  alpha:  3.910e-01  linmin:  8.606e-05  t[s]:   2192.66
	FillingsUpdate:  mu: +0.126799507  nElectrons: 353.000000  magneticMoment: [ Abs: 31.45044  Tot: +0.00000 ]
	SubspaceRotationAdjust: set factor to 0.058
ElecMinimize: Iter:  21  F: -2100.100832409230406  |grad|_K:  3.195e-05  alpha:  3.348e-01  linmin:  7.949e-06  t[s]:   2268.49
	FillingsUpdate:  mu: +0.112902778  nElectrons: 353.000000  magneticMoment: [ Abs: 31.74077  Tot: +0.00000 ]
	SubspaceRotationAdjust: set factor to 0.063
ElecMinimize: Iter:  22  F: -2100.165327368014005  |grad|_K:  2.598e-05  alpha:  3.624e-01  linmin:  1.112e-04  t[s]:   2344.53
	FillingsUpdate:  mu: +0.120027181  nElectrons: 353.000000  magneticMoment: [ Abs: 32.01371  Tot: -0.00000 ]
	SubspaceRotationAdjust: set factor to 0.0726
ElecMinimize: Iter:  23  F: -2100.217061066698534  |grad|_K:  2.562e-05  alpha:  4.478e-01  linmin: -1.461e-05  t[s]:   2418.61
	FillingsUpdate:  mu: +0.128682685  nElectrons: 353.000000  magneticMoment: [ Abs: 32.17922  Tot: -0.00000 ]
	SubspaceRotationAdjust: set factor to 0.0758
ElecMinimize: Iter:  24  F: -2100.265200700005607  |grad|_K:  2.483e-05  alpha:  4.180e-01  linmin: -1.071e-04  t[s]:   2497.87
	FillingsUpdate:  mu: +0.127352998  nElectrons: 353.000000  magneticMoment: [ Abs: 32.43634  Tot: +0.00000 ]
	SubspaceRotationAdjust: set factor to 0.0792
ElecMinimize: Iter:  25  F: -2100.308243983184639  |grad|_K:  2.304e-05  alpha:  3.871e-01  linmin: -1.215e-04  t[s]:   2574.91
	FillingsUpdate:  mu: +0.127332152  nElectrons: 353.000000  magneticMoment: [ Abs: 32.60492  Tot: -0.00000 ]
	SubspaceRotationAdjust: set factor to 0.0929
ElecMinimize: Iter:  26  F: -2100.349186399885184  |grad|_K:  2.270e-05  alpha:  4.216e-01  linmin: -1.204e-04  t[s]:   2653.39
	FillingsUpdate:  mu: +0.114130015  nElectrons: 353.000000  magneticMoment: [ Abs: 32.84627  Tot: -0.00000 ]
	SubspaceRotationAdjust: set factor to 0.0999
ElecMinimize: Iter:  27  F: -2100.387138602512096  |grad|_K:  2.129e-05  alpha:  3.994e-01  linmin: -9.212e-05  t[s]:   2730.80
	FillingsUpdate:  mu: +0.113698121  nElectrons: 353.000000  magneticMoment: [ Abs: 33.07567  Tot: +0.00000 ]
	SubspaceRotationAdjust: set factor to 0.112
ElecMinimize: Iter:  28  F: -2100.422494625451691  |grad|_K:  2.081e-05  alpha:  4.255e-01  linmin: -9.975e-05  t[s]:   2808.56
	FillingsUpdate:  mu: +0.127856211  nElectrons: 353.000000  magneticMoment: [ Abs: 33.28464  Tot: -0.00000 ]
	SubspaceRotationAdjust: set factor to 0.118
ElecMinimize: Iter:  29  F: -2100.454787405869411  |grad|_K:  2.175e-05  alpha:  4.041e-01  linmin: -3.859e-05  t[s]:   2886.43
	FillingsUpdate:  mu: +0.128037189  nElectrons: 353.000000  magneticMoment: [ Abs: 33.60252  Tot: +0.00000 ]
	SubspaceRotationAdjust: set factor to 0.111
ElecMinimize: Iter:  30  F: -2100.478954302316652  |grad|_K:  2.028e-05  alpha:  2.697e-01  linmin: -9.502e-05  t[s]:   2963.64
	FillingsUpdate:  mu: +0.122984577  nElectrons: 353.000000  magneticMoment: [ Abs: 33.66700  Tot: +0.00000 ]
	SubspaceRotationAdjust: set factor to 0.137
ElecMinimize: Iter:  31  F: -2100.490163880699583  |grad|_K:  1.426e-05  alpha:  1.190e-01  linmin: -4.785e-04  t[s]:   3039.44
	FillingsUpdate:  mu: +0.125672737  nElectrons: 353.000000  magneticMoment: [ Abs: 33.72309  Tot: +0.00000 ]
	SubspaceRotationAdjust: set factor to 0.155
ElecMinimize: Iter:  32  F: -2100.496183405209194  |grad|_K:  1.310e-05  alpha:  1.429e-01  linmin:  2.291e-04  t[s]:   3117.33
	FillingsUpdate:  mu: +0.120696629  nElectrons: 353.000000  magneticMoment: [ Abs: 33.79775  Tot: -0.00000 ]
	SubspaceRotationAdjust: set factor to 0.214
ElecMinimize: Iter:  33  F: -2100.498660025339632  |grad|_K:  1.152e-05  alpha:  8.632e-02  linmin: -3.008e-05  t[s]:   3193.61
	FillingsUpdate:  mu: +0.121283952  nElectrons: 353.000000  magneticMoment: [ Abs: 33.87746  Tot: -0.00000 ]
	SubspaceRotationAdjust: set factor to 0.225
ElecMinimize: Iter:  34  F: -2100.500503150241457  |grad|_K:  1.114e-05  alpha:  7.855e-02  linmin:  1.788e-05  t[s]:   3269.92
	FillingsUpdate:  mu: +0.121450386  nElectrons: 353.000000  magneticMoment: [ Abs: 33.95320  Tot: +0.00000 ]
	SubspaceRotationAdjust: set factor to 0.19
ElecMinimize: Iter:  35  F: -2100.502206724321240  |grad|_K:  1.107e-05  alpha:  7.882e-02  linmin:  4.540e-05  t[s]:   3348.21
	FillingsUpdate:  mu: +0.118841452  nElectrons: 353.000000  magneticMoment: [ Abs: 34.00717  Tot: -0.00000 ]
	SubspaceRotationAdjust: set factor to 0.185
ElecMinimize: Iter:  36  F: -2100.503547112890828  |grad|_K:  9.613e-06  alpha:  6.295e-02  linmin:  1.609e-05  t[s]:   3425.37
	FillingsUpdate:  mu: +0.118253296  nElectrons: 353.000000  magneticMoment: [ Abs: 34.07024  Tot: -0.00000 ]
	SubspaceRotationAdjust: set factor to 0.156
ElecMinimize: Iter:  37  F: -2100.504798554192803  |grad|_K:  1.002e-05  alpha:  7.790e-02  linmin:  4.399e-05  t[s]:   3503.45
	FillingsUpdate:  mu: +0.117626939  nElectrons: 353.000000  magneticMoment: [ Abs: 34.16147  Tot: +0.00000 ]
	SubspaceRotationAdjust: set factor to 0.131
ElecMinimize: Iter:  38  F: -2100.506129025679911  |grad|_K:  9.493e-06  alpha:  7.633e-02  linmin:  1.764e-05  t[s]:   3582.24
	FillingsUpdate:  mu: +0.116656609  nElectrons: 353.000000  magneticMoment: [ Abs: 34.25718  Tot: -0.00000 ]
	SubspaceRotationAdjust: set factor to 0.122
ElecMinimize: Iter:  39  F: -2100.507309269959023  |grad|_K:  8.427e-06  alpha:  7.512e-02  linmin: -4.383e-05  t[s]:   3652.16
	FillingsUpdate:  mu: +0.118726308  nElectrons: 353.000000  magneticMoment: [ Abs: 34.35240  Tot: -0.00000 ]
	SubspaceRotationAdjust: set factor to 0.109
ElecMinimize: Iter:  40  F: -2100.508441471120022  |grad|_K:  8.285e-06  alpha:  9.043e-02  linmin: -8.389e-05  t[s]:   3730.36
	FillingsUpdate:  mu: +0.119436769  nElectrons: 353.000000  magneticMoment: [ Abs: 34.45031  Tot: -0.00000 ]
	SubspaceRotationAdjust: set factor to 0.0987
ElecMinimize: Iter:  41  F: -2100.509687898200355  |grad|_K:  8.286e-06  alpha:  1.026e-01  linmin: -1.067e-04  t[s]:   3806.56
	FillingsUpdate:  mu: +0.117602856  nElectrons: 353.000000  magneticMoment: [ Abs: 34.54461  Tot: +0.00000 ]
	SubspaceRotationAdjust: set factor to 0.103
ElecMinimize: Iter:  42  F: -2100.510995851402186  |grad|_K:  8.017e-06  alpha:  1.074e-01  linmin: -1.598e-04  t[s]:   3883.43
	FillingsUpdate:  mu: +0.115101359  nElectrons: 353.000000  magneticMoment: [ Abs: 34.64003  Tot: +0.00000 ]
	SubspaceRotationAdjust: set factor to 0.115
ElecMinimize: Iter:  43  F: -2100.512347844857231  |grad|_K:  8.140e-06  alpha:  1.176e-01  linmin: -2.371e-04  t[s]:   3960.28
	FillingsUpdate:  mu: +0.114747933  nElectrons: 353.000000  magneticMoment: [ Abs: 34.75308  Tot: +0.00000 ]
	SubspaceRotationAdjust: set factor to 0.136
ElecMinimize: Iter:  44  F: -2100.513873252472422  |grad|_K:  8.780e-06  alpha:  1.274e-01  linmin: -2.551e-04  t[s]:   4037.00
	FillingsUpdate:  mu: +0.115107095  nElectrons: 353.000000  magneticMoment: [ Abs: 34.88964  Tot: -0.00000 ]
	SubspaceRotationAdjust: set factor to 0.182
ElecMinimize: Iter:  45  F: -2100.515607128210377  |grad|_K:  9.522e-06  alpha:  1.241e-01  linmin: -2.421e-04  t[s]:   4112.50
	FillingsUpdate:  mu: +0.116552134  nElectrons: 353.000000  magneticMoment: [ Abs: 35.03773  Tot: -0.00000 ]
	SubspaceRotationAdjust: set factor to 0.238
ElecMinimize: Iter:  46  F: -2100.517451555894695  |grad|_K:  1.029e-05  alpha:  1.120e-01  linmin: -2.468e-04  t[s]:   4189.77
	FillingsUpdate:  mu: +0.117573179  nElectrons: 353.000000  magneticMoment: [ Abs: 35.18727  Tot: +0.00000 ]
	SubspaceRotationAdjust: set factor to 0.301
ElecMinimize: Iter:  47  F: -2100.519386092564218  |grad|_K:  1.104e-05  alpha:  1.003e-01  linmin: -2.441e-04  t[s]:   4264.32
	FillingsUpdate:  mu: +0.117107988  nElectrons: 353.000000  magneticMoment: [ Abs: 35.32832  Tot: -0.00000 ]
	SubspaceRotationAdjust: set factor to 0.401
ElecMinimize: Iter:  48  F: -2100.521375535543939  |grad|_K:  1.137e-05  alpha:  8.964e-02  linmin: -2.233e-04  t[s]:   4341.71
	FillingsUpdate:  mu: +0.116303251  nElectrons: 353.000000  magneticMoment: [ Abs: 35.45807  Tot: -0.00000 ]
	SubspaceRotationAdjust: set factor to 0.526
ElecMinimize: Iter:  49  F: -2100.523348477737727  |grad|_K:  1.161e-05  alpha:  8.378e-02  linmin: -2.109e-04  t[s]:   4416.77
	FillingsUpdate:  mu: +0.117029730  nElectrons: 353.000000  magneticMoment: [ Abs: 35.58907  Tot: -0.00000 ]
	SubspaceRotationAdjust: set factor to 0.678
ElecMinimize: Iter:  50  F: -2100.525407298138362  |grad|_K:  1.187e-05  alpha:  8.351e-02  linmin: -1.824e-04  t[s]:   4494.08
	FillingsUpdate:  mu: +0.117837665  nElectrons: 353.000000  magneticMoment: [ Abs: 35.71735  Tot: +0.00000 ]
	SubspaceRotationAdjust: set factor to 0.868
ElecMinimize: Iter:  51  F: -2100.527495355443989  |grad|_K:  1.191e-05  alpha:  8.145e-02  linmin: -1.283e-04  t[s]:   4568.75
	FillingsUpdate:  mu: +0.119695099  nElectrons: 353.000000  magneticMoment: [ Abs: 35.83406  Tot: +0.00000 ]
	SubspaceRotationAdjust: set factor to 1.1
	SubspaceRotationAdjust: resetting CG because factor has changed by 9.25446
ElecMinimize: 	State modified externally: resetting search direction.
ElecMinimize: Iter:  52  F: -2100.529593083509099  |grad|_K:  1.277e-05  alpha:  8.185e-02
ElecMinimize: 	Predicted alpha/alphaT>3.000000, increasing alphaT to 2.455386e-01.
	FillingsUpdate:  mu: +0.121592862  nElectrons: 353.000000  magneticMoment: [ Abs: 35.73741  Tot: -0.00000 ]
	SubspaceRotationAdjust: set factor to 0.918
ElecMinimize: Iter:  53  F: -2100.542258753192073  |grad|_K:  1.579e-05  alpha:  4.266e-01  linmin: -6.422e-04  t[s]:   4762.10
	FillingsUpdate:  mu: +0.122795695  nElectrons: 353.000000  magneticMoment: [ Abs: 35.74484  Tot: +0.00000 ]
	SubspaceRotationAdjust: set factor to 0.598
ElecMinimize: Iter:  54  F: -2100.546980233997147  |grad|_K:  1.296e-05  alpha:  9.446e-02  linmin: -5.413e-04  t[s]:   4838.05
	FillingsUpdate:  mu: +0.128736999  nElectrons: 353.000000  magneticMoment: [ Abs: 35.78117  Tot: +0.00000 ]
	SubspaceRotationAdjust: set factor to 0.416
ElecMinimize: Iter:  55  F: -2100.552782586761168  |grad|_K:  1.394e-05  alpha:  2.169e-01  linmin:  3.002e-03  t[s]:   4913.71
	FillingsUpdate:  mu: +0.124845222  nElectrons: 353.000000  magneticMoment: [ Abs: 35.80848  Tot: -0.00000 ]
	SubspaceRotationAdjust: set factor to 0.46
ElecMinimize: Iter:  56  F: -2100.555037381298007  |grad|_K:  1.173e-05  alpha:  1.108e-01  linmin:  1.752e-05  t[s]:   4989.82
	FillingsUpdate:  mu: +0.120106704  nElectrons: 353.000000  magneticMoment: [ Abs: 35.80585  Tot: +0.00000 ]
	SubspaceRotationAdjust: set factor to 0.403
ElecMinimize: Iter:  57  F: -2100.557502686451699  |grad|_K:  7.748e-06  alpha:  1.028e-01  linmin: -5.040e-05  t[s]:   5063.07
	FillingsUpdate:  mu: +0.119583183  nElectrons: 353.000000  magneticMoment: [ Abs: 35.79464  Tot: -0.00000 ]
	SubspaceRotationAdjust: set factor to 0.453
ElecMinimize: Iter:  58  F: -2100.558985216854580  |grad|_K:  5.404e-06  alpha:  1.411e-01  linmin:  2.472e-04  t[s]:   5139.89
	FillingsUpdate:  mu: +0.119472968  nElectrons: 353.000000  magneticMoment: [ Abs: 35.80328  Tot: +0.00000 ]
	SubspaceRotationAdjust: set factor to 0.39
ElecMinimize: Iter:  59  F: -2100.559645019519394  |grad|_K:  5.382e-06  alpha:  1.299e-01  linmin:  7.455e-04  t[s]:   5217.52
	FillingsUpdate:  mu: +0.119592886  nElectrons: 353.000000  magneticMoment: [ Abs: 35.84583  Tot: -0.00000 ]
	SubspaceRotationAdjust: set factor to 0.404
ElecMinimize: Iter:  60  F: -2100.560400254794331  |grad|_K:  4.345e-06  alpha:  1.538e-01  linmin: -6.398e-05  t[s]:   5293.72
	FillingsUpdate:  mu: +0.120176295  nElectrons: 353.000000  magneticMoment: [ Abs: 35.87423  Tot: +0.00000 ]
	SubspaceRotationAdjust: set factor to 0.355
ElecMinimize: Iter:  61  F: -2100.560836736817691  |grad|_K:  4.380e-06  alpha:  1.319e-01  linmin: -3.277e-05  t[s]:   5369.37
	FillingsUpdate:  mu: +0.118548714  nElectrons: 353.000000  magneticMoment: [ Abs: 35.92347  Tot: +0.00000 ]
	SubspaceRotationAdjust: set factor to 0.513
ElecMinimize: Iter:  62  F: -2100.561491029149238  |grad|_K:  3.824e-06  alpha:  1.942e-01  linmin: -8.491e-06  t[s]:   5445.64
	FillingsUpdate:  mu: +0.119516407  nElectrons: 353.000000  magneticMoment: [ Abs: 35.96499  Tot: +0.00000 ]
	SubspaceRotationAdjust: set factor to 0.407
ElecMinimize: Iter:  63  F: -2100.561858226800268  |grad|_K:  4.406e-06  alpha:  1.412e-01  linmin:  3.172e-05  t[s]:   5520.77
	FillingsUpdate:  mu: +0.118956122  nElectrons: 353.000000  magneticMoment: [ Abs: 36.04947  Tot: +0.00000 ]
	SubspaceRotationAdjust: set factor to 0.517
ElecMinimize: Iter:  64  F: -2100.562373236982239  |grad|_K:  3.210e-06  alpha:  1.528e-01  linmin:  7.522e-05  t[s]:   5597.17
	FillingsUpdate:  mu: +0.120510242  nElectrons: 353.000000  magneticMoment: [ Abs: 36.12561  Tot: -0.00000 ]
	SubspaceRotationAdjust: set factor to 0.368
ElecMinimize: Iter:  65  F: -2100.562755142045262  |grad|_K:  4.360e-06  alpha:  2.178e-01  linmin:  1.585e-04  t[s]:   5672.40
	FillingsUpdate:  mu: +0.118676459  nElectrons: 353.000000  magneticMoment: [ Abs: 36.17654  Tot: -0.00000 ]
	SubspaceRotationAdjust: set factor to 0.322
ElecMinimize: Iter:  66  F: -2100.563021368000136  |grad|_K:  3.067e-06  alpha:  7.951e-02  linmin: -1.259e-04  t[s]:   5749.76
ElecMinimize: 	Predicted alpha/alphaT>3.000000, increasing alphaT to 2.385302e-01.
	FillingsUpdate:  mu: +0.120066925  nElectrons: 353.000000  magneticMoment: [ Abs: 36.26485  Tot: +0.00000 ]
	SubspaceRotationAdjust: set factor to 0.372
ElecMinimize: Iter:  67  F: -2100.563440204665312  |grad|_K:  3.474e-06  alpha:  2.481e-01  linmin:  5.856e-05  t[s]:   5855.83
	FillingsUpdate:  mu: +0.119844552  nElectrons: 353.000000  magneticMoment: [ Abs: 36.31650  Tot: +0.00000 ]
	SubspaceRotationAdjust: set factor to 0.368
ElecMinimize: Iter:  68  F: -2100.563661324107215  |grad|_K:  3.534e-06  alpha:  8.347e-02  linmin: -1.034e-03  t[s]:   5931.01
	FillingsUpdate:  mu: +0.121071110  nElectrons: 353.000000  magneticMoment: [ Abs: 36.45633  Tot: +0.00000 ]
	SubspaceRotationAdjust: set factor to 0.244
ElecMinimize: Iter:  69  F: -2100.564160250397435  |grad|_K:  5.329e-06  alpha:  1.960e-01  linmin:  4.619e-04  t[s]:   6009.56
	FillingsUpdate:  mu: +0.117372553  nElectrons: 353.000000  magneticMoment: [ Abs: 36.53955  Tot: +0.00000 ]
	SubspaceRotationAdjust: set factor to 0.295
ElecMinimize: Iter:  70  F: -2100.564395520048492  |grad|_K:  3.951e-06  alpha:  5.907e-02  linmin:  3.196e-04  t[s]:   6082.42
	FillingsUpdate:  mu: +0.121476256  nElectrons: 353.000000  magneticMoment: [ Abs: 36.64292  Tot: -0.00000 ]
	SubspaceRotationAdjust: set factor to 0.22
ElecMinimize: Iter:  71  F: -2100.564773868957673  |grad|_K:  5.590e-06  alpha:  1.426e-01  linmin: -4.397e-04  t[s]:   6160.75
	FillingsUpdate:  mu: +0.117552441  nElectrons: 353.000000  magneticMoment: [ Abs: 36.75798  Tot: -0.00000 ]
	SubspaceRotationAdjust: set factor to 0.259
ElecMinimize: Iter:  72  F: -2100.565267269428205  |grad|_K:  3.129e-06  alpha:  7.086e-02  linmin: -5.889e-04  t[s]:   6238.32
	FillingsUpdate:  mu: +0.121809624  nElectrons: 353.000000  magneticMoment: [ Abs: 36.84414  Tot: +0.00000 ]
	SubspaceRotationAdjust: set factor to 0.171
ElecMinimize: Iter:  73  F: -2100.565571440251915  |grad|_K:  5.036e-06  alpha:  1.702e-01  linmin:  6.873e-04  t[s]:   6315.61
	FillingsUpdate:  mu: +0.120278655  nElectrons: 353.000000  magneticMoment: [ Abs: 36.90646  Tot: +0.00000 ]
	SubspaceRotationAdjust: set factor to 0.249
ElecMinimize: Iter:  74  F: -2100.565842705413161  |grad|_K:  3.759e-06  alpha:  6.676e-02  linmin: -5.705e-05  t[s]:   6391.76
	FillingsUpdate:  mu: +0.121780025  nElectrons: 353.000000  magneticMoment: [ Abs: 36.94346  Tot: +0.00000 ]
	SubspaceRotationAdjust: set factor to 0.213
ElecMinimize: Iter:  75  F: -2100.566065889936453  |grad|_K:  4.481e-06  alpha:  8.917e-02  linmin: -8.576e-05  t[s]:   6468.12
	FillingsUpdate:  mu: +0.120664582  nElectrons: 353.000000  magneticMoment: [ Abs: 37.04911  Tot: +0.00000 ]
	SubspaceRotationAdjust: set factor to 0.234
ElecMinimize: Iter:  76  F: -2100.566522505475859  |grad|_K:  3.920e-06  alpha:  1.281e-01  linmin: -4.773e-05  t[s]:   6545.12
	FillingsUpdate:  mu: +0.119210093  nElectrons: 353.000000  magneticMoment: [ Abs: 37.10739  Tot: +0.00000 ]
	SubspaceRotationAdjust: set factor to 0.214
ElecMinimize: Iter:  77  F: -2100.566715099169869  |grad|_K:  3.639e-06  alpha:  6.915e-02  linmin: -8.774e-05  t[s]:   6623.62
	FillingsUpdate:  mu: +0.121349134  nElectrons: 353.000000  magneticMoment: [ Abs: 37.18645  Tot: +0.00000 ]
	SubspaceRotationAdjust: set factor to 0.158
ElecMinimize: Iter:  78  F: -2100.567033007959708  |grad|_K:  4.159e-06  alpha:  1.357e-01  linmin:  2.873e-05  t[s]:   6694.61
	FillingsUpdate:  mu: +0.118403867  nElectrons: 353.000000  magneticMoment: [ Abs: 37.21508  Tot: -0.00000 ]
	SubspaceRotationAdjust: set factor to 0.188
ElecMinimize: Iter:  79  F: -2100.567230772291168  |grad|_K:  2.833e-06  alpha:  7.040e-02  linmin:  1.943e-04  t[s]:   6769.11
	FillingsUpdate:  mu: +0.120618342  nElectrons: 353.000000  magneticMoment: [ Abs: 37.24486  Tot: +0.00000 ]
	SubspaceRotationAdjust: set factor to 0.165
ElecMinimize: Iter:  80  F: -2100.567468022763478  |grad|_K:  3.355e-06  alpha:  1.669e-01  linmin: -4.876e-04  t[s]:   6847.07
	FillingsUpdate:  mu: +0.119133704  nElectrons: 353.000000  magneticMoment: [ Abs: 37.28682  Tot: -0.00000 ]
	SubspaceRotationAdjust: set factor to 0.162
ElecMinimize: Iter:  81  F: -2100.567674982429253  |grad|_K:  2.448e-06  alpha:  9.499e-02  linmin: -5.666e-05  t[s]:   6922.51
	FillingsUpdate:  mu: +0.121298051  nElectrons: 353.000000  magneticMoment: [ Abs: 37.31776  Tot: -0.00000 ]
	SubspaceRotationAdjust: set factor to 0.148
	SubspaceRotationAdjust: resetting CG because factor has changed by 0.134872
ElecMinimize: 	State modified externally: resetting search direction.
ElecMinimize: Iter:  82  F: -2100.567867589883917  |grad|_K:  2.760e-06  alpha:  1.841e-01
	FillingsUpdate:  mu: +0.120257364  nElectrons: 353.000000  magneticMoment: [ Abs: 37.29774  Tot: -0.00000 ]
	SubspaceRotationAdjust: set factor to 0.123
ElecMinimize: Iter:  83  F: -2100.568021718477667  |grad|_K:  1.854e-06  alpha:  1.162e-01  linmin:  5.260e-05  t[s]:   7090.70
	FillingsUpdate:  mu: +0.118947226  nElectrons: 353.000000  magneticMoment: [ Abs: 37.30837  Tot: +0.00000 ]
	SubspaceRotationAdjust: set factor to 0.128
ElecMinimize: Iter:  84  F: -2100.568192738817288  |grad|_K:  1.539e-06  alpha:  2.849e-01  linmin:  7.813e-06  t[s]:   7170.68
	FillingsUpdate:  mu: +0.118718786  nElectrons: 353.000000  magneticMoment: [ Abs: 37.30047  Tot: -0.00000 ]
	SubspaceRotationAdjust: set factor to 0.157
ElecMinimize: Iter:  85  F: -2100.568396086982375  |grad|_K:  1.581e-06  alpha:  4.911e-01  linmin: -8.850e-06  t[s]:   7247.80
	FillingsUpdate:  mu: +0.120099711  nElectrons: 353.000000  magneticMoment: [ Abs: 37.27950  Tot: -0.00000 ]
	SubspaceRotationAdjust: set factor to 0.155
ElecMinimize: Iter:  86  F: -2100.568574143495880  |grad|_K:  1.655e-06  alpha:  4.069e-01  linmin:  1.044e-06  t[s]:   7325.27
	FillingsUpdate:  mu: +0.120450270  nElectrons: 353.000000  magneticMoment: [ Abs: 37.28630  Tot: +0.00000 ]
	SubspaceRotationAdjust: set factor to 0.118
ElecMinimize: Iter:  87  F: -2100.568667308648855  |grad|_K:  1.726e-06  alpha:  1.925e-01  linmin: -5.565e-05  t[s]:   7403.16
	FillingsUpdate:  mu: +0.119560144  nElectrons: 353.000000  magneticMoment: [ Abs: 37.26473  Tot: -0.00000 ]
	SubspaceRotationAdjust: set factor to 0.122
ElecMinimize: Iter:  88  F: -2100.568804983325208  |grad|_K:  1.288e-06  alpha:  2.621e-01  linmin: -5.458e-05  t[s]:   7481.67
	FillingsUpdate:  mu: +0.119689169  nElectrons: 353.000000  magneticMoment: [ Abs: 37.24806  Tot: +0.00000 ]
	SubspaceRotationAdjust: set factor to 0.136
ElecMinimize: Iter:  89  F: -2100.568942527331274  |grad|_K:  1.315e-06  alpha:  4.699e-01  linmin: -2.146e-05  t[s]:   7558.43
	FillingsUpdate:  mu: +0.120505849  nElectrons: 353.000000  magneticMoment: [ Abs: 37.24883  Tot: -0.00000 ]
	SubspaceRotationAdjust: set factor to 0.107
ElecMinimize: Iter:  90  F: -2100.569029172079354  |grad|_K:  1.376e-06  alpha:  2.824e-01  linmin: -2.726e-05  t[s]:   7635.84
	FillingsUpdate:  mu: +0.119808330  nElectrons: 353.000000  magneticMoment: [ Abs: 37.23204  Tot: -0.00000 ]
	SubspaceRotationAdjust: set factor to 0.0809
ElecMinimize: Iter:  91  F: -2100.569089589286250  |grad|_K:  9.437e-07  alpha:  1.830e-01  linmin:  3.845e-06  t[s]:   7713.78
	FillingsUpdate:  mu: +0.119815698  nElectrons: 353.000000  magneticMoment: [ Abs: 37.22433  Tot: -0.00000 ]
	SubspaceRotationAdjust: set factor to 0.0943
ElecMinimize: Iter:  92  F: -2100.569156778212800  |grad|_K:  9.659e-07  alpha:  4.319e-01  linmin:  1.399e-05  t[s]:   7790.06
	FillingsUpdate:  mu: +0.120053839  nElectrons: 353.000000  magneticMoment: [ Abs: 37.22291  Tot: +0.00000 ]
	SubspaceRotationAdjust: set factor to 0.0897
ElecMinimize: Iter:  93  F: -2100.569212221028920  |grad|_K:  9.290e-07  alpha:  3.390e-01  linmin:  3.281e-05  t[s]:   7867.92
	FillingsUpdate:  mu: +0.119894745  nElectrons: 353.000000  magneticMoment: [ Abs: 37.21076  Tot: +0.00000 ]
	SubspaceRotationAdjust: set factor to 0.0727
ElecMinimize: Iter:  94  F: -2100.569260475280316  |grad|_K:  7.933e-07  alpha:  3.210e-01  linmin: -6.796e-05  t[s]:   7943.75
	FillingsUpdate:  mu: +0.119709703  nElectrons: 353.000000  magneticMoment: [ Abs: 37.21114  Tot: -0.00000 ]
	SubspaceRotationAdjust: set factor to 0.0753
ElecMinimize: Iter:  95  F: -2100.569292077324917  |grad|_K:  6.138e-07  alpha:  2.852e-01  linmin:  3.852e-05  t[s]:   8020.09
	FillingsUpdate:  mu: +0.119735093  nElectrons: 353.000000  magneticMoment: [ Abs: 37.21064  Tot: -0.00000 ]
	SubspaceRotationAdjust: set factor to 0.0889
ElecMinimize: Iter:  96  F: -2100.569314779101660  |grad|_K:  5.413e-07  alpha:  3.456e-01  linmin:  1.803e-05  t[s]:   8097.17
	FillingsUpdate:  mu: +0.119755456  nElectrons: 353.000000  magneticMoment: [ Abs: 37.20689  Tot: -0.00000 ]
	SubspaceRotationAdjust: set factor to 0.0849
ElecMinimize: Iter:  97  F: -2100.569332587775989  |grad|_K:  5.308e-07  alpha:  3.479e-01  linmin: -4.291e-05  t[s]:   8173.96
	FillingsUpdate:  mu: +0.119733815  nElectrons: 353.000000  magneticMoment: [ Abs: 37.21133  Tot: -0.00000 ]
	SubspaceRotationAdjust: set factor to 0.0817
ElecMinimize: Iter:  98  F: -2100.569352943986360  |grad|_K:  5.771e-07  alpha:  4.126e-01  linmin:  4.567e-05  t[s]:   8252.87
	FillingsUpdate:  mu: +0.119689910  nElectrons: 353.000000  magneticMoment: [ Abs: 37.21174  Tot: -0.00000 ]
	SubspaceRotationAdjust: set factor to 0.0916
ElecMinimize: Iter:  99  F: -2100.569376184635530  |grad|_K:  5.841e-07  alpha:  4.004e-01  linmin: -1.252e-05  t[s]:   8324.67
	FillingsUpdate:  mu: +0.119689523  nElectrons: 353.000000  magneticMoment: [ Abs: 37.21246  Tot: -0.00000 ]
	SubspaceRotationAdjust: set factor to 0.0987
ElecMinimize: Iter: 100  F: -2100.569400600273184  |grad|_K:  6.110e-07  alpha:  4.087e-01  linmin: -1.519e-05  t[s]:   8401.73
	FillingsUpdate:  mu: +0.119694099  nElectrons: 353.000000  magneticMoment: [ Abs: 37.22084  Tot: +0.00000 ]
	SubspaceRotationAdjust: set factor to 0.0902
ElecMinimize: Iter: 101  F: -2100.569426175095941  |grad|_K:  6.917e-07  alpha:  3.909e-01  linmin:  2.788e-05  t[s]:   8480.12
	FillingsUpdate:  mu: +0.119480679  nElectrons: 353.000000  magneticMoment: [ Abs: 37.22198  Tot: -0.00000 ]
	SubspaceRotationAdjust: set factor to 0.0803
ElecMinimize: Iter: 102  F: -2100.569455497824038  |grad|_K:  6.812e-07  alpha:  3.520e-01  linmin: -2.352e-05  t[s]:   8557.92
	FillingsUpdate:  mu: +0.119329939  nElectrons: 353.000000  magneticMoment: [ Abs: 37.23089  Tot: +0.00000 ]
	SubspaceRotationAdjust: set factor to 0.0902
ElecMinimize: Iter: 103  F: -2100.569488237290443  |grad|_K:  6.953e-07  alpha:  4.021e-01  linmin:  5.918e-06  t[s]:   8634.84
	FillingsUpdate:  mu: +0.119423025  nElectrons: 353.000000  magneticMoment: [ Abs: 37.24131  Tot: -0.00000 ]
	SubspaceRotationAdjust: set factor to 0.0977
ElecMinimize: Iter: 104  F: -2100.569521931612599  |grad|_K:  7.010e-07  alpha:  3.989e-01  linmin:  2.282e-06  t[s]:   8709.30
	FillingsUpdate:  mu: +0.119626437  nElectrons: 353.000000  magneticMoment: [ Abs: 37.24444  Tot: -0.00000 ]
	SubspaceRotationAdjust: set factor to 0.0904
ElecMinimize: Iter: 105  F: -2100.569554794504256  |grad|_K:  7.692e-07  alpha:  3.826e-01  linmin: -6.949e-06  t[s]:   8787.38
	FillingsUpdate:  mu: +0.119542368  nElectrons: 353.000000  magneticMoment: [ Abs: 37.25992  Tot: -0.00000 ]
	SubspaceRotationAdjust: set factor to 0.084
ElecMinimize: Iter: 106  F: -2100.569593959070517  |grad|_K:  7.832e-07  alpha:  3.781e-01  linmin: -1.369e-05  t[s]:   8864.77
	FillingsUpdate:  mu: +0.119523919  nElectrons: 353.000000  magneticMoment: [ Abs: 37.27037  Tot: +0.00000 ]
	SubspaceRotationAdjust: set factor to 0.0921
ElecMinimize: Iter: 107  F: -2100.569636767032534  |grad|_K:  7.599e-07  alpha:  3.980e-01  linmin:  5.837e-06  t[s]:   8939.91
	FillingsUpdate:  mu: +0.119674139  nElectrons: 353.000000  magneticMoment: [ Abs: 37.27916  Tot: -0.00000 ]
	SubspaceRotationAdjust: set factor to 0.099
ElecMinimize: Iter: 108  F: -2100.569674412458880  |grad|_K:  7.191e-07  alpha:  3.731e-01  linmin:  6.919e-06  t[s]:   9017.80
	FillingsUpdate:  mu: +0.119732363  nElectrons: 353.000000  magneticMoment: [ Abs: 37.29368  Tot: -0.00000 ]
	SubspaceRotationAdjust: set factor to 0.0918
ElecMinimize: Iter: 109  F: -2100.569707020985334  |grad|_K:  7.169e-07  alpha:  3.611e-01  linmin: -3.267e-05  t[s]:   9092.38
	FillingsUpdate:  mu: +0.119718825  nElectrons: 353.000000  magneticMoment: [ Abs: 37.29791  Tot: -0.00000 ]
	SubspaceRotationAdjust: set factor to 0.0871
ElecMinimize: Iter: 110  F: -2100.569738519167004  |grad|_K:  6.735e-07  alpha:  3.489e-01  linmin:  2.668e-06  t[s]:   9165.88
	FillingsUpdate:  mu: +0.119658628  nElectrons: 353.000000  magneticMoment: [ Abs: 37.30777  Tot: +0.00000 ]
	SubspaceRotationAdjust: set factor to 0.0975
ElecMinimize: Iter: 111  F: -2100.569770573976257  |grad|_K:  6.955e-07  alpha:  4.041e-01  linmin: -1.002e-05  t[s]:   9239.88
	FillingsUpdate:  mu: +0.119706765  nElectrons: 353.000000  magneticMoment: [ Abs: 37.31747  Tot: -0.00000 ]
	SubspaceRotationAdjust: set factor to 0.107
ElecMinimize: Iter: 112  F: -2100.569806239777336  |grad|_K:  7.342e-07  alpha:  4.210e-01  linmin: -6.368e-06  t[s]:   9316.21
	FillingsUpdate:  mu: +0.119877642  nElectrons: 353.000000  magneticMoment: [ Abs: 37.31911  Tot: +0.00000 ]
	SubspaceRotationAdjust: set factor to 0.102
ElecMinimize: Iter: 113  F: -2100.569842297835748  |grad|_K:  7.602e-07  alpha:  3.823e-01  linmin: -1.086e-05  t[s]:   9395.57
	FillingsUpdate:  mu: +0.119886541  nElectrons: 353.000000  magneticMoment: [ Abs: 37.32969  Tot: -0.00000 ]
	SubspaceRotationAdjust: set factor to 0.0924
ElecMinimize: Iter: 114  F: -2100.569877995299066  |grad|_K:  7.815e-07  alpha:  3.529e-01  linmin: -1.563e-05  t[s]:   9472.48
	FillingsUpdate:  mu: +0.119864950  nElectrons: 353.000000  magneticMoment: [ Abs: 37.33116  Tot: -0.00000 ]
	SubspaceRotationAdjust: set factor to 0.0988
ElecMinimize: Iter: 115  F: -2100.569919579784255  |grad|_K:  7.671e-07  alpha:  3.885e-01  linmin: -4.250e-06  t[s]:   9545.94
	FillingsUpdate:  mu: +0.119869644  nElectrons: 353.000000  magneticMoment: [ Abs: 37.33470  Tot: -0.00000 ]
	SubspaceRotationAdjust: set factor to 0.111
ElecMinimize: Iter: 116  F: -2100.569962325675078  |grad|_K:  7.623e-07  alpha:  4.151e-01  linmin: -3.579e-07  t[s]:   9621.60
	FillingsUpdate:  mu: +0.119895451  nElectrons: 353.000000  magneticMoment: [ Abs: 37.34363  Tot: +0.00000 ]
	SubspaceRotationAdjust: set factor to 0.105
ElecMinimize: Iter: 117  F: -2100.569999999773700  |grad|_K:  7.778e-07  alpha:  3.707e-01  linmin: -1.107e-06  t[s]:   9700.41
	FillingsUpdate:  mu: +0.119774517  nElectrons: 353.000000  magneticMoment: [ Abs: 37.34063  Tot: +0.00000 ]
	SubspaceRotationAdjust: set factor to 0.0899
ElecMinimize: Iter: 118  F: -2100.570034643099916  |grad|_K:  7.385e-07  alpha:  3.277e-01  linmin: -1.323e-05  t[s]:   9773.27
	FillingsUpdate:  mu: +0.119618955  nElectrons: 353.000000  magneticMoment: [ Abs: 37.34653  Tot: +0.00000 ]
	SubspaceRotationAdjust: set factor to 0.0917
ElecMinimize: Iter: 119  F: -2100.570069821359539  |grad|_K:  6.876e-07  alpha:  3.680e-01  linmin:  6.100e-06  t[s]:   9849.70
	FillingsUpdate:  mu: +0.119655780  nElectrons: 353.000000  magneticMoment: [ Abs: 37.34892  Tot: -0.00000 ]
	SubspaceRotationAdjust: set factor to 0.104
ElecMinimize: Iter: 120  F: -2100.570098963372402  |grad|_K:  6.004e-07  alpha:  3.529e-01  linmin:  2.505e-06  t[s]:   9925.38
	FillingsUpdate:  mu: +0.119746305  nElectrons: 353.000000  magneticMoment: [ Abs: 37.34673  Tot: -0.00000 ]
	SubspaceRotationAdjust: set factor to 0.102
ElecMinimize: Iter: 121  F: -2100.570120933973612  |grad|_K:  5.399e-07  alpha:  3.486e-01  linmin: -1.121e-05  t[s]:  10002.03
	FillingsUpdate:  mu: +0.119744096  nElectrons: 353.000000  magneticMoment: [ Abs: 37.35215  Tot: -0.00000 ]
	SubspaceRotationAdjust: set factor to 0.0956
ElecMinimize: Iter: 122  F: -2100.570138026038421  |grad|_K:  5.123e-07  alpha:  3.347e-01  linmin:  1.912e-06  t[s]:  10079.83
	FillingsUpdate:  mu: +0.119660772  nElectrons: 353.000000  magneticMoment: [ Abs: 37.35113  Tot: +0.00000 ]
	SubspaceRotationAdjust: set factor to 0.105
ElecMinimize: Iter: 123  F: -2100.570155081623398  |grad|_K:  4.642e-07  alpha:  3.717e-01  linmin: -7.747e-06  t[s]:  10156.18
	FillingsUpdate:  mu: +0.119658937  nElectrons: 353.000000  magneticMoment: [ Abs: 37.35082  Tot: +0.00000 ]
	SubspaceRotationAdjust: set factor to 0.12
ElecMinimize: Iter: 124  F: -2100.570169676233490  |grad|_K:  4.496e-07  alpha:  3.868e-01  linmin: -8.553e-07  t[s]:  10229.43
	FillingsUpdate:  mu: +0.119720706  nElectrons: 353.000000  magneticMoment: [ Abs: 37.35335  Tot: -0.00000 ]
	SubspaceRotationAdjust: set factor to 0.12
ElecMinimize: Iter: 125  F: -2100.570182796045174  |grad|_K:  4.629e-07  alpha:  3.711e-01  linmin: -1.242e-06  t[s]:  10305.35
	FillingsUpdate:  mu: +0.119712888  nElectrons: 353.000000  magneticMoment: [ Abs: 37.34859  Tot: -0.00000 ]
	SubspaceRotationAdjust: set factor to 0.105
ElecMinimize: Iter: 126  F: -2100.570195017050082  |grad|_K:  4.660e-07  alpha:  3.260e-01  linmin:  1.744e-06  t[s]:  10379.68
	FillingsUpdate:  mu: +0.119646757  nElectrons: 353.000000  magneticMoment: [ Abs: 37.35022  Tot: +0.00000 ]
	SubspaceRotationAdjust: set factor to 0.106
ElecMinimize: Iter: 127  F: -2100.570208770955105  |grad|_K:  4.564e-07  alpha:  3.622e-01  linmin: -5.690e-06  t[s]:  10455.59
	FillingsUpdate:  mu: +0.119627565  nElectrons: 353.000000  magneticMoment: [ Abs: 37.34821  Tot: -0.00000 ]
	SubspaceRotationAdjust: set factor to 0.12
ElecMinimize: Iter: 128  F: -2100.570223985561370  |grad|_K:  4.602e-07  alpha:  4.172e-01  linmin:  3.258e-07  t[s]:  10531.05
	FillingsUpdate:  mu: +0.119705951  nElectrons: 353.000000  magneticMoment: [ Abs: 37.34301  Tot: +0.00000 ]
	SubspaceRotationAdjust: set factor to 0.124
ElecMinimize: Iter: 129  F: -2100.570239407250028  |grad|_K:  5.053e-07  alpha:  4.164e-01  linmin:  9.172e-06  t[s]:  10608.41
	FillingsUpdate:  mu: +0.119738264  nElectrons: 353.000000  magneticMoment: [ Abs: 37.34409  Tot: +0.00000 ]
	SubspaceRotationAdjust: set factor to 0.109
ElecMinimize: Iter: 130  F: -2100.570254469212159  |grad|_K:  5.448e-07  alpha:  3.383e-01  linmin: -7.271e-06  t[s]:  10687.47
	FillingsUpdate:  mu: +0.119690474  nElectrons: 353.000000  magneticMoment: [ Abs: 37.33482  Tot: -0.00000 ]
	SubspaceRotationAdjust: set factor to 0.101
ElecMinimize: Iter: 131  F: -2100.570272667013796  |grad|_K:  5.451e-07  alpha:  3.502e-01  linmin:  2.825e-05  t[s]:  10761.36
	FillingsUpdate:  mu: +0.119669351  nElectrons: 353.000000  magneticMoment: [ Abs: 37.32870  Tot: +0.00000 ]
	SubspaceRotationAdjust: set factor to 0.113
ElecMinimize: Iter: 132  F: -2100.570294141965405  |grad|_K:  5.543e-07  alpha:  4.158e-01  linmin: -4.401e-06  t[s]:  10838.51
	FillingsUpdate:  mu: +0.119747878  nElectrons: 353.000000  magneticMoment: [ Abs: 37.32312  Tot: -0.00000 ]
	SubspaceRotationAdjust: set factor to 0.12
ElecMinimize: Iter: 133  F: -2100.570315826078968  |grad|_K:  5.754e-07  alpha:  4.031e-01  linmin: -5.128e-06  t[s]:  10914.70
	FillingsUpdate:  mu: +0.119827048  nElectrons: 353.000000  magneticMoment: [ Abs: 37.31080  Tot: +0.00000 ]
	SubspaceRotationAdjust: set factor to 0.107
ElecMinimize: Iter: 134  F: -2100.570336264982416  |grad|_K:  6.281e-07  alpha:  3.519e-01  linmin:  2.503e-05  t[s]:  10989.95
	FillingsUpdate:  mu: +0.119723357  nElectrons: 353.000000  magneticMoment: [ Abs: 37.30772  Tot: +0.00000 ]
	SubspaceRotationAdjust: set factor to 0.0952
ElecMinimize: Iter: 135  F: -2100.570357244278057  |grad|_K:  5.815e-07  alpha:  3.055e-01  linmin:  3.543e-06  t[s]:  11063.76
	FillingsUpdate:  mu: +0.119676093  nElectrons: 353.000000  magneticMoment: [ Abs: 37.29796  Tot: +0.00000 ]
	SubspaceRotationAdjust: set factor to 0.108
ElecMinimize: Iter: 136  F: -2100.570380519347509  |grad|_K:  5.686e-07  alpha:  3.940e-01  linmin:  5.541e-06  t[s]:  11139.83
	FillingsUpdate:  mu: +0.119760674  nElectrons: 353.000000  magneticMoment: [ Abs: 37.28816  Tot: -0.00000 ]
	SubspaceRotationAdjust: set factor to 0.117
ElecMinimize: Iter: 137  F: -2100.570402308064331  |grad|_K:  5.794e-07  alpha:  3.859e-01  linmin:  3.307e-06  t[s]:  11216.77
	FillingsUpdate:  mu: +0.119835247  nElectrons: 353.000000  magneticMoment: [ Abs: 37.28623  Tot: -0.00000 ]
	SubspaceRotationAdjust: set factor to 0.105
ElecMinimize: Iter: 138  F: -2100.570421936975436  |grad|_K:  6.143e-07  alpha:  3.341e-01  linmin:  1.296e-05  t[s]:  11293.51
	FillingsUpdate:  mu: +0.119750941  nElectrons: 353.000000  magneticMoment: [ Abs: 37.27580  Tot: -0.00000 ]
	SubspaceRotationAdjust: set factor to 0.0955
ElecMinimize: Iter: 139  F: -2100.570442353880935  |grad|_K:  5.873e-07  alpha:  3.101e-01  linmin:  5.994e-06  t[s]:  11371.73
	FillingsUpdate:  mu: +0.119708317  nElectrons: 353.000000  magneticMoment: [ Abs: 37.27081  Tot: +0.00000 ]
	SubspaceRotationAdjust: set factor to 0.109
ElecMinimize: Iter: 140  F: -2100.570466276406478  |grad|_K:  5.833e-07  alpha:  3.973e-01  linmin:  8.743e-06  t[s]:  11450.14
	FillingsUpdate:  mu: +0.119824036  nElectrons: 353.000000  magneticMoment: [ Abs: 37.26755  Tot: +0.00000 ]
	SubspaceRotationAdjust: set factor to 0.119
ElecMinimize: Iter: 141  F: -2100.570490592814167  |grad|_K:  6.289e-07  alpha:  4.096e-01  linmin:  9.647e-06  t[s]:  11525.39
	FillingsUpdate:  mu: +0.119961901  nElectrons: 353.000000  magneticMoment: [ Abs: 37.25877  Tot: -0.00000 ]
	SubspaceRotationAdjust: set factor to 0.105
ElecMinimize: Iter: 142  F: -2100.570513517910058  |grad|_K:  6.989e-07  alpha:  3.321e-01  linmin:  4.635e-07  t[s]:  11600.67
	FillingsUpdate:  mu: +0.119848076  nElectrons: 353.000000  magneticMoment: [ Abs: 37.26079  Tot: +0.00000 ]
	SubspaceRotationAdjust: set factor to 0.094
ElecMinimize: Iter: 143  F: -2100.570539127777920  |grad|_K:  6.700e-07  alpha:  2.996e-01  linmin:  1.089e-05  t[s]:  11678.73
	FillingsUpdate:  mu: +0.119793961  nElectrons: 353.000000  magneticMoment: [ Abs: 37.25750  Tot: +0.00000 ]
	SubspaceRotationAdjust: set factor to 0.107
ElecMinimize: Iter: 144  F: -2100.570570746359408  |grad|_K:  6.659e-07  alpha:  4.042e-01  linmin:  3.321e-06  t[s]:  11758.91
	FillingsUpdate:  mu: +0.119924360  nElectrons: 353.000000  magneticMoment: [ Abs: 37.25419  Tot: +0.00000 ]
	SubspaceRotationAdjust: set factor to 0.115
ElecMinimize: Iter: 145  F: -2100.570601749883735  |grad|_K:  7.030e-07  alpha:  4.003e-01  linmin:  2.234e-06  t[s]:  11832.59
	FillingsUpdate:  mu: +0.120030115  nElectrons: 353.000000  magneticMoment: [ Abs: 37.25908  Tot: -0.00000 ]
	SubspaceRotationAdjust: set factor to 0.104
ElecMinimize: Iter: 146  F: -2100.570629745928727  |grad|_K:  7.560e-07  alpha:  3.237e-01  linmin:  5.909e-06  t[s]:  11907.94
	FillingsUpdate:  mu: +0.120004850  nElectrons: 353.000000  magneticMoment: [ Abs: 37.25439  Tot: -0.00000 ]
	SubspaceRotationAdjust: set factor to 0.0951
ElecMinimize: Iter: 147  F: -2100.570658942827777  |grad|_K:  7.041e-07  alpha:  2.925e-01  linmin:  2.757e-06  t[s]:  11983.84
	FillingsUpdate:  mu: +0.119995213  nElectrons: 353.000000  magneticMoment: [ Abs: 37.25666  Tot: -0.00000 ]
	SubspaceRotationAdjust: set factor to 0.111
ElecMinimize: Iter: 148  F: -2100.570692582830361  |grad|_K:  6.945e-07  alpha:  3.886e-01  linmin:  7.581e-06  t[s]:  12058.38
	FillingsUpdate:  mu: +0.120125420  nElectrons: 353.000000  magneticMoment: [ Abs: 37.26043  Tot: +0.00000 ]
	SubspaceRotationAdjust: set factor to 0.123
ElecMinimize: Iter: 149  F: -2100.570725961932567  |grad|_K:  7.408e-07  alpha:  3.966e-01  linmin:  4.034e-06  t[s]:  12135.40
	FillingsUpdate:  mu: +0.120391468  nElectrons: 353.000000  magneticMoment: [ Abs: 37.25665  Tot: +0.00000 ]
	SubspaceRotationAdjust: set factor to 0.113
ElecMinimize: Iter: 150  F: -2100.570756572639311  |grad|_K:  8.357e-07  alpha:  3.189e-01  linmin:  2.533e-06  t[s]:  12210.72
	FillingsUpdate:  mu: +0.120117270  nElectrons: 353.000000  magneticMoment: [ Abs: 37.26392  Tot: +0.00000 ]
	SubspaceRotationAdjust: set factor to 0.104
ElecMinimize: Iter: 151  F: -2100.570790559664601  |grad|_K:  7.840e-07  alpha:  2.784e-01  linmin: -2.220e-06  t[s]:  12285.91
	FillingsUpdate:  mu: +0.120063193  nElectrons: 353.000000  magneticMoment: [ Abs: 37.26408  Tot: +0.00000 ]
	SubspaceRotationAdjust: set factor to 0.12
ElecMinimize: Iter: 152  F: -2100.570832767725733  |grad|_K:  7.761e-07  alpha:  3.932e-01  linmin:  1.184e-05  t[s]:  12362.05
	FillingsUpdate:  mu: +0.120217988  nElectrons: 353.000000  magneticMoment: [ Abs: 37.26308  Tot: +0.00000 ]
	SubspaceRotationAdjust: set factor to 0.136
ElecMinimize: Iter: 153  F: -2100.570875014549074  |grad|_K:  8.119e-07  alpha:  4.025e-01  linmin:  6.904e-06  t[s]:  12440.83
	FillingsUpdate:  mu: +0.120314364  nElectrons: 353.000000  magneticMoment: [ Abs: 37.26863  Tot: +0.00000 ]
	SubspaceRotationAdjust: set factor to 0.125
ElecMinimize: Iter: 154  F: -2100.570910294952228  |grad|_K:  9.046e-07  alpha:  3.069e-01  linmin: -6.348e-06  t[s]:  12513.18
	FillingsUpdate:  mu: +0.120264577  nElectrons: 353.000000  magneticMoment: [ Abs: 37.26267  Tot: +0.00000 ]
	SubspaceRotationAdjust: set factor to 0.106
ElecMinimize: Iter: 155  F: -2100.570942307008409  |grad|_K:  7.988e-07  alpha:  2.224e-01  linmin:  6.647e-07  t[s]:  12587.48
	FillingsUpdate:  mu: +0.120057196  nElectrons: 353.000000  magneticMoment: [ Abs: 37.26469  Tot: +0.00000 ]
	SubspaceRotationAdjust: set factor to 0.124
ElecMinimize: Iter: 156  F: -2100.570980781586513  |grad|_K:  7.202e-07  alpha:  3.447e-01  linmin: -6.413e-06  t[s]:  12663.68
	FillingsUpdate:  mu: +0.120061719  nElectrons: 353.000000  magneticMoment: [ Abs: 37.26551  Tot: -0.00000 ]
	SubspaceRotationAdjust: set factor to 0.145
ElecMinimize: Iter: 157  F: -2100.571014769083376  |grad|_K:  7.121e-07  alpha:  3.740e-01  linmin: -2.468e-06  t[s]:  12738.68
	FillingsUpdate:  mu: +0.120338396  nElectrons: 353.000000  magneticMoment: [ Abs: 37.26072  Tot: -0.00000 ]
	SubspaceRotationAdjust: set factor to 0.128
ElecMinimize: Iter: 158  F: -2100.571041953924123  |grad|_K:  8.027e-07  alpha:  3.057e-01  linmin:  8.666e-06  t[s]:  12817.40
	FillingsUpdate:  mu: +0.120088122  nElectrons: 353.000000  magneticMoment: [ Abs: 37.26540  Tot: -0.00000 ]
	SubspaceRotationAdjust: set factor to 0.111
ElecMinimize: Iter: 159  F: -2100.571064675607431  |grad|_K:  7.124e-07  alpha:  2.030e-01  linmin:  1.620e-07  t[s]:  12894.48
	FillingsUpdate:  mu: +0.120013309  nElectrons: 353.000000  magneticMoment: [ Abs: 37.26316  Tot: +0.00000 ]
	SubspaceRotationAdjust: set factor to 0.133
ElecMinimize: Iter: 160  F: -2100.571093700536494  |grad|_K:  6.311e-07  alpha:  3.278e-01  linmin:  1.791e-05  t[s]:  12971.30
	FillingsUpdate:  mu: +0.120095222  nElectrons: 353.000000  magneticMoment: [ Abs: 37.26197  Tot: -0.00000 ]
	SubspaceRotationAdjust: set factor to 0.156
ElecMinimize: Iter: 161  F: -2100.571119576970887  |grad|_K:  6.532e-07  alpha:  3.739e-01  linmin:  1.050e-05  t[s]:  13049.60
	FillingsUpdate:  mu: +0.120120978  nElectrons: 353.000000  magneticMoment: [ Abs: 37.26728  Tot: -0.00000 ]
	SubspaceRotationAdjust: set factor to 0.134
ElecMinimize: Iter: 162  F: -2100.571138888296446  |grad|_K:  7.444e-07  alpha:  2.607e-01  linmin: -1.313e-06  t[s]:  13125.30
	FillingsUpdate:  mu: +0.120062590  nElectrons: 353.000000  magneticMoment: [ Abs: 37.26441  Tot: -0.00000 ]
	SubspaceRotationAdjust: set factor to 0.119
ElecMinimize: Iter: 163  F: -2100.571158466927955  |grad|_K:  6.270e-07  alpha:  2.017e-01  linmin:  2.644e-06  t[s]:  13198.69
	FillingsUpdate:  mu: +0.119975614  nElectrons: 353.000000  magneticMoment: [ Abs: 37.26796  Tot: +0.00000 ]
	SubspaceRotationAdjust: set factor to 0.145
ElecMinimize: Iter: 164  F: -2100.571182156363193  |grad|_K:  5.616e-07  alpha:  3.447e-01  linmin: -2.522e-06  t[s]:  13277.73
	FillingsUpdate:  mu: +0.120001695  nElectrons: 353.000000  magneticMoment: [ Abs: 37.27154  Tot: +0.00000 ]
	SubspaceRotationAdjust: set factor to 0.164
ElecMinimize: Iter: 165  F: -2100.571202324714250  |grad|_K:  5.697e-07  alpha:  3.653e-01  linmin: -8.495e-07  t[s]:  13355.17
	FillingsUpdate:  mu: +0.120185727  nElectrons: 353.000000  magneticMoment: [ Abs: 37.26943  Tot: -0.00000 ]
	SubspaceRotationAdjust: set factor to 0.141
ElecMinimize: Iter: 166  F: -2100.571216485389868  |grad|_K:  6.335e-07  alpha:  2.498e-01  linmin: -3.989e-07  t[s]:  13429.09
	FillingsUpdate:  mu: +0.120036024  nElectrons: 353.000000  magneticMoment: [ Abs: 37.27496  Tot: +0.00000 ]
	SubspaceRotationAdjust: set factor to 0.125
ElecMinimize: Iter: 167  F: -2100.571229757368201  |grad|_K:  5.170e-07  alpha:  1.893e-01  linmin: -1.313e-06  t[s]:  13506.06
	FillingsUpdate:  mu: +0.120043248  nElectrons: 353.000000  magneticMoment: [ Abs: 37.27666  Tot: -0.00000 ]
	SubspaceRotationAdjust: set factor to 0.156
ElecMinimize: Iter: 168  F: -2100.571245269547944  |grad|_K:  4.539e-07  alpha:  3.315e-01  linmin: -4.363e-06  t[s]:  13582.00
	FillingsUpdate:  mu: +0.120114542  nElectrons: 353.000000  magneticMoment: [ Abs: 37.27795  Tot: -0.00000 ]
	SubspaceRotationAdjust: set factor to 0.181
ElecMinimize: Iter: 169  F: -2100.571258104023400  |grad|_K:  4.672e-07  alpha:  3.556e-01  linmin: -5.884e-06  t[s]:  13659.09
	FillingsUpdate:  mu: +0.120136839  nElectrons: 353.000000  magneticMoment: [ Abs: 37.28343  Tot: -0.00000 ]
	SubspaceRotationAdjust: set factor to 0.145
ElecMinimize: Iter: 170  F: -2100.571266922301220  |grad|_K:  5.372e-07  alpha:  2.305e-01  linmin:  2.626e-08  t[s]:  13734.36
	FillingsUpdate:  mu: +0.120125752  nElectrons: 353.000000  magneticMoment: [ Abs: 37.28295  Tot: +0.00000 ]
	SubspaceRotationAdjust: set factor to 0.14
ElecMinimize: Iter: 171  F: -2100.571276826959092  |grad|_K:  4.370e-07  alpha:  1.966e-01  linmin: -9.168e-06  t[s]:  13814.00
	FillingsUpdate:  mu: +0.120131416  nElectrons: 353.000000  magneticMoment: [ Abs: 37.28699  Tot: +0.00000 ]
	SubspaceRotationAdjust: set factor to 0.174
ElecMinimize: Iter: 172  F: -2100.571288778065082  |grad|_K:  4.132e-07  alpha:  3.569e-01  linmin:  3.779e-06  t[s]:  13890.01
	FillingsUpdate:  mu: +0.120175597  nElectrons: 353.000000  magneticMoment: [ Abs: 37.29181  Tot: +0.00000 ]
	SubspaceRotationAdjust: set factor to 0.198
ElecMinimize: Iter: 173  F: -2100.571299593540971  |grad|_K:  4.495e-07  alpha:  3.629e-01  linmin:  3.700e-06  t[s]:  13964.56
	FillingsUpdate:  mu: +0.120291250  nElectrons: 353.000000  magneticMoment: [ Abs: 37.29093  Tot: -0.00000 ]
	SubspaceRotationAdjust: set factor to 0.164
ElecMinimize: Iter: 174  F: -2100.571307141922262  |grad|_K:  5.246e-07  alpha:  2.154e-01  linmin:  4.474e-06  t[s]:  14040.73
	FillingsUpdate:  mu: +0.120211003  nElectrons: 353.000000  magneticMoment: [ Abs: 37.29725  Tot: +0.00000 ]
	SubspaceRotationAdjust: set factor to 0.151
ElecMinimize: Iter: 175  F: -2100.571316426438443  |grad|_K:  4.264e-07  alpha:  1.932e-01  linmin:  2.495e-06  t[s]:  14113.75
	FillingsUpdate:  mu: +0.120242215  nElectrons: 353.000000  magneticMoment: [ Abs: 37.30041  Tot: -0.00000 ]
	SubspaceRotationAdjust: set factor to 0.18
ElecMinimize: Iter: 176  F: -2100.571327607041439  |grad|_K:  3.964e-07  alpha:  3.517e-01  linmin: -4.929e-06  t[s]:  14187.40
	FillingsUpdate:  mu: +0.120271857  nElectrons: 353.000000  magneticMoment: [ Abs: 37.30385  Tot: +0.00000 ]
	SubspaceRotationAdjust: set factor to 0.215
ElecMinimize: Iter: 177  F: -2100.571337736172609  |grad|_K:  3.843e-07  alpha:  3.677e-01  linmin: -6.650e-07  t[s]:  14266.73
	FillingsUpdate:  mu: +0.120299620  nElectrons: 353.000000  magneticMoment: [ Abs: 37.30922  Tot: -0.00000 ]
	SubspaceRotationAdjust: set factor to 0.197
ElecMinimize: Iter: 178  F: -2100.571346209152580  |grad|_K:  4.554e-07  alpha:  3.279e-01  linmin:  1.829e-06  t[s]:  14343.25
	FillingsUpdate:  mu: +0.120319034  nElectrons: 353.000000  magneticMoment: [ Abs: 37.30802  Tot: -0.00000 ]
	SubspaceRotationAdjust: set factor to 0.158
ElecMinimize: Iter: 179  F: -2100.571351538511863  |grad|_K:  4.381e-07  alpha:  1.474e-01  linmin:  4.807e-06  t[s]:  14422.26
	FillingsUpdate:  mu: +0.120245903  nElectrons: 353.000000  magneticMoment: [ Abs: 37.31294  Tot: -0.00000 ]
	SubspaceRotationAdjust: set factor to 0.189
ElecMinimize: Iter: 180  F: -2100.571359848122938  |grad|_K:  3.539e-07  alpha:  2.480e-01  linmin:  2.634e-06  t[s]:  14499.48
	FillingsUpdate:  mu: +0.120246957  nElectrons: 353.000000  magneticMoment: [ Abs: 37.31645  Tot: +0.00000 ]
	SubspaceRotationAdjust: set factor to 0.23
ElecMinimize: Iter: 181  F: -2100.571367583191659  |grad|_K:  3.658e-07  alpha:  3.535e-01  linmin:  6.498e-07  t[s]:  14574.57
	FillingsUpdate:  mu: +0.120310922  nElectrons: 353.000000  magneticMoment: [ Abs: 37.31505  Tot: -0.00000 ]
	SubspaceRotationAdjust: set factor to 0.168
ElecMinimize: Iter: 182  F: -2100.571372543125563  |grad|_K:  4.619e-07  alpha:  2.120e-01  linmin: -2.859e-07  t[s]:  14651.79
	FillingsUpdate:  mu: +0.120216587  nElectrons: 353.000000  magneticMoment: [ Abs: 37.31920  Tot: +0.00000 ]
	SubspaceRotationAdjust: set factor to 0.157
ElecMinimize: Iter: 183  F: -2100.571378426149295  |grad|_K:  3.531e-07  alpha:  1.576e-01  linmin:  4.383e-07  t[s]:  14726.38
	FillingsUpdate:  mu: +0.120192273  nElectrons: 353.000000  magneticMoment: [ Abs: 37.32008  Tot: +0.00000 ]
	SubspaceRotationAdjust: set factor to 0.202
ElecMinimize: Iter: 184  F: -2100.571386260022337  |grad|_K:  3.437e-07  alpha:  3.594e-01  linmin: -6.785e-07  t[s]:  14803.94
	FillingsUpdate:  mu: +0.120242608  nElectrons: 353.000000  magneticMoment: [ Abs: 37.31819  Tot: -0.00000 ]
	SubspaceRotationAdjust: set factor to 0.178
ElecMinimize: Iter: 185  F: -2100.571393091518530  |grad|_K:  4.280e-07  alpha:  3.306e-01  linmin:  1.895e-07  t[s]:  14882.19
	FillingsUpdate:  mu: +0.120187520  nElectrons: 353.000000  magneticMoment: [ Abs: 37.32084  Tot: +0.00000 ]
	SubspaceRotationAdjust: set factor to 0.145
ElecMinimize: Iter: 186  F: -2100.571397939865619  |grad|_K:  4.019e-07  alpha:  1.508e-01  linmin: -6.137e-06  t[s]:  14960.89
	FillingsUpdate:  mu: +0.120130220  nElectrons: 353.000000  magneticMoment: [ Abs: 37.31808  Tot: +0.00000 ]
	SubspaceRotationAdjust: set factor to 0.184
ElecMinimize: Iter: 187  F: -2100.571406307331017  |grad|_K:  3.670e-07  alpha:  2.955e-01  linmin: -5.344e-07  t[s]:  15039.94
	FillingsUpdate:  mu: +0.120169581  nElectrons: 353.000000  magneticMoment: [ Abs: 37.31368  Tot: -0.00000 ]
	SubspaceRotationAdjust: set factor to 0.171
ElecMinimize: Iter: 188  F: -2100.571414262964936  |grad|_K:  4.474e-07  alpha:  3.376e-01  linmin: -5.950e-07  t[s]:  15118.58
	FillingsUpdate:  mu: +0.120091388  nElectrons: 353.000000  magneticMoment: [ Abs: 37.31461  Tot: -0.00000 ]
	SubspaceRotationAdjust: set factor to 0.138
ElecMinimize: Iter: 189  F: -2100.571419660763240  |grad|_K:  4.194e-07  alpha:  1.529e-01  linmin: -1.105e-05  t[s]:  15197.01
	FillingsUpdate:  mu: +0.120037669  nElectrons: 353.000000  magneticMoment: [ Abs: 37.30872  Tot: +0.00000 ]
	SubspaceRotationAdjust: set factor to 0.182
ElecMinimize: Iter: 190  F: -2100.571428738785471  |grad|_K:  3.765e-07  alpha:  2.935e-01  linmin: -2.799e-06  t[s]:  15274.71
	FillingsUpdate:  mu: +0.120121379  nElectrons: 353.000000  magneticMoment: [ Abs: 37.30134  Tot: -0.00000 ]
	SubspaceRotationAdjust: set factor to 0.151
ElecMinimize: Iter: 191  F: -2100.571436197115872  |grad|_K:  4.618e-07  alpha:  3.005e-01  linmin: -2.920e-06  t[s]:  15351.40
	FillingsUpdate:  mu: +0.120025722  nElectrons: 353.000000  magneticMoment: [ Abs: 37.30002  Tot: +0.00000 ]
	SubspaceRotationAdjust: set factor to 0.126
ElecMinimize: Iter: 192  F: -2100.571441711068019  |grad|_K:  3.882e-07  alpha:  1.461e-01  linmin: -1.533e-05  t[s]:  15426.95
	FillingsUpdate:  mu: +0.120013952  nElectrons: 353.000000  magneticMoment: [ Abs: 37.29236  Tot: +0.00000 ]
	SubspaceRotationAdjust: set factor to 0.174
ElecMinimize: Iter: 193  F: -2100.571450054169418  |grad|_K:  3.714e-07  alpha:  3.149e-01  linmin:  8.852e-07  t[s]:  15503.54
	FillingsUpdate:  mu: +0.120094037  nElectrons: 353.000000  magneticMoment: [ Abs: 37.28400  Tot: +0.00000 ]
	SubspaceRotationAdjust: set factor to 0.143
ElecMinimize: Iter: 194  F: -2100.571455852964846  |grad|_K:  4.297e-07  alpha:  2.407e-01  linmin: -1.780e-06  t[s]:  15580.15
[...]
	FillingsUpdate:  mu: +0.120543825  nElectrons: 353.000000  magneticMoment: [ Abs: 37.15827  Tot: +0.00000 ]
	SubspaceRotationAdjust: set factor to 0.105
ElecMinimize: Iter:   7  F: -2100.590097963840890  |grad|_K:  5.092e-06  alpha:  4.836e-01  linmin: -5.772e-06  t[s]:  66301.95
	FillingsUpdate:  mu: +0.120957912  nElectrons: 353.000000  magneticMoment: [ Abs: 37.16401  Tot: +0.00000 ]
	SubspaceRotationAdjust: set factor to 0.112
ElecMinimize: Iter:   8  F: -2100.592470487870742  |grad|_K:  4.596e-06  alpha:  5.227e-01  linmin:  8.875e-07  t[s]:  66384.57
	FillingsUpdate:  mu: +0.122164695  nElectrons: 353.000000  magneticMoment: [ Abs: 37.16385  Tot: -0.00000 ]
	SubspaceRotationAdjust: set factor to 0.118
ElecMinimize: Iter:   9  F: -2100.594126071449409  |grad|_K:  3.609e-06  alpha:  4.484e-01  linmin: -3.650e-07  t[s]:  66466.35
	FillingsUpdate:  mu: +0.120854700  nElectrons: 353.000000  magneticMoment: [ Abs: 37.14121  Tot: -0.00000 ]
	SubspaceRotationAdjust: set factor to 0.107
ElecMinimize: Iter:  10  F: -2100.595035483674565  |grad|_K:  2.947e-06  alpha:  3.994e-01  linmin: -1.197e-05  t[s]:  66548.31
	FillingsUpdate:  mu: +0.123025061  nElectrons: 353.000000  magneticMoment: [ Abs: 37.16807  Tot: -0.00000 ]
	SubspaceRotationAdjust: set factor to 0.0735
ElecMinimize: Iter:  11  F: -2100.595430501595729  |grad|_K:  2.086e-06  alpha:  2.575e-01  linmin: -7.313e-06  t[s]:  66630.04
	FillingsUpdate:  mu: +0.120837389  nElectrons: 353.000000  magneticMoment: [ Abs: 37.15518  Tot: -0.00000 ]
	SubspaceRotationAdjust: set factor to 0.065
ElecMinimize: Iter:  12  F: -2100.595677464158143  |grad|_K:  1.384e-06  alpha:  3.242e-01  linmin: -3.463e-05  t[s]:  66706.24
	FillingsUpdate:  mu: +0.120807516  nElectrons: 353.000000  magneticMoment: [ Abs: 37.15451  Tot: +0.00000 ]
	SubspaceRotationAdjust: set factor to 0.0688
ElecMinimize: Iter:  13  F: -2100.595788756711045  |grad|_K:  9.891e-07  alpha:  3.316e-01  linmin:  1.774e-07  t[s]:  66786.88
	FillingsUpdate:  mu: +0.121435911  nElectrons: 353.000000  magneticMoment: [ Abs: 37.15932  Tot: -0.00000 ]
	SubspaceRotationAdjust: set factor to 0.0642
ElecMinimize: Iter:  14  F: -2100.595844906946695  |grad|_K:  6.517e-07  alpha:  3.282e-01  linmin:  7.286e-06  t[s]:  66866.06
	FillingsUpdate:  mu: +0.121068472  nElectrons: 353.000000  magneticMoment: [ Abs: 37.15764  Tot: +0.00000 ]
	SubspaceRotationAdjust: set factor to 0.0658
ElecMinimize: Iter:  15  F: -2100.595869810091244  |grad|_K:  4.603e-07  alpha:  3.354e-01  linmin: -4.991e-06  t[s]:  66946.49
	FillingsUpdate:  mu: +0.120992973  nElectrons: 353.000000  magneticMoment: [ Abs: 37.15736  Tot: -0.00000 ]
	SubspaceRotationAdjust: set factor to 0.0708
ElecMinimize: Iter:  16  F: -2100.595882579238605  |grad|_K:  3.411e-07  alpha:  3.446e-01  linmin: -9.347e-07  t[s]:  67028.52
	FillingsUpdate:  mu: +0.121197641  nElectrons: 353.000000  magneticMoment: [ Abs: 37.15893  Tot: -0.00000 ]
	SubspaceRotationAdjust: set factor to 0.0744
ElecMinimize: Iter:  17  F: -2100.595889708665709  |grad|_K:  2.583e-07  alpha:  3.503e-01  linmin:  2.427e-06  t[s]:  67110.08
	FillingsUpdate:  mu: +0.121122111  nElectrons: 353.000000  magneticMoment: [ Abs: 37.15866  Tot: +0.00000 ]
	SubspaceRotationAdjust: set factor to 0.0864
ElecMinimize: Iter:  18  F: -2100.595894007311927  |grad|_K:  2.095e-07  alpha:  3.684e-01  linmin: -3.740e-07  t[s]:  67182.78
	FillingsUpdate:  mu: +0.121065056  nElectrons: 353.000000  magneticMoment: [ Abs: 37.15839  Tot: -0.00000 ]
	SubspaceRotationAdjust: set factor to 0.103
ElecMinimize: Iter:  19  F: -2100.595896923135570  |grad|_K:  1.802e-07  alpha:  3.799e-01  linmin: -1.336e-06  t[s]:  67263.42
	FillingsUpdate:  mu: +0.121192446  nElectrons: 353.000000  magneticMoment: [ Abs: 37.15940  Tot: -0.00000 ]
	SubspaceRotationAdjust: set factor to 0.116
ElecMinimize: Iter:  20  F: -2100.595899303734313  |grad|_K:  1.745e-07  alpha:  4.192e-01  linmin:  8.979e-07  t[s]:  67337.39
	FillingsUpdate:  mu: +0.121081552  nElectrons: 353.000000  magneticMoment: [ Abs: 37.15866  Tot: +0.00000 ]
	SubspaceRotationAdjust: set factor to 0.129
ElecMinimize: Iter:  21  F: -2100.595901536140445  |grad|_K:  1.720e-07  alpha:  4.192e-01  linmin: -1.804e-07  t[s]:  67417.09
	FillingsUpdate:  mu: +0.121157811  nElectrons: 353.000000  magneticMoment: [ Abs: 37.15934  Tot: -0.00000 ]
	SubspaceRotationAdjust: set factor to 0.142
ElecMinimize: Iter:  22  F: -2100.595903793309844  |grad|_K:  1.656e-07  alpha:  4.365e-01  linmin: -7.462e-07  t[s]:  67498.15
	FillingsUpdate:  mu: +0.121111707  nElectrons: 353.000000  magneticMoment: [ Abs: 37.15875  Tot: +0.00000 ]
	SubspaceRotationAdjust: set factor to 0.154
ElecMinimize: Iter:  23  F: -2100.595905894574116  |grad|_K:  1.533e-07  alpha:  4.379e-01  linmin:  5.553e-07  t[s]:  67571.14
	FillingsUpdate:  mu: +0.121169637  nElectrons: 353.000000  magneticMoment: [ Abs: 37.15890  Tot: -0.00000 ]
	SubspaceRotationAdjust: set factor to 0.163
ElecMinimize: Iter:  24  F: -2100.595907503550279  |grad|_K:  1.396e-07  alpha:  3.914e-01  linmin: -9.059e-07  t[s]:  67653.39
	FillingsUpdate:  mu: +0.121084076  nElectrons: 353.000000  magneticMoment: [ Abs: 37.15781  Tot: +0.00000 ]
	SubspaceRotationAdjust: set factor to 0.162
ElecMinimize: Iter:  25  F: -2100.595908724234505  |grad|_K:  1.267e-07  alpha:  3.583e-01  linmin:  4.762e-07  t[s]:  67735.64
	FillingsUpdate:  mu: +0.121219072  nElectrons: 353.000000  magneticMoment: [ Abs: 37.15851  Tot: -0.00000 ]
	SubspaceRotationAdjust: set factor to 0.137
ElecMinimize: Iter:  26  F: -2100.595909532502901  |grad|_K:  1.232e-07  alpha:  2.880e-01  linmin:  6.072e-07  t[s]:  67812.45
	FillingsUpdate:  mu: +0.121098614  nElectrons: 353.000000  magneticMoment: [ Abs: 37.15707  Tot: +0.00000 ]
	SubspaceRotationAdjust: set factor to 0.113
ElecMinimize: Iter:  27  F: -2100.595910170672596  |grad|_K:  9.712e-08  alpha:  2.405e-01  linmin:  8.612e-08  t[s]:  67893.27
	FillingsUpdate:  mu: +0.121140393  nElectrons: 353.000000  magneticMoment: [ Abs: 37.15691  Tot: -0.00000 ]
	SubspaceRotationAdjust: set factor to 0.13
ElecMinimize: Iter:  28  F: -2100.595910735423331  |grad|_K:  8.074e-08  alpha:  3.423e-01  linmin: -4.579e-06  t[s]:  67974.73
	FillingsUpdate:  mu: +0.121171356  nElectrons: 353.000000  magneticMoment: [ Abs: 37.15673  Tot: +0.00000 ]
	SubspaceRotationAdjust: set factor to 0.148
ElecMinimize: Iter:  29  F: -2100.595911149836411  |grad|_K:  7.338e-08  alpha:  3.634e-01  linmin:  3.415e-06  t[s]:  68053.94
	FillingsUpdate:  mu: +0.121098004  nElectrons: 353.000000  magneticMoment: [ Abs: 37.15571  Tot: +0.00000 ]
	SubspaceRotationAdjust: set factor to 0.144
ElecMinimize: Iter:  30  F: -2100.595911460458410  |grad|_K:  7.437e-08  alpha:  3.301e-01  linmin:  4.855e-06  t[s]:  68135.11
ElecMinimize: Converged (|Delta F|<1.000000e-06 for 5 iters).
Setting wave functions to eigenvectors of Hamiltonian
IonicMinimize: 	Wolfe criterion not satisfied: alpha: 1  (E-E0)/|gdotd0|: 0.223388  gdotd/gdotd0: -1.3594 (taking cubic step)

-------- Electronic minimization -----------
	FillingsUpdate:  mu: +0.127642520  nElectrons: 353.000000  magneticMoment: [ Abs: 37.18035  Tot: +0.00000 ]
ElecMinimize: Iter:   0  F: -2100.563940078814539  |grad|_K:  3.134e-05  alpha:  1.000e+00
	FillingsUpdate:  mu: +0.124607170  nElectrons: 353.000000  magneticMoment: [ Abs: 37.10795  Tot: +0.00000 ]
	SubspaceRotationAdjust: set factor to 0.103
ElecMinimize: Iter:   1  F: -2100.594130669036986  |grad|_K:  6.741e-06  alpha:  1.789e-01  linmin:  1.163e-02  t[s]:  68273.18
	FillingsUpdate:  mu: +0.124099377  nElectrons: 353.000000  magneticMoment: [ Abs: 37.16649  Tot: -0.00000 ]
	SubspaceRotationAdjust: set factor to 0.0535
ElecMinimize: Iter:   2  F: -2100.595251091836417  |grad|_K:  3.083e-06  alpha:  1.408e-01  linmin:  1.902e-03  t[s]:  68355.10
	FillingsUpdate:  mu: +0.121757667  nElectrons: 353.000000  magneticMoment: [ Abs: 37.15540  Tot: +0.00000 ]
	SubspaceRotationAdjust: set factor to 0.0641
ElecMinimize: Iter:   3  F: -2100.595703626114300  |grad|_K:  1.802e-06  alpha:  2.760e-01  linmin: -1.204e-04  t[s]:  68435.47
	FillingsUpdate:  mu: +0.120919105  nElectrons: 353.000000  magneticMoment: [ Abs: 37.14893  Tot: -0.00000 ]
	SubspaceRotationAdjust: set factor to 0.0633
ElecMinimize: Iter:   4  F: -2100.595837590136398  |grad|_K:  1.133e-06  alpha:  2.357e-01  linmin: -1.959e-05  t[s]:  68514.26
	FillingsUpdate:  mu: +0.121187233  nElectrons: 353.000000  magneticMoment: [ Abs: 37.15071  Tot: +0.00000 ]
	SubspaceRotationAdjust: set factor to 0.0683
ElecMinimize: Iter:   5  F: -2100.595905506866984  |grad|_K:  7.864e-07  alpha:  3.024e-01  linmin:  1.648e-06  t[s]:  68594.31
	FillingsUpdate:  mu: +0.121416605  nElectrons: 353.000000  magneticMoment: [ Abs: 37.15249  Tot: -0.00000 ]
	SubspaceRotationAdjust: set factor to 0.0753
ElecMinimize: Iter:   6  F: -2100.595937360486005  |grad|_K:  5.560e-07  alpha:  2.946e-01  linmin:  9.816e-07  t[s]:  68675.53
	FillingsUpdate:  mu: +0.121141347  nElectrons: 353.000000  magneticMoment: [ Abs: 37.15131  Tot: -0.00000 ]
	SubspaceRotationAdjust: set factor to 0.0876
ElecMinimize: Iter:   7  F: -2100.595956207885138  |grad|_K:  4.400e-07  alpha:  3.486e-01  linmin: -1.854e-06  t[s]:  68755.43
	FillingsUpdate:  mu: +0.121157213  nElectrons: 353.000000  magneticMoment: [ Abs: 37.15192  Tot: -0.00000 ]
	SubspaceRotationAdjust: set factor to 0.108
ElecMinimize: Iter:   8  F: -2100.595967931938958  |grad|_K:  4.050e-07  alpha:  3.462e-01  linmin:  1.244e-07  t[s]:  68835.24
	FillingsUpdate:  mu: +0.121317108  nElectrons: 353.000000  magneticMoment: [ Abs: 37.15385  Tot: -0.00000 ]
	SubspaceRotationAdjust: set factor to 0.127
ElecMinimize: Iter:   9  F: -2100.595979317402907  |grad|_K:  4.280e-07  alpha:  3.969e-01  linmin:  9.506e-07  t[s]:  68912.27
	FillingsUpdate:  mu: +0.121098562  nElectrons: 353.000000  magneticMoment: [ Abs: 37.15366  Tot: +0.00000 ]
	SubspaceRotationAdjust: set factor to 0.141
ElecMinimize: Iter:  10  F: -2100.595993157847715  |grad|_K:  4.677e-07  alpha:  4.322e-01  linmin: -1.934e-06  t[s]:  68987.21
	FillingsUpdate:  mu: +0.121310074  nElectrons: 353.000000  magneticMoment: [ Abs: 37.15733  Tot: -0.00000 ]
	SubspaceRotationAdjust: set factor to 0.149
ElecMinimize: Iter:  11  F: -2100.596008717292989  |grad|_K:  4.667e-07  alpha:  4.065e-01  linmin:  2.237e-06  t[s]:  69068.64
	FillingsUpdate:  mu: +0.121145978  nElectrons: 353.000000  magneticMoment: [ Abs: 37.15735  Tot: -0.00000 ]
	SubspaceRotationAdjust: set factor to 0.154
ElecMinimize: Iter:  12  F: -2100.596021456117796  |grad|_K:  4.143e-07  alpha:  3.348e-01  linmin: -9.680e-07  t[s]:  69146.37
	FillingsUpdate:  mu: +0.121252285  nElectrons: 353.000000  magneticMoment: [ Abs: 37.15923  Tot: +0.00000 ]
	SubspaceRotationAdjust: set factor to 0.157
ElecMinimize: Iter:  13  F: -2100.596031230943936  |grad|_K:  3.433e-07  alpha:  3.254e-01  linmin:  1.111e-06  t[s]:  69228.54
	FillingsUpdate:  mu: +0.121154245  nElectrons: 353.000000  magneticMoment: [ Abs: 37.15919  Tot: +0.00000 ]
	SubspaceRotationAdjust: set factor to 0.156
ElecMinimize: Iter:  14  F: -2100.596038085937380  |grad|_K:  2.635e-07  alpha:  3.326e-01  linmin: -1.158e-06  t[s]:  69310.68
	FillingsUpdate:  mu: +0.121261922  nElectrons: 353.000000  magneticMoment: [ Abs: 37.16037  Tot: -0.00000 ]
	SubspaceRotationAdjust: set factor to 0.151
ElecMinimize: Iter:  15  F: -2100.596041596337727  |grad|_K:  2.084e-07  alpha:  2.890e-01  linmin:  4.139e-07  t[s]:  69392.54
	FillingsUpdate:  mu: +0.121133351  nElectrons: 353.000000  magneticMoment: [ Abs: 37.15938  Tot: +0.00000 ]
	SubspaceRotationAdjust: set factor to 0.135
ElecMinimize: Iter:  16  F: -2100.596043581853337  |grad|_K:  1.582e-07  alpha:  2.616e-01  linmin: -1.204e-06  t[s]:  69474.53
	FillingsUpdate:  mu: +0.121260245  nElectrons: 353.000000  magneticMoment: [ Abs: 37.16047  Tot: -0.00000 ]
	SubspaceRotationAdjust: set factor to 0.118
ElecMinimize: Iter:  17  F: -2100.596044749925568  |grad|_K:  1.293e-07  alpha:  2.668e-01  linmin:  3.502e-06  t[s]:  69555.35
	FillingsUpdate:  mu: +0.121181765  nElectrons: 353.000000  magneticMoment: [ Abs: 37.15988  Tot: +0.00000 ]
	SubspaceRotationAdjust: set factor to 0.119
ElecMinimize: Iter:  18  F: -2100.596045568653153  |grad|_K:  1.005e-07  alpha:  2.802e-01  linmin: -3.214e-06  t[s]:  69637.87
	FillingsUpdate:  mu: +0.121187035  nElectrons: 353.000000  magneticMoment: [ Abs: 37.15991  Tot: -0.00000 ]
	SubspaceRotationAdjust: set factor to 0.141
ElecMinimize: Iter:  19  F: -2100.596046085922808  |grad|_K:  7.780e-08  alpha:  2.930e-01  linmin: -3.048e-06  t[s]:  69716.86
	FillingsUpdate:  mu: +0.121237877  nElectrons: 353.000000  magneticMoment: [ Abs: 37.16029  Tot: -0.00000 ]
	SubspaceRotationAdjust: set factor to 0.153
ElecMinimize: Iter:  20  F: -2100.596046424912856  |grad|_K:  6.898e-08  alpha:  3.201e-01  linmin: -2.164e-05  t[s]:  69797.13
	FillingsUpdate:  mu: +0.121175592  nElectrons: 353.000000  magneticMoment: [ Abs: 37.15976  Tot: -0.00000 ]
	SubspaceRotationAdjust: set factor to 0.154
ElecMinimize: Iter:  21  F: -2100.596046653861322  |grad|_K:  6.475e-08  alpha:  2.748e-01  linmin:  9.867e-08  t[s]:  69880.54
	FillingsUpdate:  mu: +0.121221050  nElectrons: 353.000000  magneticMoment: [ Abs: 37.16015  Tot: +0.00000 ]
	SubspaceRotationAdjust: set factor to 0.168
ElecMinimize: Iter:  22  F: -2100.596046884269072  |grad|_K:  5.955e-08  alpha:  3.145e-01  linmin:  4.999e-06  t[s]:  69961.03
ElecMinimize: Converged (|Delta F|<1.000000e-06 for 5 iters).
Setting wave functions to eigenvectors of Hamiltonian

# Ionic positions in lattice coordinates:
ion Ni   0.005797869161904   0.000251904607125   0.152556925199706 1
ion Ni   0.500218467707590  -0.000018933280573   0.148223601195506 1
ion Ni   0.496085707643831   0.500402485422586   0.146006177094668 1
ion Ni   0.250343733647313   0.251942606256214   0.053877777851803 1
ion Ni   0.251019790109734   0.747029609872339   0.052841177886605 1
ion Ni   0.500000000000000   0.500000000000000  -0.050000000000000 0
ion Co   0.001199271057956   0.503350422918317   0.154782896220154 1
ion Co  -0.248322105048201   0.250381334698677   0.056362571900813 1
ion Co  -0.248886404606407   0.748849905534400   0.056133809127297 1
ion V   0.000000000000000   0.000000000000000  -0.050000000000000 0
ion V   0.500000000000000   0.000000000000000  -0.050000000000000 0
ion V   0.000000000000000   0.500000000000000  -0.050000000000000 0
ion V   0.250000000000000   0.250000000000000  -0.150000000000000 0
ion V   0.250000000000000   0.750000000000000  -0.150000000000000 0
ion V  -0.250000000000000   0.250000000000000  -0.150000000000000 0
ion V  -0.250000000000000   0.750000000000000  -0.150000000000000 0
ion O   0.254930622725195   0.258049041215856   0.146885726760202 1
ion O   0.257465012638389   0.744663889998830   0.145469158614209 1
ion O  -0.265091000846515   0.259168628947680   0.149814034523250 1
ion O  -0.262665382926669   0.740810181233483   0.149715679024641 1
ion O   0.006147243563717  -0.000694315761259   0.050679651885205 1
ion O   0.491324902262549   0.000599406511501   0.046390286082196 1
ion O   0.008453882124384   0.498678133699163   0.047660639489048 1
ion O   0.491001393425313   0.499058415242443   0.045171516522022 1
ion O   0.250000000000000   0.250000000000000  -0.050000000000000 0
ion O   0.250000000000000   0.750000000000000  -0.050000000000000 0
ion O  -0.250000000000000   0.250000000000000  -0.050000000000000 0
ion O  -0.250000000000000   0.750000000000000  -0.050000000000000 0
ion O   0.000000000000000   0.000000000000000  -0.150000000000000 0
ion O   0.500000000000000   0.000000000000000  -0.150000000000000 0
ion O   0.000000000000000   0.500000000000000  -0.150000000000000 0
ion O   0.500000000000000   0.500000000000000  -0.150000000000000 0
ion O  -0.007248026639192  -0.007957189245597   0.239620469071488 1
ion H   0.107163594976702   0.090212473806843   0.254427854825993 1

# Forces in Lattice coordinates:
force Ni   0.005020490890395   0.000797021910598   0.000393789719141 1
force Ni  -0.004161381068565  -0.001159079617598   0.001383527967905 1
force Ni  -0.007837239364576   0.002552572804384   0.000061392453752 1
force Ni   0.003751708705062   0.000451751668712   0.014131257025344 1
force Ni   0.003572150342980   0.000267972477259   0.060679460272256 1
force Ni  -0.021478718726094  -0.005277703807624   0.294188692637615 0
force Co   0.004515000945191  -0.000084467162067  -0.014334422950639 1
force Co  -0.002344891072197   0.000619345746699  -0.021052827264660 1
force Co  -0.002502814236162  -0.001040279059283  -0.015633011191596 1
force V  -0.012123908804744   0.003799890184406   0.938677253802233 0
force V  -0.078084873025229   0.002927525723740   0.684860351072319 0
force V  -0.020615472304541  -0.008307010672925   0.798435951842855 0
force V   0.059359747123715   0.040858118230049  -0.364727453508554 0
force V   0.060625671400529  -0.040239528541212  -0.383284512735114 0
force V  -0.009231001568230   0.043635177059447  -0.150613382649632 0
force V  -0.008264850302584  -0.042688312543290  -0.153655489146090 0
force O   0.002161235557281   0.001104891239919  -0.012476123951370 1
force O   0.004243466009100   0.000011380191466  -0.022364353385246 1
force O  -0.002787267135612  -0.000623467560493   0.024399488559084 1
force O   0.000020081780932   0.000578374031723   0.026348310129080 1
force O   0.002669426768221  -0.001261639702597  -0.007818247835975 1
force O  -0.003298562410488  -0.001499380596038  -0.008250250628781 1
force O   0.002529007299924   0.000535348294499   0.000020688453004 1
force O   0.000392250951595   0.000254443752417   0.015886743688788 1
force O  -0.006295389347490   0.036189636098125  -0.343667428575176 0
force O  -0.017889583063338  -0.034304360827514  -0.338487309078412 0
force O   0.000939007609452   0.031075052347064  -0.190236809967374 0
force O  -0.005659079911086  -0.030257368059060  -0.177703967792748 0
force O   0.027263618474991   0.000563600910499  -0.305114666595921 0
force O   0.038213238640613   0.000615897957050  -0.113880756980501 0
force O   0.021803166222325   0.000370172048865  -0.296581357025183 0
force O  -0.024589507012756  -0.004029624769237  -0.029026298737671 0
force O   0.008855129845422   0.008349045576071   0.045723500407609 1
force H   0.001733177308209  -0.020342569510240   0.003235027492113 1

# Energy components:
   Eewald =     5833.1538885648697033
       EH =     7730.6993350857601399
     Eloc =   -15823.1324778722937481
      Enl =     -555.8516865134436102
   Epulay =       -0.0004876770957056
      Exc =     -253.2248357138932704
       KE =      966.4088804596168529
        U =        1.3527243565131706
-------------------------------------
     Etot =    -2100.5946593099674828
       TS =        0.0013875743018084
-------------------------------------
        F =    -2100.5960468842690716

IonicMinimize: Iter:  12  F: -2100.596046884269072  |grad|_K:  4.632e-04  alpha:  3.972e-01  linmin:  1.662e-03  t[s]:  69972.59
IonicMinimize: Converged (|Delta F|<1.000000e-04 for 3 iters).

#--- Lowdin population analysis ---
# oxidation-state Ni +3.703 +3.757 +3.805 +3.513 +3.504 +3.530
# magnetic-moments Ni -0.951 +0.503 +1.027 +0.969 +0.963 +0.969
# oxidation-state Co +1.247 +1.200 +1.201
# magnetic-moments Co +2.695 -2.647 -2.649
# oxidation-state V +1.054 +1.087 +1.085 +1.057 +1.055 +1.058 +1.059
# magnetic-moments V -2.661 +2.606 -2.623 -2.905 -2.910 +2.893 +2.893
# oxidation-state O -0.707 -0.696 -0.796 -0.800 -0.835 -0.835 -0.875 -0.789 -0.827 -0.823 -0.875 -0.880 -0.956 -0.949 -0.954 -0.912 -0.682
# magnetic-moments O +0.156 +0.163 -0.125 -0.126 +0.091 +0.139 +0.173 +0.333 +0.153 +0.160 +0.075 +0.065 +0.007 -0.022 +0.004 +0.111 -0.332
# oxidation-state H +0.373
# magnetic-moments H +0.006


Dumping 'run.ionpos' ... done
Dumping 'run.lattice' ... done
Dumping 'run.Ecomponents' ... done
End date and time: Wed May 21 12:10:01 2025  (Duration: 0-19:26:15.71)
Done!
