
*************** JDFTx 1.7.0  ***************

Start date and time: Tue May 20 16:52:59 2025
Executable /data2/jt577/jdftx_eat_withLibXC/build/jdftx with command-line: -i /data2/jt577/May_2025/Relax_Mag_litU/rel3+1_6/O/runs/calc_/run.in
Running on hosts (process indices):  node3302 (0-8)
Divided in process groups (process indices):  0 (0)  1 (1)  2 (2)  3 (3)  4 (4)  5 (5)  6 (6)  7 (7)  8 (8)
Resource initialization completed at t[s]:      0.00
Run totals: 9 processes, 63 threads, 0 GPUs


Input parsed successfully to the following command list (including defaults):

add-mix 
add-U 	Ni d 0.235196 \
	V d 0.113923 \
	Co d 0.121273 \
	Cr d 0.128623
basis kpoint-dependent
coords-type Lattice
core-overlap-check vector
coulomb-interaction Periodic
davidson-band-ratio 1.1
dump End IonicPositions Lattice Ecomponents
dump-name run.$VAR
elec-cutoff 30
elec-eigen-algo Davidson
elec-ex-corr gga-x-rpbe gga-c-pbe
elec-smearing Fermi 0.001
electronic-minimize  \
	dirUpdateScheme      FletcherReeves \
	linminMethod         DirUpdateRecommended \
	nIterations          1000 \
	history              15 \
	knormThreshold       0 \
	energyDiffThreshold  1e-06 \
	nEnergyDiff          5 \
	alphaTstart          1 \
	alphaTmin            1e-10 \
	updateTestStepSize   yes \
	alphaTreduceFactor   0.1 \
	alphaTincreaseFactor 3 \
	nAlphaAdjustMax      3 \
	wolfeEnergy          0.0001 \
	wolfeGradient        0.9 \
	fdTest               no
exchange-regularization WignerSeitzTruncated
fluid None
fluid-ex-corr (null) lda-PZ
fluid-gummel-loop 10 1.000000e-05
fluid-minimize  \
	dirUpdateScheme      PolakRibiere \
	linminMethod         DirUpdateRecommended \
	nIterations          100 \
	history              15 \
	knormThreshold       0 \
	energyDiffThreshold  0 \
	nEnergyDiff          2 \
	alphaTstart          1 \
	alphaTmin            1e-10 \
	updateTestStepSize   yes \
	alphaTreduceFactor   0.1 \
	alphaTincreaseFactor 3 \
	nAlphaAdjustMax      3 \
	wolfeEnergy          0.0001 \
	wolfeGradient        0.9 \
	fdTest               no
fluid-solvent H2O 55.338 ScalarEOS \
	epsBulk 78.4 \
	pMol 0.92466 \
	epsInf 1.77 \
	Pvap 1.06736e-10 \
	sigmaBulk 4.62e-05 \
	Rvdw 2.61727 \
	Res 1.42 \
	tauNuc 343133 \
	poleEl 15 7 1
forces-output-coords Positions
initial-magnetic-moments  \
	Ni 1 -1 \
	V -1 1 1 \
	Co 1 1 -1 1 -1 -1 \
	Cr -1 -1 -1 1 1
initial-state run.$VAR
ion Ni  0.000000000000000   0.000000000000000   0.150000000000000 1
ion Ni  0.500000000000000   0.500000000000000   0.150000000000000 1
ion V  0.500000000000000   0.000000000000000   0.150000000000000 1
ion V  0.000000000000000   0.500000000000000   0.150000000000000 1
ion V  0.500000000000000   0.000000000000000  -0.050000000000000 0
ion Co  0.250000000000000   0.250000000000000   0.050000000000000 1
ion Co  0.250000000000000   0.750000000000000   0.050000000000000 1
ion Co  0.000000000000000   0.500000000000000  -0.050000000000000 0
ion Co  0.500000000000000   0.500000000000000  -0.050000000000000 0
ion Co  0.250000000000000   0.250000000000000  -0.150000000000000 0
ion Co  0.250000000000000   0.750000000000000  -0.150000000000000 0
ion Cr -0.250000000000000   0.250000000000000   0.050000000000000 1
ion Cr -0.250000000000000   0.750000000000000   0.050000000000000 1
ion Cr  0.000000000000000   0.000000000000000  -0.050000000000000 0
ion Cr -0.250000000000000   0.250000000000000  -0.150000000000000 0
ion Cr -0.250000000000000   0.750000000000000  -0.150000000000000 0
ion O  0.250000000000000   0.250000000000000   0.150000000000000 1
ion O  0.250000000000000   0.750000000000000   0.150000000000000 1
ion O -0.250000000000000   0.250000000000000   0.150000000000000 1
ion O -0.250000000000000   0.750000000000000   0.150000000000000 1
ion O  0.000000000000000   0.000000000000000   0.050000000000000 1
ion O  0.500000000000000   0.000000000000000   0.050000000000000 1
ion O  0.000000000000000   0.500000000000000   0.050000000000000 1
ion O  0.500000000000000   0.500000000000000   0.050000000000000 1
ion O  0.250000000000000   0.250000000000000  -0.050000000000000 0
ion O  0.250000000000000   0.750000000000000  -0.050000000000000 0
ion O -0.250000000000000   0.250000000000000  -0.050000000000000 0
ion O -0.250000000000000   0.750000000000000  -0.050000000000000 0
ion O  0.000000000000000   0.000000000000000  -0.150000000000000 0
ion O  0.500000000000000   0.000000000000000  -0.150000000000000 0
ion O  0.000000000000000   0.500000000000000  -0.150000000000000 0
ion O  0.500000000000000   0.500000000000000  -0.150000000000000 0
ion O -0.000095572322686   0.000198307128402   0.224876729873325 1
ion-species SG15/$ID_ONCV_PBE.upf
ion-width 0
ionic-minimize  \
	dirUpdateScheme      L-BFGS \
	linminMethod         DirUpdateRecommended \
	nIterations          1000 \
	history              15 \
	knormThreshold       0.0001 \
	energyDiffThreshold  0.0001 \
	nEnergyDiff          3 \
	alphaTstart          1 \
	alphaTmin            1e-10 \
	updateTestStepSize   yes \
	alphaTreduceFactor   0.1 \
	alphaTincreaseFactor 3 \
	nAlphaAdjustMax      3 \
	wolfeEnergy          0.0001 \
	wolfeGradient        0.9 \
	fdTest               no
kpoint   0.500000000000   0.500000000000   0.500000000000  1.00000000000000
kpoint-folding 3 3 1 
latt-move-scale 1 1 1
latt-scale 1 1 1 
lattice  \
	   8.140000000000001    8.140000000000001    0.000000000000000  \
	   8.140000000000001   -8.140000000000001    0.000000000000000  \
	   0.000000000000000    0.000000000000000   40.700000000000003 
lattice-minimize  \
	dirUpdateScheme      L-BFGS \
	linminMethod         DirUpdateRecommended \
	nIterations          0 \
	history              15 \
	knormThreshold       0 \
	energyDiffThreshold  1e-06 \
	nEnergyDiff          2 \
	alphaTstart          1 \
	alphaTmin            1e-10 \
	updateTestStepSize   yes \
	alphaTreduceFactor   0.1 \
	alphaTincreaseFactor 3 \
	nAlphaAdjustMax      3 \
	wolfeEnergy          0.0001 \
	wolfeGradient        0.9 \
	fdTest               no
lcao-params -1 1e-06 0.001
pcm-variant GLSSA13
spintype z-spin
subspace-rotation-factor 1 yes
symmetries none
symmetry-threshold 0.0001


Applied RMS atom displacement 0 bohrs to make symmetries exact.

---------- Initializing the Grid ----------
R = 
[         8.14         8.14            0  ]
[         8.14        -8.14            0  ]
[            0            0         40.7  ]
unit cell volume = 5393.53
G =
[   0.385945   0.385945         -0  ]
[   0.385945  -0.385945         -0  ]
[         -0         -0   0.154378  ]
Minimum fftbox size, Smin = [  60  60  204  ]
Chosen fftbox size, S = [  60  60  210  ]

---------- Exchange Correlation functional ----------
Initialized LibXC exchange functional 'Hammer, Hansen, and Norskov'
Initialized LibXC correlation functional 'Perdew, Burke & Ernzerhof'

---------- Setting up pseudopotentials ----------
Width of ionic core gaussian charges (only for fluid interactions / plotting) set to 0

Reading pseudopotential file '/data2/jt577/jdftx_eat_withLibXC/build/pseudopotentials/SG15/Ni_ONCV_PBE.upf':
  'Ni' pseudopotential, 'PBE' functional
  Generated using ONCVPSP code by D. R. Hamann
  Author: Martin Schlipf and Francois Gygi  Date: 150915.
  18 valence electrons, 4 orbitals, 6 projectors, 1292 radial grid points, with lMax = 2
  Transforming local potential to a uniform radial grid of dG=0.02 with 1419 points.
  Transforming nonlocal projectors to a uniform radial grid of dG=0.02 with 528 points.
    3S    l: 0   occupation:  2.0   eigenvalue: -4.081355
    3P    l: 1   occupation:  6.0   eigenvalue: -2.623460
    4S    l: 0   occupation:  2.0   eigenvalue: -0.207378
    3D    l: 2   occupation:  8.0   eigenvalue: -0.326118
  Transforming atomic orbitals to a uniform radial grid of dG=0.02 with 528 points.
  WARNING: large normalization error in atomic orbital 1s (integral: 0.000006).
  Core radius for overlap checks: 1.99 bohrs.
  Reading pulay file /data2/jt577/jdftx_eat_withLibXC/build/pseudopotentials/SG15/Ni_ONCV_PBE.pulay ... using dE_dnG = -7.250568e-04 computed for Ecut = 30.

Reading pseudopotential file '/data2/jt577/jdftx_eat_withLibXC/build/pseudopotentials/SG15/V_ONCV_PBE.upf':
  'V' pseudopotential, 'PBE' functional
  Generated using ONCVPSP code by D. R. Hamann
  Author: Martin Schlipf and Francois Gygi  Date: 150915.
  13 valence electrons, 4 orbitals, 6 projectors, 1536 radial grid points, with lMax = 2
  Transforming local potential to a uniform radial grid of dG=0.02 with 1419 points.
  Transforming nonlocal projectors to a uniform radial grid of dG=0.02 with 528 points.
    3S    l: 0   occupation:  2.0   eigenvalue: -2.581105
    3P    l: 1   occupation:  6.0   eigenvalue: -1.618486
    4S    l: 0   occupation:  2.0   eigenvalue: -0.172804
    3D    l: 2   occupation:  3.0   eigenvalue: -0.189795
  Transforming atomic orbitals to a uniform radial grid of dG=0.02 with 528 points.
  Core radius for overlap checks: 1.80 bohrs.
  Reading pulay file /data2/jt577/jdftx_eat_withLibXC/build/pseudopotentials/SG15/V_ONCV_PBE.pulay ... using dE_dnG = -1.698632e-04 computed for Ecut = 30.

Reading pseudopotential file '/data2/jt577/jdftx_eat_withLibXC/build/pseudopotentials/SG15/Co_ONCV_PBE.upf':
  'Co' pseudopotential, 'PBE' functional
  Generated using ONCVPSP code by D. R. Hamann
  Author: Martin Schlipf and Francois Gygi  Date: 150915.
  17 valence electrons, 4 orbitals, 6 projectors, 1388 radial grid points, with lMax = 2
  Transforming local potential to a uniform radial grid of dG=0.02 with 1419 points.
  Transforming nonlocal projectors to a uniform radial grid of dG=0.02 with 528 points.
    3S    l: 0   occupation:  2.0   eigenvalue: -3.763303
    3P    l: 1   occupation:  6.0   eigenvalue: -2.412101
    4S    l: 0   occupation:  2.0   eigenvalue: -0.201022
    3D    l: 2   occupation:  7.0   eigenvalue: -0.301498
  Transforming atomic orbitals to a uniform radial grid of dG=0.02 with 528 points.
  Core radius for overlap checks: 1.94 bohrs.
  Reading pulay file /data2/jt577/jdftx_eat_withLibXC/build/pseudopotentials/SG15/Co_ONCV_PBE.pulay ... using dE_dnG = -9.787391e-05 computed for Ecut = 30.

Reading pseudopotential file '/data2/jt577/jdftx_eat_withLibXC/build/pseudopotentials/SG15/Cr_ONCV_PBE.upf':
  'Cr' pseudopotential, 'PBE' functional
  Generated using ONCVPSP code by D. R. Hamann
  Author: Martin Schlipf and Francois Gygi  Date: 150915.
  14 valence electrons, 4 orbitals, 6 projectors, 1160 radial grid points, with lMax = 2
  Transforming local potential to a uniform radial grid of dG=0.02 with 1419 points.
  Transforming nonlocal projectors to a uniform radial grid of dG=0.02 with 528 points.
    3S    l: 0   occupation:  2.0   eigenvalue: -2.865131
    3P    l: 1   occupation:  6.0   eigenvalue: -1.810600
    4S    l: 0   occupation:  2.0   eigenvalue: -0.180525
    3D    l: 2   occupation:  4.0   eigenvalue: -0.220312
  Transforming atomic orbitals to a uniform radial grid of dG=0.02 with 528 points.
  WARNING: large normalization error in atomic orbital 1s (integral: 0.000001).
  Core radius for overlap checks: 2.10 bohrs.
  Reading pulay file /data2/jt577/jdftx_eat_withLibXC/build/pseudopotentials/SG15/Cr_ONCV_PBE.pulay ... using dE_dnG = -9.817895e-06 computed for Ecut = 30.

Reading pseudopotential file '/data2/jt577/jdftx_eat_withLibXC/build/pseudopotentials/SG15/O_ONCV_PBE.upf':
  'O' pseudopotential, 'PBE' functional
  Generated using ONCVPSP code by D. R. Hamann
  Author: Martin Schlipf and Francois Gygi  Date: 150915.
  6 valence electrons, 2 orbitals, 4 projectors, 936 radial grid points, with lMax = 1
  Transforming local potential to a uniform radial grid of dG=0.02 with 1419 points.
  Transforming nonlocal projectors to a uniform radial grid of dG=0.02 with 528 points.
    2S    l: 0   occupation:  2.0   eigenvalue: -0.880572
    2P    l: 1   occupation:  4.0   eigenvalue: -0.331869
  Transforming atomic orbitals to a uniform radial grid of dG=0.02 with 528 points.
  Core radius for overlap checks: 1.29 bohrs.
  Reading pulay file /data2/jt577/jdftx_eat_withLibXC/build/pseudopotentials/SG15/O_ONCV_PBE.pulay ... using dE_dnG = -8.209514e-03 computed for Ecut = 30.

Initialized 5 species with 33 total atoms.

Folded 1 k-points by 3x3x1 to 9 k-points.

---------- Setting up k-points, bands, fillings ----------
No reducable k-points. 
Computing the number of bands and number of electrons
Calculating initial fillings.
nElectrons: 349.000000   nBands: 228   nStates: 18

----- Setting up reduced wavefunction bases (one per k-point) -----
average nbasis = 42312.000 , ideal nbasis = 42330.081

---------- Setting up ewald sum ----------
Optimum gaussian width for ewald sums = 3.906449 bohr.
Real space sum over 605 unit cells with max indices [  5  5  2  ]
Reciprocal space sum over 5915 terms with max indices [  6  6  17  ]

---------- Allocating electronic variables ----------
Initializing wave functions:  linear combination of atomic orbitals
Ni (M=1) pseudo-atom majority spin occupations:   s ( 1 0.5 )  p ( 3 )  d ( 5 )
Ni (M=1) pseudo-atom minority spin occupations:   s ( 1 0 )  p ( 3 )  d ( 4.5 )
V (M=1) pseudo-atom majority spin occupations:   s ( 1 0 )  p ( 3 )  d ( 3 )
V (M=1) pseudo-atom minority spin occupations:   s ( 1 0 )  p ( 3 )  d ( 2 )
Co (M=1) pseudo-atom majority spin occupations:   s ( 1 0 )  p ( 3 )  d ( 5 )
Co (M=1) pseudo-atom minority spin occupations:   s ( 1 0 )  p ( 3 )  d ( 4 )
Cr (M=1) pseudo-atom majority spin occupations:   s ( 1 0 )  p ( 3 )  d ( 3.5 )
Cr (M=1) pseudo-atom minority spin occupations:   s ( 1 0 )  p ( 3 )  d ( 2.5 )
O pseudo-atom occupations:   s ( 2 )  p ( 4 )
	FillingsUpdate:  mu: +0.387084794  nElectrons: 349.000000  magneticMoment: [ Abs: 0.52100  Tot: +0.00000 ]
LCAOMinimize: Iter:   0  F: -1850.5676949103733477  |grad|_K:  1.341e-02  alpha:  1.000e+00
LCAOMinimize: 	Step increased F by 1.549286e+02, reducing alpha to 2.673886e-02.
	FillingsUpdate:  mu: +0.446477266  nElectrons: 349.000000  magneticMoment: [ Abs: 0.75067  Tot: -0.00000 ]
LCAOMinimize: Iter:   1  F: -1855.5771481306119313  |grad|_K:  1.784e-02  alpha:  2.674e-02  linmin: -6.210e-02  cgtest:  6.865e-01  t[s]:     77.88
LCAOMinimize: 	Wrong curvature in test step, increasing alphaT to 8.021658e-02.
	FillingsUpdate:  mu: +0.611008884  nElectrons: 349.000000  magneticMoment: [ Abs: 6.75574  Tot: -0.00000 ]
LCAOMinimize: Iter:   2  F: -1882.3329345703382387  |grad|_K:  2.249e-02  alpha: -1.830e-02  linmin: -4.654e-02  cgtest:  3.914e-01  t[s]:     97.89
LCAOMinimize: 	Step increased F by 1.044901e+02, reducing alpha to 4.254703e-02.
LCAOMinimize: 	Step increased F by 5.893544e+01, reducing alpha to 4.254703e-03.
	FillingsUpdate:  mu: +0.575742155  nElectrons: 349.000000  magneticMoment: [ Abs: 8.12210  Tot: -0.00000 ]
LCAOMinimize: Iter:   3  F: -1887.9443107626261735  |grad|_K:  2.566e-02  alpha:  4.255e-03  linmin: -3.766e-02  cgtest:  8.468e-01  t[s]:    150.34
LCAOMinimize: 	Wrong curvature in test step, increasing alphaT to 1.276411e-02.
	FillingsUpdate:  mu: +0.545681609  nElectrons: 349.000000  magneticMoment: [ Abs: 9.26797  Tot: -0.00000 ]
LCAOMinimize: Iter:   4  F: -1894.1622568373236390  |grad|_K:  2.711e-02  alpha: -4.619e-03  linmin: -4.771e-02  cgtest:  6.852e-01  t[s]:    170.42
LCAOMinimize: 	Step increased F by 9.438684e+01, reducing alpha to 4.203094e-02.
	FillingsUpdate:  mu: +2.230868209  nElectrons: 349.000000  magneticMoment: [ Abs: 6.15292  Tot: -0.00000 ]
LCAOMinimize: Iter:   5  F: -1913.4704800712991073  |grad|_K:  4.755e-02  alpha:  4.203e-02  linmin:  3.279e-02  cgtest: -2.847e-01  t[s]:    206.82
LCAOMinimize: 	Bad step direction: g.d > 0.
LCAOMinimize: 	Undoing step.
LCAOMinimize: 	Step failed: resetting search direction.
	FillingsUpdate:  mu: +2.230868209  nElectrons: 349.000000  magneticMoment: [ Abs: 6.15292  Tot: -0.00000 ]
LCAOMinimize: Iter:   6  F: -1913.4704800712991073  |grad|_K:  4.755e-02  alpha:  0.000e+00
	FillingsUpdate:  mu: +1.208330266  nElectrons: 349.000000  magneticMoment: [ Abs: 11.21749  Tot: -0.00000 ]
LCAOMinimize: Iter:   7  F: -1938.0903975096205158  |grad|_K:  4.720e-02  alpha:  1.741e-02  linmin:  9.720e-02  cgtest: -4.261e-01  t[s]:    243.08
LCAOMinimize: 	Bad step direction: g.d > 0.
LCAOMinimize: 	Undoing step.
LCAOMinimize: 	Step failed: resetting search direction.
	FillingsUpdate:  mu: +1.208330266  nElectrons: 349.000000  magneticMoment: [ Abs: 11.21749  Tot: -0.00000 ]
LCAOMinimize: Iter:   8  F: -1938.0903975096223348  |grad|_K:  4.720e-02  alpha:  0.000e+00
	FillingsUpdate:  mu: +0.784886228  nElectrons: 349.000000  magneticMoment: [ Abs: 10.17559  Tot: +0.00000 ]
LCAOMinimize: Iter:   9  F: -1949.8450096203721387  |grad|_K:  2.130e-02  alpha:  1.031e-02  linmin:  1.655e-02  cgtest: -1.365e-01  t[s]:    278.83
	FillingsUpdate:  mu: +0.549588024  nElectrons: 349.000000  magneticMoment: [ Abs: 8.42163  Tot: +0.00000 ]
LCAOMinimize: Iter:  10  F: -1951.8893437343181176  |grad|_K:  2.879e-02  alpha:  3.033e-02  linmin:  6.110e-02  cgtest:  2.577e-01  t[s]:    299.73
	FillingsUpdate:  mu: +0.551511585  nElectrons: 349.000000  magneticMoment: [ Abs: 10.05917  Tot: +0.00000 ]
LCAOMinimize: Iter:  11  F: -1953.0147303682992970  |grad|_K:  3.202e-02  alpha:  2.288e-02  linmin: -4.468e-03  cgtest:  9.113e-01  t[s]:    320.81
	FillingsUpdate:  mu: +0.301864258  nElectrons: 349.000000  magneticMoment: [ Abs: 9.02370  Tot: +0.00000 ]
LCAOMinimize: Iter:  12  F: -1958.9289446730056170  |grad|_K:  1.165e-02  alpha:  1.201e-02  linmin:  3.035e-02  cgtest: -8.151e-02  t[s]:    342.09
LCAOMinimize: 	Predicted alpha/alphaT>3.000000, increasing alphaT to 3.604119e-02.
	FillingsUpdate:  mu: +0.000987093  nElectrons: 349.000000  magneticMoment: [ Abs: 8.22124  Tot: +0.00000 ]
LCAOMinimize: Iter:  13  F: -1961.0725062838293979  |grad|_K:  1.085e-02  alpha:  4.127e-02  linmin:  4.693e-02  cgtest: -3.942e-01  t[s]:    369.50
	FillingsUpdate:  mu: +0.027316799  nElectrons: 349.000000  magneticMoment: [ Abs: 8.60023  Tot: +0.00000 ]
LCAOMinimize: Iter:  14  F: -1961.3138346175092011  |grad|_K:  1.215e-02  alpha:  6.301e-03  linmin: -1.682e-02  cgtest:  9.619e-01  t[s]:    390.49
LCAOMinimize: 	Predicted alpha/alphaT>3.000000, increasing alphaT to 1.890224e-02.
	FillingsUpdate:  mu: +0.428301727  nElectrons: 349.000000  magneticMoment: [ Abs: 9.53353  Tot: -0.00000 ]
LCAOMinimize: Iter:  15  F: -1962.5711977694224970  |grad|_K:  1.429e-02  alpha:  2.684e-02  linmin:  7.294e-02  cgtest: -2.858e-01  t[s]:    417.19
LCAOMinimize: 	Bad step direction: g.d > 0.
LCAOMinimize: 	Undoing step.
LCAOMinimize: 	Step failed: resetting search direction.
	FillingsUpdate:  mu: +0.428301727  nElectrons: 349.000000  magneticMoment: [ Abs: 9.53353  Tot: -0.00000 ]
LCAOMinimize: Iter:  16  F: -1962.5711977694224970  |grad|_K:  1.429e-02  alpha:  0.000e+00
	FillingsUpdate:  mu: +0.059982480  nElectrons: 349.000000  magneticMoment: [ Abs: 9.50069  Tot: +0.00000 ]
LCAOMinimize: Iter:  17  F: -1963.6766473498844334  |grad|_K:  6.973e-03  alpha:  1.685e-02  linmin:  2.419e-03  cgtest: -5.889e-01  t[s]:    453.13
	FillingsUpdate:  mu: -0.020684563  nElectrons: 349.000000  magneticMoment: [ Abs: 10.19355  Tot: -0.00000 ]
LCAOMinimize: Iter:  18  F: -1964.2600486283422470  |grad|_K:  8.964e-03  alpha:  2.571e-02  linmin:  3.020e-03  cgtest:  7.581e-02  t[s]:    473.83
	FillingsUpdate:  mu: -0.023902258  nElectrons: 349.000000  magneticMoment: [ Abs: 10.52498  Tot: -0.00000 ]
LCAOMinimize: Iter:  19  F: -1964.4489567483760766  |grad|_K:  9.004e-03  alpha:  2.620e-03  linmin: -5.468e-02  cgtest:  9.659e-01  t[s]:    495.38
LCAOMinimize: 	Predicted alpha/alphaT>3.000000, increasing alphaT to 7.861383e-03.
	FillingsUpdate:  mu: +0.211276701  nElectrons: 349.000000  magneticMoment: [ Abs: 11.76479  Tot: +0.00000 ]
LCAOMinimize: Iter:  20  F: -1964.9418086297102946  |grad|_K:  9.714e-03  alpha:  2.166e-02  linmin:  1.161e-01  cgtest: -6.028e-01  t[s]:    522.83
LCAOMinimize: 	Bad step direction: g.d > 0.
LCAOMinimize: 	Undoing step.
LCAOMinimize: 	Step failed: resetting search direction.
	FillingsUpdate:  mu: +0.211276701  nElectrons: 349.000000  magneticMoment: [ Abs: 11.76479  Tot: +0.00000 ]
LCAOMinimize: Iter:  21  F: -1964.9418086297102946  |grad|_K:  9.714e-03  alpha:  0.000e+00
	FillingsUpdate:  mu: +0.092208047  nElectrons: 349.000000  magneticMoment: [ Abs: 11.21515  Tot: -0.00000 ]
LCAOMinimize: Iter:  22  F: -1965.2959578172867623  |grad|_K:  3.798e-03  alpha:  9.022e-03  linmin:  3.483e-02  cgtest: -2.505e-01  t[s]:    560.86
	FillingsUpdate:  mu: +0.029443768  nElectrons: 349.000000  magneticMoment: [ Abs: 11.34797  Tot: -0.00000 ]
LCAOMinimize: Iter:  23  F: -1965.3646500278748590  |grad|_K:  2.119e-03  alpha:  1.197e-02  linmin: -3.412e-03  cgtest:  3.799e-01  t[s]:    582.02
	FillingsUpdate:  mu: +0.046743448  nElectrons: 349.000000  magneticMoment: [ Abs: 11.60068  Tot: -0.00000 ]
LCAOMinimize: Iter:  24  F: -1965.4089988023424667  |grad|_K:  2.195e-03  alpha:  2.074e-02  linmin: -4.832e-04  cgtest: -2.996e-02  t[s]:    602.84
	FillingsUpdate:  mu: +0.078371104  nElectrons: 349.000000  magneticMoment: [ Abs: 11.75094  Tot: +0.00000 ]
LCAOMinimize: Iter:  25  F: -1965.4595224054357914  |grad|_K:  2.135e-03  alpha:  2.204e-02  linmin: -2.959e-04  cgtest: -5.488e-02  t[s]:    623.95
	FillingsUpdate:  mu: +0.056026538  nElectrons: 349.000000  magneticMoment: [ Abs: 12.04622  Tot: +0.00000 ]
LCAOMinimize: Iter:  26  F: -1965.5183998272750614  |grad|_K:  1.436e-03  alpha:  2.712e-02  linmin: -1.754e-04  cgtest:  4.567e-01  t[s]:    645.27
	FillingsUpdate:  mu: +0.042672542  nElectrons: 349.000000  magneticMoment: [ Abs: 12.14306  Tot: -0.00000 ]
LCAOMinimize: Iter:  27  F: -1965.5334703556679870  |grad|_K:  1.314e-03  alpha:  1.584e-02  linmin:  3.445e-04  cgtest: -2.255e-02  t[s]:    666.66
	FillingsUpdate:  mu: +0.053636550  nElectrons: 349.000000  magneticMoment: [ Abs: 12.14198  Tot: +0.00000 ]
LCAOMinimize: Iter:  28  F: -1965.5616035833907063  |grad|_K:  7.805e-04  alpha:  3.397e-02  linmin: -2.622e-03  cgtest: -1.341e-01  t[s]:    687.93
LCAOMinimize: 	Predicted alpha/alphaT>3.000000, increasing alphaT to 1.019027e-01.
	FillingsUpdate:  mu: +0.049983172  nElectrons: 349.000000  magneticMoment: [ Abs: 13.03385  Tot: +0.00000 ]
LCAOMinimize: Iter:  29  F: -1965.6021977190373491  |grad|_K:  2.024e-03  alpha:  1.356e-01  linmin:  3.795e-04  cgtest: -1.151e-01  t[s]:    715.59
	FillingsUpdate:  mu: +0.056640617  nElectrons: 349.000000  magneticMoment: [ Abs: 14.17399  Tot: +0.00000 ]
LCAOMinimize: Iter:  30  F: -1965.6415324136485197  |grad|_K:  1.540e-03  alpha:  2.452e-02  linmin:  1.038e-03  cgtest:  5.917e-01  t[s]:    737.09
LCAOMinimize: None of the convergence criteria satisfied after 30 iterations.


---- Citations for features of the code used in this run ----

   Software package:
      R. Sundararaman, K. Letchworth-Weaver, K.A. Schwarz, D. Gunceler, Y. Ozhabes and T.A. Arias, 'JDFTx: software for joint density-functional theory', SoftwareX 6, 278 (2017)

   Simplified rotationally-invariant DFT+U:
      S. L. Dudarev et al., Phys. Rev. B 57, 1505 (1998)

   LibXC library of exchange-correlation functions:
      M. A. L. Marques, M. J. T. Oliveira and T. Burnus, Comput. Phys. Commun. 183, 2272 (2012)

   Hammer, Hansen, and Norskov exchange functional:
      B. Hammer, L. B. Hansen, and J. K. Nørskov, Phys. Rev. B 59, 7413 (1999)

   Perdew, Burke & Ernzerhof correlation functional:
      J. P. Perdew, K. Burke, and M. Ernzerhof, Phys. Rev. Lett. 77, 3865 (1996)

   Pseudopotentials:
      M Schlipf and F Gygi, Comput. Phys. Commun. 196, 36 (2015)

   Total energy minimization with Auxiliary Hamiltonian:
      C. Freysoldt, S. Boeck, and J. Neugebauer, Phys. Rev. B 79, 241103(R) (2009)

This list may not be complete. Please suggest additional citations or
report any other bugs at https://github.com/shankar1729/jdftx/issues

Initialization completed successfully at t[s]:    744.49


-------- Electronic minimization -----------
	FillingsUpdate:  mu: +0.056640626  nElectrons: 349.000000  magneticMoment: [ Abs: 14.17399  Tot: +0.00000 ]
ElecMinimize: Iter:   0  F: -1965.641532413647155  |grad|_K:  6.823e-04  alpha:  1.000e+00
	FillingsUpdate:  mu: +0.462896881  nElectrons: 349.000000  magneticMoment: [ Abs: 15.05224  Tot: +0.00000 ]
	SubspaceRotationAdjust: set factor to 0.976
ElecMinimize: Iter:   1  F: -1987.725614606251611  |grad|_K:  1.025e-03  alpha:  4.508e-01  linmin:  5.982e-03  t[s]:    812.74
ElecMinimize: 	Step increased F by 5.515036e+00, reducing alpha to 5.526539e-03.
	FillingsUpdate:  mu: +0.428928276  nElectrons: 349.000000  magneticMoment: [ Abs: 15.18508  Tot: +0.00000 ]
	SubspaceRotationAdjust: set factor to 1.07
ElecMinimize: Iter:   2  F: -1989.983205379470064  |grad|_K:  7.590e-04  alpha:  5.527e-03  linmin: -4.589e-03  t[s]:    887.37
ElecMinimize: 	Predicted alpha/alphaT>3.000000, increasing alphaT to 1.657962e-02.
	FillingsUpdate:  mu: +0.563700536  nElectrons: 349.000000  magneticMoment: [ Abs: 16.81388  Tot: +0.00000 ]
	SubspaceRotationAdjust: set factor to 0.628
ElecMinimize: Iter:   3  F: -1992.924040813126112  |grad|_K:  1.389e-03  alpha:  2.533e-02  linmin:  5.969e-03  t[s]:    946.76
ElecMinimize: 	Bad step direction: g.d > 0.
ElecMinimize: 	Undoing step.
ElecMinimize: 	Step failed: resetting search direction.
	FillingsUpdate:  mu: +0.563700536  nElectrons: 349.000000  magneticMoment: [ Abs: 16.81388  Tot: +0.00000 ]
	SubspaceRotationAdjust: set factor to 0.406
ElecMinimize: Iter:   4  F: -1992.924040813120655  |grad|_K:  1.116e-03  alpha:  0.000e+00
	FillingsUpdate:  mu: +0.249127049  nElectrons: 349.000000  magneticMoment: [ Abs: 16.21497  Tot: -0.00000 ]
	SubspaceRotationAdjust: set factor to 0.235
ElecMinimize: Iter:   5  F: -1997.097044722543615  |grad|_K:  5.724e-04  alpha:  1.982e-02  linmin: -7.238e-04  t[s]:   1025.73
ElecMinimize: 	Predicted alpha/alphaT>3.000000, increasing alphaT to 5.946436e-02.
ElecMinimize: 	Predicted alpha/alphaT>3.000000, increasing alphaT to 1.783931e-01.
	FillingsUpdate:  mu: +0.509418686  nElectrons: 349.000000  magneticMoment: [ Abs: 18.98760  Tot: +0.00000 ]
	SubspaceRotationAdjust: set factor to 0.204
ElecMinimize: Iter:   6  F: -2011.113654277286969  |grad|_K:  5.687e-04  alpha:  2.558e-01  linmin:  2.627e-03  t[s]:   1100.14
	FillingsUpdate:  mu: +0.251486490  nElectrons: 349.000000  magneticMoment: [ Abs: 20.79817  Tot: -0.00000 ]
	SubspaceRotationAdjust: set factor to 0.192
ElecMinimize: Iter:   7  F: -2013.313561147389237  |grad|_K:  4.387e-04  alpha:  5.341e-02  linmin:  5.119e-04  t[s]:   1147.29
	FillingsUpdate:  mu: +0.322123431  nElectrons: 349.000000  magneticMoment: [ Abs: 22.59285  Tot: -0.00000 ]
	SubspaceRotationAdjust: set factor to 0.134
	SubspaceRotationAdjust: resetting CG because factor has changed by 0.134478
ElecMinimize: 	State modified externally: resetting search direction.
ElecMinimize: Iter:   8  F: -2017.164205975105233  |grad|_K:  4.278e-04  alpha:  1.263e-01
	FillingsUpdate:  mu: +0.164761524  nElectrons: 349.000000  magneticMoment: [ Abs: 21.21786  Tot: -0.00000 ]
	SubspaceRotationAdjust: set factor to 0.102
ElecMinimize: Iter:   9  F: -2019.532641154637531  |grad|_K:  2.187e-04  alpha:  7.933e-02  linmin: -1.205e-03  t[s]:   1262.81
	FillingsUpdate:  mu: +0.203136848  nElectrons: 349.000000  magneticMoment: [ Abs: 21.88560  Tot: -0.00000 ]
	SubspaceRotationAdjust: set factor to 0.0885
ElecMinimize: Iter:  10  F: -2020.961144973837918  |grad|_K:  7.779e-05  alpha:  1.683e-01  linmin: -1.173e-03  t[s]:   1309.70
	FillingsUpdate:  mu: +0.135031430  nElectrons: 349.000000  magneticMoment: [ Abs: 22.03172  Tot: -0.00000 ]
	SubspaceRotationAdjust: set factor to 0.0719
ElecMinimize: Iter:  11  F: -2021.360114532574244  |grad|_K:  7.385e-05  alpha:  3.600e-01  linmin: -6.983e-04  t[s]:   1357.11
	FillingsUpdate:  mu: +0.137197448  nElectrons: 349.000000  magneticMoment: [ Abs: 23.13071  Tot: +0.00000 ]
	SubspaceRotationAdjust: set factor to 0.0524
ElecMinimize: Iter:  12  F: -2021.694850207961281  |grad|_K:  8.185e-05  alpha:  3.237e-01  linmin: -3.907e-04  t[s]:   1405.20
	FillingsUpdate:  mu: +0.152111221  nElectrons: 349.000000  magneticMoment: [ Abs: 24.39296  Tot: +0.00000 ]
	SubspaceRotationAdjust: set factor to 0.0541
ElecMinimize: Iter:  13  F: -2022.044380911645248  |grad|_K:  5.052e-05  alpha:  2.765e-01  linmin: -4.500e-04  t[s]:   1452.40
	FillingsUpdate:  mu: +0.128382801  nElectrons: 349.000000  magneticMoment: [ Abs: 25.56778  Tot: +0.00000 ]
	SubspaceRotationAdjust: set factor to 0.0639
ElecMinimize: Iter:  14  F: -2022.270977226748755  |grad|_K:  5.232e-05  alpha:  4.456e-01  linmin: -2.125e-04  t[s]:   1499.80
	FillingsUpdate:  mu: +0.127038580  nElectrons: 349.000000  magneticMoment: [ Abs: 27.37548  Tot: +0.00000 ]
	SubspaceRotationAdjust: set factor to 0.0609
ElecMinimize: Iter:  15  F: -2022.480777338609869  |grad|_K:  5.600e-05  alpha:  4.107e-01  linmin: -4.441e-04  t[s]:   1547.36
	FillingsUpdate:  mu: +0.145827805  nElectrons: 349.000000  magneticMoment: [ Abs: 28.77836  Tot: +0.00000 ]
	SubspaceRotationAdjust: set factor to 0.0504
ElecMinimize: Iter:  16  F: -2022.691489517016635  |grad|_K:  5.562e-05  alpha:  2.811e-01  linmin: -2.612e-04  t[s]:   1595.01
	FillingsUpdate:  mu: +0.158447792  nElectrons: 349.000000  magneticMoment: [ Abs: 30.85916  Tot: -0.00000 ]
	SubspaceRotationAdjust: set factor to 0.0504
ElecMinimize: Iter:  17  F: -2022.931986063915929  |grad|_K:  7.978e-05  alpha:  3.905e-01  linmin: -1.354e-04  t[s]:   1642.38
	FillingsUpdate:  mu: +0.152789170  nElectrons: 349.000000  magneticMoment: [ Abs: 31.54503  Tot: +0.00000 ]
	SubspaceRotationAdjust: set factor to 0.0592
ElecMinimize: Iter:  18  F: -2023.024985450265831  |grad|_K:  7.381e-05  alpha:  6.289e-02  linmin: -8.760e-04  t[s]:   1689.92
	FillingsUpdate:  mu: +0.156963858  nElectrons: 349.000000  magneticMoment: [ Abs: 32.98622  Tot: -0.00000 ]
	SubspaceRotationAdjust: set factor to 0.0713
ElecMinimize: Iter:  19  F: -2023.276086817313626  |grad|_K:  5.937e-05  alpha:  1.542e-01  linmin:  9.126e-05  t[s]:   1736.92
	FillingsUpdate:  mu: +0.155862000  nElectrons: 349.000000  magneticMoment: [ Abs: 33.78161  Tot: -0.00000 ]
	SubspaceRotationAdjust: set factor to 0.0907
ElecMinimize: Iter:  20  F: -2023.355478298034541  |grad|_K:  5.930e-05  alpha:  1.402e-01  linmin: -1.457e-04  t[s]:   1783.37
	FillingsUpdate:  mu: +0.149341640  nElectrons: 349.000000  magneticMoment: [ Abs: 34.05861  Tot: +0.00000 ]
	SubspaceRotationAdjust: set factor to 0.0982
ElecMinimize: Iter:  21  F: -2023.431718174558000  |grad|_K:  5.911e-05  alpha:  8.414e-02  linmin: -4.069e-04  t[s]:   1829.98
	FillingsUpdate:  mu: +0.145340208  nElectrons: 349.000000  magneticMoment: [ Abs: 34.10531  Tot: -0.00000 ]
	SubspaceRotationAdjust: set factor to 0.0757
ElecMinimize: Iter:  22  F: -2023.476792934946161  |grad|_K:  6.798e-05  alpha:  5.060e-02  linmin: -6.698e-05  t[s]:   1877.29
	FillingsUpdate:  mu: +0.141743938  nElectrons: 349.000000  magneticMoment: [ Abs: 34.13402  Tot: +0.00000 ]
	SubspaceRotationAdjust: set factor to 0.0541
ElecMinimize: Iter:  23  F: -2023.506399569594123  |grad|_K:  7.218e-05  alpha:  3.501e-02  linmin: -1.239e-05  t[s]:   1924.76
	FillingsUpdate:  mu: +0.138408089  nElectrons: 349.000000  magneticMoment: [ Abs: 34.20724  Tot: +0.00000 ]
	SubspaceRotationAdjust: set factor to 0.0435
ElecMinimize: Iter:  24  F: -2023.540493069390550  |grad|_K:  6.820e-05  alpha:  3.724e-02  linmin:  5.395e-06  t[s]:   1971.30
	FillingsUpdate:  mu: +0.127290984  nElectrons: 349.000000  magneticMoment: [ Abs: 34.32612  Tot: -0.00000 ]
	SubspaceRotationAdjust: set factor to 0.0413
ElecMinimize: Iter:  25  F: -2023.574107928576041  |grad|_K:  6.563e-05  alpha:  4.175e-02  linmin:  4.630e-06  t[s]:   2018.25
	FillingsUpdate:  mu: +0.127606799  nElectrons: 349.000000  magneticMoment: [ Abs: 34.49484  Tot: +0.00000 ]
	SubspaceRotationAdjust: set factor to 0.0422
ElecMinimize: Iter:  26  F: -2023.609562628219237  |grad|_K:  6.618e-05  alpha:  4.745e-02  linmin:  3.706e-06  t[s]:   2064.39
	FillingsUpdate:  mu: +0.129318812  nElectrons: 349.000000  magneticMoment: [ Abs: 34.70065  Tot: +0.00000 ]
	SubspaceRotationAdjust: set factor to 0.0439
ElecMinimize: Iter:  27  F: -2023.646939631905752  |grad|_K:  6.699e-05  alpha:  4.917e-02  linmin:  4.024e-06  t[s]:   2110.80
	FillingsUpdate:  mu: +0.130074906  nElectrons: 349.000000  magneticMoment: [ Abs: 34.91442  Tot: +0.00000 ]
	SubspaceRotationAdjust: set factor to 0.051
ElecMinimize: Iter:  28  F: -2023.685277550826640  |grad|_K:  6.547e-05  alpha:  4.926e-02  linmin:  7.073e-06  t[s]:   2157.46
	FillingsUpdate:  mu: +0.122096566  nElectrons: 349.000000  magneticMoment: [ Abs: 35.09513  Tot: -0.00000 ]
	SubspaceRotationAdjust: set factor to 0.0721
ElecMinimize: Iter:  29  F: -2023.718903815504063  |grad|_K:  6.112e-05  alpha:  4.525e-02  linmin:  2.302e-05  t[s]:   2204.87
	FillingsUpdate:  mu: +0.124075819  nElectrons: 349.000000  magneticMoment: [ Abs: 35.22643  Tot: -0.00000 ]
	SubspaceRotationAdjust: set factor to 0.089
ElecMinimize: Iter:  30  F: -2023.742197521910157  |grad|_K:  5.663e-05  alpha:  3.615e-02  linmin:  1.806e-05  t[s]:   2252.35
	FillingsUpdate:  mu: +0.123753126  nElectrons: 349.000000  magneticMoment: [ Abs: 35.33615  Tot: +0.00000 ]
	SubspaceRotationAdjust: set factor to 0.1
ElecMinimize: Iter:  31  F: -2023.758460190067353  |grad|_K:  5.361e-05  alpha:  2.910e-02  linmin:  1.995e-05  t[s]:   2299.60
	FillingsUpdate:  mu: +0.123705977  nElectrons: 349.000000  magneticMoment: [ Abs: 35.43912  Tot: +0.00000 ]
	SubspaceRotationAdjust: set factor to 0.115
ElecMinimize: Iter:  32  F: -2023.770152540966592  |grad|_K:  5.294e-05  alpha:  2.283e-02  linmin:  3.077e-05  t[s]:   2346.26
	FillingsUpdate:  mu: +0.121539592  nElectrons: 349.000000  magneticMoment: [ Abs: 35.51594  Tot: -0.00000 ]
	SubspaceRotationAdjust: set factor to 0.139
ElecMinimize: Iter:  33  F: -2023.777266836309536  |grad|_K:  5.240e-05  alpha:  1.327e-02  linmin: -6.862e-05  t[s]:   2392.66
	FillingsUpdate:  mu: +0.119223748  nElectrons: 349.000000  magneticMoment: [ Abs: 35.58143  Tot: -0.00000 ]
	SubspaceRotationAdjust: set factor to 0.176
ElecMinimize: Iter:  34  F: -2023.782346911604691  |grad|_K:  5.198e-05  alpha:  9.259e-03  linmin: -6.226e-06  t[s]:   2439.06
	FillingsUpdate:  mu: +0.117172099  nElectrons: 349.000000  magneticMoment: [ Abs: 35.62131  Tot: +0.00000 ]
	SubspaceRotationAdjust: set factor to 0.229
ElecMinimize: Iter:  35  F: -2023.784963424105172  |grad|_K:  5.264e-05  alpha:  4.641e-03  linmin: -1.678e-04  t[s]:   2485.33
	FillingsUpdate:  mu: +0.114023688  nElectrons: 349.000000  magneticMoment: [ Abs: 35.66032  Tot: +0.00000 ]
	SubspaceRotationAdjust: set factor to 0.279
ElecMinimize: Iter:  36  F: -2023.786977804927574  |grad|_K:  5.418e-05  alpha:  3.425e-03  linmin:  2.760e-05  t[s]:   2531.88
	FillingsUpdate:  mu: +0.111652359  nElectrons: 349.000000  magneticMoment: [ Abs: 35.68421  Tot: -0.00000 ]
	SubspaceRotationAdjust: set factor to 0.301
ElecMinimize: Iter:  37  F: -2023.787845317203619  |grad|_K:  5.602e-05  alpha:  1.490e-03  linmin: -1.486e-04  t[s]:   2578.70
	FillingsUpdate:  mu: +0.108512037  nElectrons: 349.000000  magneticMoment: [ Abs: 35.71273  Tot: -0.00000 ]
	SubspaceRotationAdjust: set factor to 0.308
ElecMinimize: Iter:  38  F: -2023.788642803669063  |grad|_K:  5.657e-05  alpha:  1.294e-03  linmin:  6.051e-05  t[s]:   2625.33
	FillingsUpdate:  mu: +0.105924133  nElectrons: 349.000000  magneticMoment: [ Abs: 35.73552  Tot: -0.00000 ]
	SubspaceRotationAdjust: set factor to 0.307
ElecMinimize: Iter:  39  F: -2023.789094491004562  |grad|_K:  5.663e-05  alpha:  8.202e-04  linmin: -6.587e-06  t[s]:   2671.85
	FillingsUpdate:  mu: +0.103101618  nElectrons: 349.000000  magneticMoment: [ Abs: 35.76030  Tot: -0.00000 ]
	SubspaceRotationAdjust: set factor to 0.302
ElecMinimize: Iter:  40  F: -2023.789525040323042  |grad|_K:  5.641e-05  alpha:  7.652e-04  linmin:  2.423e-05  t[s]:   2719.02
	FillingsUpdate:  mu: +0.100239215  nElectrons: 349.000000  magneticMoment: [ Abs: 35.78489  Tot: -0.00000 ]
	SubspaceRotationAdjust: set factor to 0.295
ElecMinimize: Iter:  41  F: -2023.789899387347759  |grad|_K:  5.607e-05  alpha:  6.846e-04  linmin:  1.592e-05  t[s]:   2765.88
	FillingsUpdate:  mu: +0.097299619  nElectrons: 349.000000  magneticMoment: [ Abs: 35.80954  Tot: -0.00000 ]
	SubspaceRotationAdjust: set factor to 0.287
ElecMinimize: Iter:  42  F: -2023.790248527702715  |grad|_K:  5.567e-05  alpha:  6.434e-04  linmin:  2.208e-05  t[s]:   2812.68
	FillingsUpdate:  mu: +0.094501538  nElectrons: 349.000000  magneticMoment: [ Abs: 35.83287  Tot: +0.00000 ]
	SubspaceRotationAdjust: set factor to 0.277
ElecMinimize: Iter:  43  F: -2023.790561322648045  |grad|_K:  5.528e-05  alpha:  5.857e-04  linmin:  2.651e-05  t[s]:   2859.87
	FillingsUpdate:  mu: +0.091966229  nElectrons: 349.000000  magneticMoment: [ Abs: 35.85411  Tot: -0.00000 ]
	SubspaceRotationAdjust: set factor to 0.267
ElecMinimize: Iter:  44  F: -2023.790835246153392  |grad|_K:  5.491e-05  alpha:  5.206e-04  linmin:  2.871e-05  t[s]:   2906.93
	FillingsUpdate:  mu: +0.089638059  nElectrons: 349.000000  magneticMoment: [ Abs: 35.87310  Tot: -0.00000 ]
	SubspaceRotationAdjust: set factor to 0.257
ElecMinimize: Iter:  45  F: -2023.791072874203792  |grad|_K:  5.457e-05  alpha:  4.579e-04  linmin:  2.903e-05  t[s]:   2953.94
	FillingsUpdate:  mu: +0.087431117  nElectrons: 349.000000  magneticMoment: [ Abs: 35.89001  Tot: +0.00000 ]
	SubspaceRotationAdjust: set factor to 0.246
ElecMinimize: Iter:  46  F: -2023.791279464245463  |grad|_K:  5.426e-05  alpha:  4.031e-04  linmin:  2.888e-05  t[s]:   3000.86
	FillingsUpdate:  mu: +0.085350532  nElectrons: 349.000000  magneticMoment: [ Abs: 35.90512  Tot: +0.00000 ]
	SubspaceRotationAdjust: set factor to 0.235
ElecMinimize: Iter:  47  F: -2023.791460218619932  |grad|_K:  5.397e-05  alpha:  3.569e-04  linmin:  2.836e-05  t[s]:   3047.56
	FillingsUpdate:  mu: +0.083402408  nElectrons: 349.000000  magneticMoment: [ Abs: 35.91869  Tot: -0.00000 ]
	SubspaceRotationAdjust: set factor to 0.225
ElecMinimize: Iter:  48  F: -2023.791619783246233  |grad|_K:  5.370e-05  alpha:  3.186e-04  linmin:  2.758e-05  t[s]:   3093.77
	FillingsUpdate:  mu: +0.081550820  nElectrons: 349.000000  magneticMoment: [ Abs: 35.93099  Tot: +0.00000 ]
	SubspaceRotationAdjust: set factor to 0.214
ElecMinimize: Iter:  49  F: -2023.791762062021235  |grad|_K:  5.344e-05  alpha:  2.871e-04  linmin:  2.651e-05  t[s]:   3139.31
	FillingsUpdate:  mu: +0.079762584  nElectrons: 349.000000  magneticMoment: [ Abs: 35.94223  Tot: -0.00000 ]
	SubspaceRotationAdjust: set factor to 0.204
ElecMinimize: Iter:  50  F: -2023.791890296078691  |grad|_K:  5.320e-05  alpha:  2.613e-04  linmin:  2.521e-05  t[s]:   3184.92
	FillingsUpdate:  mu: +0.078033260  nElectrons: 349.000000  magneticMoment: [ Abs: 35.95260  Tot: +0.00000 ]
	SubspaceRotationAdjust: set factor to 0.195
ElecMinimize: Iter:  51  F: -2023.792007143617184  |grad|_K:  5.296e-05  alpha:  2.403e-04  linmin:  2.372e-05  t[s]:   3230.74
	FillingsUpdate:  mu: +0.076368066  nElectrons: 349.000000  magneticMoment: [ Abs: 35.96227  Tot: -0.00000 ]
	SubspaceRotationAdjust: set factor to 0.186
ElecMinimize: Iter:  52  F: -2023.792114780326528  |grad|_K:  5.274e-05  alpha:  2.233e-04  linmin:  2.209e-05  t[s]:   3277.21
	FillingsUpdate:  mu: +0.074765822  nElectrons: 349.000000  magneticMoment: [ Abs: 35.97138  Tot: -0.00000 ]
	SubspaceRotationAdjust: set factor to 0.177
ElecMinimize: Iter:  53  F: -2023.792214982687938  |grad|_K:  5.252e-05  alpha:  2.096e-04  linmin:  2.037e-05  t[s]:   3323.54
	FillingsUpdate:  mu: +0.073220008  nElectrons: 349.000000  magneticMoment: [ Abs: 35.98003  Tot: -0.00000 ]
	SubspaceRotationAdjust: set factor to 0.169
ElecMinimize: Iter:  54  F: -2023.792309210446774  |grad|_K:  5.231e-05  alpha:  1.986e-04  linmin:  1.860e-05  t[s]:   3369.10
	FillingsUpdate:  mu: +0.071722188  nElectrons: 349.000000  magneticMoment: [ Abs: 35.98832  Tot: -0.00000 ]
	SubspaceRotationAdjust: set factor to 0.161
ElecMinimize: Iter:  55  F: -2023.792398672400850  |grad|_K:  5.210e-05  alpha:  1.900e-04  linmin:  1.681e-05  t[s]:   3414.78
	FillingsUpdate:  mu: +0.070263387  nElectrons: 349.000000  magneticMoment: [ Abs: 35.99635  Tot: -0.00000 ]
	SubspaceRotationAdjust: set factor to 0.153
ElecMinimize: Iter:  56  F: -2023.792484382677003  |grad|_K:  5.190e-05  alpha:  1.833e-04  linmin:  1.501e-05  t[s]:   3460.80
	FillingsUpdate:  mu: +0.068834468  nElectrons: 349.000000  magneticMoment: [ Abs: 36.00418  Tot: -0.00000 ]
	SubspaceRotationAdjust: set factor to 0.146
ElecMinimize: Iter:  57  F: -2023.792567206711055  |grad|_K:  5.170e-05  alpha:  1.784e-04  linmin:  1.322e-05  t[s]:   3506.80
	FillingsUpdate:  mu: +0.067426221  nElectrons: 349.000000  magneticMoment: [ Abs: 36.01189  Tot: +0.00000 ]
	SubspaceRotationAdjust: set factor to 0.139
ElecMinimize: Iter:  58  F: -2023.792647896578956  |grad|_K:  5.150e-05  alpha:  1.750e-04  linmin:  1.144e-05  t[s]:   3552.88
	FillingsUpdate:  mu: +0.066029436  nElectrons: 349.000000  magneticMoment: [ Abs: 36.01953  Tot: -0.00000 ]
	SubspaceRotationAdjust: set factor to 0.132
ElecMinimize: Iter:  59  F: -2023.792727122125825  |grad|_K:  5.130e-05  alpha:  1.730e-04  linmin:  9.681e-06  t[s]:   3599.13
	FillingsUpdate:  mu: +0.064635047  nElectrons: 349.000000  magneticMoment: [ Abs: 36.02717  Tot: -0.00000 ]
	SubspaceRotationAdjust: set factor to 0.126
ElecMinimize: Iter:  60  F: -2023.792805491245645  |grad|_K:  5.109e-05  alpha:  1.723e-04  linmin:  7.941e-06  t[s]:   3645.27
	FillingsUpdate:  mu: +0.063234161  nElectrons: 349.000000  magneticMoment: [ Abs: 36.03485  Tot: -0.00000 ]
	SubspaceRotationAdjust: set factor to 0.12
ElecMinimize: Iter:  61  F: -2023.792883571943321  |grad|_K:  5.089e-05  alpha:  1.728e-04  linmin:  6.206e-06  t[s]:   3691.30
	FillingsUpdate:  mu: +0.061818015  nElectrons: 349.000000  magneticMoment: [ Abs: 36.04264  Tot: -0.00000 ]
	SubspaceRotationAdjust: set factor to 0.114
ElecMinimize: Iter:  62  F: -2023.792961909052565  |grad|_K:  5.068e-05  alpha:  1.746e-04  linmin:  4.494e-06  t[s]:   3737.14
	FillingsUpdate:  mu: +0.060377952  nElectrons: 349.000000  magneticMoment: [ Abs: 36.05059  Tot: +0.00000 ]
	SubspaceRotationAdjust: set factor to 0.109
ElecMinimize: Iter:  63  F: -2023.793041032428164  |grad|_K:  5.046e-05  alpha:  1.776e-04  linmin:  2.792e-06  t[s]:   3783.35
	FillingsUpdate:  mu: +0.058905263  nElectrons: 349.000000  magneticMoment: [ Abs: 36.05878  Tot: -0.00000 ]
	SubspaceRotationAdjust: set factor to 0.104
ElecMinimize: Iter:  64  F: -2023.793121471826908  |grad|_K:  5.024e-05  alpha:  1.818e-04  linmin:  1.112e-06  t[s]:   3829.09
	FillingsUpdate:  mu: +0.057391109  nElectrons: 349.000000  magneticMoment: [ Abs: 36.06730  Tot: -0.00000 ]
	SubspaceRotationAdjust: set factor to 0.0988
ElecMinimize: Iter:  65  F: -2023.793203759262724  |grad|_K:  5.000e-05  alpha:  1.874e-04  linmin: -5.426e-07  t[s]:   3875.47
	FillingsUpdate:  mu: +0.055826430  nElectrons: 349.000000  magneticMoment: [ Abs: 36.07634  Tot: +0.00000 ]
	SubspaceRotationAdjust: set factor to 0.0941
ElecMinimize: Iter:  66  F: -2023.793288435934755  |grad|_K:  4.976e-05  alpha:  1.944e-04  linmin: -2.144e-06  t[s]:   3921.16
	FillingsUpdate:  mu: +0.054202092  nElectrons: 349.000000  magneticMoment: [ Abs: 36.08658  Tot: -0.00000 ]
	SubspaceRotationAdjust: set factor to 0.0895
ElecMinimize: Iter:  67  F: -2023.793376047078937  |grad|_K:  4.951e-05  alpha:  2.028e-04  linmin: -3.691e-06  t[s]:   3966.49
	FillingsUpdate:  mu: +0.052509197  nElectrons: 349.000000  magneticMoment: [ Abs: 36.09874  Tot: -0.00000 ]
	SubspaceRotationAdjust: set factor to 0.0851
ElecMinimize: Iter:  68  F: -2023.793467144152828  |grad|_K:  4.924e-05  alpha:  2.128e-04  linmin: -5.139e-06  t[s]:   4011.84
	FillingsUpdate:  mu: +0.050740289  nElectrons: 349.000000  magneticMoment: [ Abs: 36.11315  Tot: -0.00000 ]
	SubspaceRotationAdjust: set factor to 0.0808
ElecMinimize: Iter:  69  F: -2023.793562272627696  |grad|_K:  4.895e-05  alpha:  2.244e-04  linmin: -6.514e-06  t[s]:   4057.34
	FillingsUpdate:  mu: +0.048891254  nElectrons: 349.000000  magneticMoment: [ Abs: 36.12983  Tot: +0.00000 ]
	SubspaceRotationAdjust: set factor to 0.0768
ElecMinimize: Iter:  70  F: -2023.793661989332577  |grad|_K:  4.864e-05  alpha:  2.377e-04  linmin: -7.849e-06  t[s]:   4103.18
	FillingsUpdate:  mu: +0.046963421  nElectrons: 349.000000  magneticMoment: [ Abs: 36.14846  Tot: -0.00000 ]
	SubspaceRotationAdjust: set factor to 0.0729
ElecMinimize: Iter:  71  F: -2023.793766891754331  |grad|_K:  4.832e-05  alpha:  2.529e-04  linmin: -9.258e-06  t[s]:   4148.81
	FillingsUpdate:  mu: +0.044963160  nElectrons: 349.000000  magneticMoment: [ Abs: 36.16896  Tot: -0.00000 ]
	SubspaceRotationAdjust: set factor to 0.0691
ElecMinimize: Iter:  72  F: -2023.793877710565539  |grad|_K:  4.797e-05  alpha:  2.704e-04  linmin: -1.099e-05  t[s]:   4194.80
	FillingsUpdate:  mu: +0.042898248  nElectrons: 349.000000  magneticMoment: [ Abs: 36.19140  Tot: +0.00000 ]
	SubspaceRotationAdjust: set factor to 0.0655
ElecMinimize: Iter:  73  F: -2023.793995498612048  |grad|_K:  4.759e-05  alpha:  2.911e-04  linmin: -1.343e-05  t[s]:   4241.20
	FillingsUpdate:  mu: +0.040768689  nElectrons: 349.000000  magneticMoment: [ Abs: 36.21599  Tot: +0.00000 ]
	SubspaceRotationAdjust: set factor to 0.0619
ElecMinimize: Iter:  74  F: -2023.794121968804120  |grad|_K:  4.719e-05  alpha:  3.166e-04  linmin: -1.720e-05  t[s]:   4288.58
	FillingsUpdate:  mu: +0.038539340  nElectrons: 349.000000  magneticMoment: [ Abs: 36.24313  Tot: +0.00000 ]
	SubspaceRotationAdjust: set factor to 0.0585
ElecMinimize: Iter:  75  F: -2023.794260097672577  |grad|_K:  4.674e-05  alpha:  3.503e-04  linmin: -2.328e-05  t[s]:   4336.17
	FillingsUpdate:  mu: +0.036095172  nElectrons: 349.000000  magneticMoment: [ Abs: 36.27360  Tot: -0.00000 ]
	SubspaceRotationAdjust: set factor to 0.0552
ElecMinimize: Iter:  76  F: -2023.794415293671364  |grad|_K:  4.626e-05  alpha:  3.982e-04  linmin: -3.341e-05  t[s]:   4382.97
	FillingsUpdate:  mu: +0.033026069  nElectrons: 349.000000  magneticMoment: [ Abs: 36.30891  Tot: +0.00000 ]
	SubspaceRotationAdjust: set factor to 0.052
ElecMinimize: Iter:  77  F: -2023.794598043449241  |grad|_K:  4.570e-05  alpha:  4.727e-04  linmin: -5.111e-05  t[s]:   4429.29
	FillingsUpdate:  mu: +0.028553106  nElectrons: 349.000000  magneticMoment: [ Abs: 36.35205  Tot: +0.00000 ]
	SubspaceRotationAdjust: set factor to 0.0487
ElecMinimize: Iter:  78  F: -2023.794831067588802  |grad|_K:  4.504e-05  alpha:  6.024e-04  linmin: -8.425e-05  t[s]:   4475.84
	FillingsUpdate:  mu: +0.022410437  nElectrons: 349.000000  magneticMoment: [ Abs: 36.40960  Tot: +0.00000 ]
	SubspaceRotationAdjust: set factor to 0.0452
ElecMinimize: Iter:  79  F: -2023.795172534512176  |grad|_K:  4.419e-05  alpha:  8.649e-04  linmin: -1.500e-04  t[s]:   4522.50
	FillingsUpdate:  mu: +0.011493597  nElectrons: 349.000000  magneticMoment: [ Abs: 36.49638  Tot: -0.00000 ]
	SubspaceRotationAdjust: set factor to 0.0415
ElecMinimize: Iter:  80  F: -2023.795803030083562  |grad|_K:  4.289e-05  alpha:  1.504e-03  linmin: -2.861e-04  t[s]:   4569.20
	FillingsUpdate:  mu: -0.002702488  nElectrons: 349.000000  magneticMoment: [ Abs: 36.67283  Tot: +0.00000 ]
	SubspaceRotationAdjust: set factor to 0.0389
ElecMinimize: Iter:  81  F: -2023.799101789161341  |grad|_K:  3.957e-05  alpha:  4.304e-03  linmin: -2.619e-03  t[s]:   4615.51
ElecMinimize: 	Wrong curvature in test step, increasing alphaT to 1.291325e-02.
	FillingsUpdate:  mu: -0.006654753  nElectrons: 349.000000  magneticMoment: [ Abs: 36.78462  Tot: -0.00000 ]
	SubspaceRotationAdjust: set factor to 0.0414
ElecMinimize: Iter:  82  F: -2023.808275268643229  |grad|_K:  3.709e-05  alpha: -7.748e-03  linmin: -5.623e-03  t[s]:   4653.48
ElecMinimize: 	Step increased F by 1.729120e+00, reducing alpha to 5.676889e-04.
ElecMinimize: 	Step increased F by 1.783838e+00, reducing alpha to 5.676889e-05.
ElecMinimize: 	Step increased F by 1.790444e+00, reducing alpha to 5.676889e-06.
ElecMinimize: 	Step failed to reduce F after 3 attempts. Quitting step.
ElecMinimize: 	Undoing step.
ElecMinimize: 	Step failed: resetting search direction.
	FillingsUpdate:  mu: -0.083840535  nElectrons: 349.000000  magneticMoment: [ Abs: 35.81454  Tot: -0.00000 ]
	SubspaceRotationAdjust: set factor to 0.0431
ElecMinimize: Iter:  83  F: -2022.017756716196800  |grad|_K:  7.007e-05  alpha:  5.677e-06
	FillingsUpdate:  mu: -0.007561570  nElectrons: 349.000000  magneticMoment: [ Abs: 36.18694  Tot: +0.00000 ]
	SubspaceRotationAdjust: set factor to 0.0515
ElecMinimize: Iter:  84  F: -2022.338894230026426  |grad|_K:  5.685e-05  alpha:  4.577e-01  linmin:  1.535e-03  t[s]:   4837.05
	FillingsUpdate:  mu: +0.110105109  nElectrons: 349.000000  magneticMoment: [ Abs: 36.15419  Tot: +0.00000 ]
	SubspaceRotationAdjust: set factor to 0.0653
ElecMinimize: Iter:  85  F: -2022.668849452185896  |grad|_K:  6.429e-05  alpha:  5.907e-01  linmin: -4.527e-04  t[s]:   4883.39
	FillingsUpdate:  mu: +0.165725478  nElectrons: 349.000000  magneticMoment: [ Abs: 36.22127  Tot: +0.00000 ]
	SubspaceRotationAdjust: set factor to 0.0534
ElecMinimize: Iter:  86  F: -2022.921005257953766  |grad|_K:  7.740e-05  alpha:  3.436e-01  linmin: -1.544e-03  t[s]:   4930.53
	FillingsUpdate:  mu: +0.127757411  nElectrons: 349.000000  magneticMoment: [ Abs: 37.15851  Tot: +0.00000 ]
	SubspaceRotationAdjust: set factor to 0.0661
ElecMinimize: Iter:  87  F: -2023.190630126385713  |grad|_K:  6.392e-05  alpha:  2.598e-01  linmin: -1.410e-03  t[s]:   4977.34
	FillingsUpdate:  mu: +0.119646749  nElectrons: 349.000000  magneticMoment: [ Abs: 37.58687  Tot: -0.00000 ]
	SubspaceRotationAdjust: set factor to 0.0717
ElecMinimize: Iter:  88  F: -2023.450571021151063  |grad|_K:  5.940e-05  alpha:  3.447e-01  linmin: -1.817e-03  t[s]:   5023.84
	FillingsUpdate:  mu: +0.107208434  nElectrons: 349.000000  magneticMoment: [ Abs: 37.93138  Tot: +0.00000 ]
	SubspaceRotationAdjust: set factor to 0.0743
ElecMinimize: Iter:  89  F: -2023.665970527088348  |grad|_K:  5.624e-05  alpha:  3.330e-01  linmin: -2.340e-04  t[s]:   5070.15
	FillingsUpdate:  mu: +0.123823122  nElectrons: 349.000000  magneticMoment: [ Abs: 38.42075  Tot: -0.00000 ]
	SubspaceRotationAdjust: set factor to 0.0815
ElecMinimize: Iter:  90  F: -2023.874151460948951  |grad|_K:  5.260e-05  alpha:  3.729e-01  linmin: -8.896e-04  t[s]:   5116.35
	FillingsUpdate:  mu: +0.133902603  nElectrons: 349.000000  magneticMoment: [ Abs: 39.11870  Tot: -0.00000 ]
	SubspaceRotationAdjust: set factor to 0.0896
ElecMinimize: Iter:  91  F: -2024.050604331627483  |grad|_K:  4.910e-05  alpha:  3.545e-01  linmin: -2.112e-04  t[s]:   5163.20
	FillingsUpdate:  mu: +0.133624975  nElectrons: 349.000000  magneticMoment: [ Abs: 39.89170  Tot: -0.00000 ]
	SubspaceRotationAdjust: set factor to 0.0906
ElecMinimize: Iter:  92  F: -2024.187374184740293  |grad|_K:  4.808e-05  alpha:  3.218e-01  linmin:  3.524e-04  t[s]:   5209.96
	FillingsUpdate:  mu: +0.121863720  nElectrons: 349.000000  magneticMoment: [ Abs: 40.38973  Tot: +0.00000 ]
	SubspaceRotationAdjust: set factor to 0.0795
ElecMinimize: Iter:  93  F: -2024.292249419514746  |grad|_K:  4.173e-05  alpha:  2.664e-01  linmin: -2.566e-04  t[s]:   5256.26
	FillingsUpdate:  mu: +0.122232309  nElectrons: 349.000000  magneticMoment: [ Abs: 40.87579  Tot: -0.00000 ]
	SubspaceRotationAdjust: set factor to 0.0826
ElecMinimize: Iter:  94  F: -2024.381816708288625  |grad|_K:  3.377e-05  alpha:  2.918e-01  linmin: -2.302e-04  t[s]:   5301.96
	FillingsUpdate:  mu: +0.129769112  nElectrons: 349.000000  magneticMoment: [ Abs: 41.26368  Tot: +0.00000 ]
	SubspaceRotationAdjust: set factor to 0.0894
ElecMinimize: Iter:  95  F: -2024.447714362100442  |grad|_K:  2.685e-05  alpha:  3.284e-01  linmin: -5.542e-05  t[s]:   5347.80
	FillingsUpdate:  mu: +0.128652129  nElectrons: 349.000000  magneticMoment: [ Abs: 41.55136  Tot: +0.00000 ]
	SubspaceRotationAdjust: set factor to 0.088
ElecMinimize: Iter:  96  F: -2024.486976141301739  |grad|_K:  2.269e-05  alpha:  3.121e-01  linmin: -3.973e-05  t[s]:   5394.09
	FillingsUpdate:  mu: +0.131176030  nElectrons: 349.000000  magneticMoment: [ Abs: 41.80922  Tot: -0.00000 ]
	SubspaceRotationAdjust: set factor to 0.0814
ElecMinimize: Iter:  97  F: -2024.512339846095301  |grad|_K:  1.850e-05  alpha:  2.827e-01  linmin: -3.928e-05  t[s]:   5439.81
	FillingsUpdate:  mu: +0.130799950  nElectrons: 349.000000  magneticMoment: [ Abs: 42.04776  Tot: -0.00000 ]
	SubspaceRotationAdjust: set factor to 0.0859
ElecMinimize: Iter:  98  F: -2024.530715141405381  |grad|_K:  1.527e-05  alpha:  3.078e-01  linmin: -9.826e-06  t[s]:   5485.93
	FillingsUpdate:  mu: +0.129246110  nElectrons: 349.000000  magneticMoment: [ Abs: 42.28030  Tot: +0.00000 ]
	SubspaceRotationAdjust: set factor to 0.0985
ElecMinimize: Iter:  99  F: -2024.544175466582374  |grad|_K:  1.232e-05  alpha:  3.313e-01  linmin: -7.095e-06  t[s]:   5532.27
	FillingsUpdate:  mu: +0.128458470  nElectrons: 349.000000  magneticMoment: [ Abs: 42.49289  Tot: +0.00000 ]
	SubspaceRotationAdjust: set factor to 0.102
ElecMinimize: Iter: 100  F: -2024.552959822995490  |grad|_K:  1.171e-05  alpha:  3.325e-01  linmin: -6.126e-05  t[s]:   5578.43
	FillingsUpdate:  mu: +0.129274047  nElectrons: 349.000000  magneticMoment: [ Abs: 42.72074  Tot: -0.00000 ]
	SubspaceRotationAdjust: set factor to 0.0954
ElecMinimize: Iter: 101  F: -2024.559822600778034  |grad|_K:  1.051e-05  alpha:  2.861e-01  linmin:  3.905e-05  t[s]:   5623.98
	FillingsUpdate:  mu: +0.129144416  nElectrons: 349.000000  magneticMoment: [ Abs: 42.99028  Tot: +0.00000 ]
	SubspaceRotationAdjust: set factor to 0.1
ElecMinimize: Iter: 102  F: -2024.566074738134375  |grad|_K:  9.595e-06  alpha:  3.256e-01  linmin: -6.240e-05  t[s]:   5669.43
	FillingsUpdate:  mu: +0.129149207  nElectrons: 349.000000  magneticMoment: [ Abs: 43.30690  Tot: +0.00000 ]
	SubspaceRotationAdjust: set factor to 0.113
ElecMinimize: Iter: 103  F: -2024.571954945306743  |grad|_K:  9.124e-06  alpha:  3.644e-01  linmin: -1.346e-05  t[s]:   5715.05
	FillingsUpdate:  mu: +0.128487594  nElectrons: 349.000000  magneticMoment: [ Abs: 43.67487  Tot: +0.00000 ]
	SubspaceRotationAdjust: set factor to 0.123
ElecMinimize: Iter: 104  F: -2024.577497915492813  |grad|_K:  9.229e-06  alpha:  3.817e-01  linmin: -1.768e-05  t[s]:   5760.47
	FillingsUpdate:  mu: +0.126832351  nElectrons: 349.000000  magneticMoment: [ Abs: 44.03586  Tot: +0.00000 ]
	SubspaceRotationAdjust: set factor to 0.114
ElecMinimize: Iter: 105  F: -2024.582199111565615  |grad|_K:  9.990e-06  alpha:  3.157e-01  linmin:  1.461e-05  t[s]:   5806.51
	FillingsUpdate:  mu: +0.127082968  nElectrons: 349.000000  magneticMoment: [ Abs: 44.41830  Tot: -0.00000 ]
	SubspaceRotationAdjust: set factor to 0.0998
ElecMinimize: Iter: 106  F: -2024.586581681888447  |grad|_K:  9.212e-06  alpha:  2.552e-01  linmin: -6.765e-05  t[s]:   5852.24
	FillingsUpdate:  mu: +0.127384740  nElectrons: 349.000000  magneticMoment: [ Abs: 44.90438  Tot: +0.00000 ]
	SubspaceRotationAdjust: set factor to 0.102
ElecMinimize: Iter: 107  F: -2024.591759236953294  |grad|_K:  8.738e-06  alpha:  3.495e-01  linmin:  1.508e-04  t[s]:   5898.01
	FillingsUpdate:  mu: +0.125213787  nElectrons: 349.000000  magneticMoment: [ Abs: 45.37454  Tot: +0.00000 ]
	SubspaceRotationAdjust: set factor to 0.118
ElecMinimize: Iter: 108  F: -2024.596454475652308  |grad|_K:  8.689e-06  alpha:  3.624e-01  linmin:  1.112e-04  t[s]:   5943.88
	FillingsUpdate:  mu: +0.125121371  nElectrons: 349.000000  magneticMoment: [ Abs: 45.77791  Tot: +0.00000 ]
	SubspaceRotationAdjust: set factor to 0.132
ElecMinimize: Iter: 109  F: -2024.600693292697770  |grad|_K:  8.188e-06  alpha:  3.290e-01  linmin: -1.007e-04  t[s]:   5989.48
	FillingsUpdate:  mu: +0.118885065  nElectrons: 349.000000  magneticMoment: [ Abs: 46.11520  Tot: -0.00000 ]
	SubspaceRotationAdjust: set factor to 0.13
ElecMinimize: Iter: 110  F: -2024.604229969181461  |grad|_K:  9.436e-06  alpha:  2.920e-01  linmin:  4.732e-04  t[s]:   6035.51
	FillingsUpdate:  mu: +0.122013582  nElectrons: 349.000000  magneticMoment: [ Abs: 46.46100  Tot: -0.00000 ]
	SubspaceRotationAdjust: set factor to 0.177
ElecMinimize: Iter: 111  F: -2024.607763013988460  |grad|_K:  9.465e-06  alpha:  2.456e-01  linmin: -1.099e-04  t[s]:   6081.16
	FillingsUpdate:  mu: +0.129660854  nElectrons: 349.000000  magneticMoment: [ Abs: 46.81649  Tot: +0.00000 ]
	SubspaceRotationAdjust: set factor to 0.195
ElecMinimize: Iter: 112  F: -2024.611841188867629  |grad|_K:  9.873e-06  alpha:  2.563e-01  linmin: -1.525e-04  t[s]:   6126.72
	FillingsUpdate:  mu: +0.129214063  nElectrons: 349.000000  magneticMoment: [ Abs: 47.14214  Tot: +0.00000 ]
	SubspaceRotationAdjust: set factor to 0.191
ElecMinimize: Iter: 113  F: -2024.615397058005101  |grad|_K:  1.083e-05  alpha:  2.028e-01  linmin:  5.376e-05  t[s]:   6172.28
	FillingsUpdate:  mu: +0.130498710  nElectrons: 349.000000  magneticMoment: [ Abs: 47.37948  Tot: -0.00000 ]
	SubspaceRotationAdjust: set factor to 0.232
ElecMinimize: Iter: 114  F: -2024.619150061811297  |grad|_K:  9.692e-06  alpha:  1.856e-01  linmin: -3.524e-05  t[s]:   6218.10
	FillingsUpdate:  mu: +0.130101097  nElectrons: 349.000000  magneticMoment: [ Abs: 47.53804  Tot: -0.00000 ]
	SubspaceRotationAdjust: set factor to 0.264
ElecMinimize: Iter: 115  F: -2024.622569306442074  |grad|_K:  9.594e-06  alpha:  2.071e-01  linmin: -1.147e-04  t[s]:   6263.98
	FillingsUpdate:  mu: +0.124691699  nElectrons: 349.000000  magneticMoment: [ Abs: 47.67572  Tot: +0.00000 ]
	SubspaceRotationAdjust: set factor to 0.283
ElecMinimize: Iter: 116  F: -2024.625272314092399  |grad|_K:  9.533e-06  alpha:  1.655e-01  linmin:  7.191e-06  t[s]:   6309.84
	FillingsUpdate:  mu: +0.129143966  nElectrons: 349.000000  magneticMoment: [ Abs: 47.77621  Tot: +0.00000 ]
	SubspaceRotationAdjust: set factor to 0.359
ElecMinimize: Iter: 117  F: -2024.627901212528059  |grad|_K:  8.438e-06  alpha:  1.663e-01  linmin: -1.530e-04  t[s]:   6355.37
	FillingsUpdate:  mu: +0.131279720  nElectrons: 349.000000  magneticMoment: [ Abs: 47.84914  Tot: -0.00000 ]
	SubspaceRotationAdjust: set factor to 0.421
ElecMinimize: Iter: 118  F: -2024.630324490007979  |grad|_K:  8.371e-06  alpha:  1.905e-01  linmin: -1.582e-04  t[s]:   6401.19
	FillingsUpdate:  mu: +0.127553595  nElectrons: 349.000000  magneticMoment: [ Abs: 47.91360  Tot: -0.00000 ]
	SubspaceRotationAdjust: set factor to 0.436
ElecMinimize: Iter: 119  F: -2024.632151141686563  |grad|_K:  7.942e-06  alpha:  1.478e-01  linmin: -4.568e-05  t[s]:   6447.11
	FillingsUpdate:  mu: +0.131736075  nElectrons: 349.000000  magneticMoment: [ Abs: 47.94032  Tot: +0.00000 ]
	SubspaceRotationAdjust: set factor to 0.495
ElecMinimize: Iter: 120  F: -2024.633979305691128  |grad|_K:  6.990e-06  alpha:  1.649e-01  linmin: -8.321e-05  t[s]:   6493.00
	FillingsUpdate:  mu: +0.132680823  nElectrons: 349.000000  magneticMoment: [ Abs: 47.94224  Tot: +0.00000 ]
	SubspaceRotationAdjust: set factor to 0.574
ElecMinimize: Iter: 121  F: -2024.635729877864833  |grad|_K:  6.493e-06  alpha:  2.026e-01  linmin: -1.114e-05  t[s]:   6538.59
	FillingsUpdate:  mu: +0.131334553  nElectrons: 349.000000  magneticMoment: [ Abs: 47.89191  Tot: +0.00000 ]
	SubspaceRotationAdjust: set factor to 0.665
ElecMinimize: Iter: 122  F: -2024.637237322024703  |grad|_K:  6.147e-06  alpha:  2.049e-01  linmin:  3.571e-06  t[s]:   6583.99
	FillingsUpdate:  mu: +0.131144431  nElectrons: 349.000000  magneticMoment: [ Abs: 47.83220  Tot: +0.00000 ]
	SubspaceRotationAdjust: set factor to 0.777
ElecMinimize: Iter: 123  F: -2024.638548777651522  |grad|_K:  5.857e-06  alpha:  1.995e-01  linmin:  4.018e-06  t[s]:   6629.34
	FillingsUpdate:  mu: +0.132421065  nElectrons: 349.000000  magneticMoment: [ Abs: 47.72540  Tot: -0.00000 ]
	SubspaceRotationAdjust: set factor to 0.881
ElecMinimize: Iter: 124  F: -2024.639679367357758  |grad|_K:  5.839e-06  alpha:  1.897e-01  linmin: -4.576e-05  t[s]:   6674.94
	FillingsUpdate:  mu: +0.130518757  nElectrons: 349.000000  magneticMoment: [ Abs: 47.66219  Tot: -0.00000 ]
	SubspaceRotationAdjust: set factor to 0.728
ElecMinimize: Iter: 125  F: -2024.640419051313302  |grad|_K:  7.117e-06  alpha:  1.187e-01  linmin: -5.136e-05  t[s]:   6720.58
	FillingsUpdate:  mu: +0.132003610  nElectrons: 349.000000  magneticMoment: [ Abs: 47.54948  Tot: +0.00000 ]
	SubspaceRotationAdjust: set factor to 0.731
ElecMinimize: Iter: 126  F: -2024.641139675151635  |grad|_K:  5.517e-06  alpha:  8.245e-02  linmin: -1.967e-05  t[s]:   6766.24
	FillingsUpdate:  mu: +0.132285604  nElectrons: 349.000000  magneticMoment: [ Abs: 47.44398  Tot: +0.00000 ]
	SubspaceRotationAdjust: set factor to 0.873
ElecMinimize: Iter: 127  F: -2024.642092651194616  |grad|_K:  5.277e-06  alpha:  1.813e-01  linmin:  1.400e-04  t[s]:   6811.90
	FillingsUpdate:  mu: +0.131208375  nElectrons: 349.000000  magneticMoment: [ Abs: 47.35317  Tot: -0.00000 ]
	SubspaceRotationAdjust: set factor to 1.05
	SubspaceRotationAdjust: resetting CG because factor has changed by 7.83664
ElecMinimize: 	State modified externally: resetting search direction.
ElecMinimize: Iter: 128  F: -2024.642935437536607  |grad|_K:  6.100e-06  alpha:  1.781e-01
	FillingsUpdate:  mu: +0.135646558  nElectrons: 349.000000  magneticMoment: [ Abs: 47.33809  Tot: -0.00000 ]
	SubspaceRotationAdjust: set factor to 0.591
ElecMinimize: Iter: 129  F: -2024.643696514924613  |grad|_K:  9.824e-06  alpha:  1.239e-01  linmin: -1.865e-04  t[s]:   6924.62
	FillingsUpdate:  mu: +0.135331298  nElectrons: 349.000000  magneticMoment: [ Abs: 47.41660  Tot: -0.00000 ]
	SubspaceRotationAdjust: set factor to 0.365
ElecMinimize: Iter: 130  F: -2024.645188248255408  |grad|_K:  5.347e-06  alpha:  8.341e-02  linmin: -1.944e-05  t[s]:   6970.71
ElecMinimize: 	Predicted alpha/alphaT>3.000000, increasing alphaT to 2.502155e-01.
	FillingsUpdate:  mu: +0.129245743  nElectrons: 349.000000  magneticMoment: [ Abs: 47.48625  Tot: -0.00000 ]
	SubspaceRotationAdjust: set factor to 0.297
ElecMinimize: Iter: 131  F: -2024.646547160983800  |grad|_K:  4.543e-06  alpha:  2.711e-01  linmin: -3.773e-04  t[s]:   7029.83
	FillingsUpdate:  mu: +0.134303987  nElectrons: 349.000000  magneticMoment: [ Abs: 47.53987  Tot: -0.00000 ]
	SubspaceRotationAdjust: set factor to 0.241
ElecMinimize: Iter: 132  F: -2024.647565666160972  |grad|_K:  3.818e-06  alpha:  2.725e-01  linmin: -2.805e-05  t[s]:   7075.66
	FillingsUpdate:  mu: +0.132495394  nElectrons: 349.000000  magneticMoment: [ Abs: 47.56361  Tot: +0.00000 ]
	SubspaceRotationAdjust: set factor to 0.242
ElecMinimize: Iter: 133  F: -2024.648398356598818  |grad|_K:  3.237e-06  alpha:  3.285e-01  linmin:  1.508e-04  t[s]:   7121.64
	FillingsUpdate:  mu: +0.132875024  nElectrons: 349.000000  magneticMoment: [ Abs: 47.56544  Tot: -0.00000 ]
	SubspaceRotationAdjust: set factor to 0.206
ElecMinimize: Iter: 134  F: -2024.648912185766221  |grad|_K:  3.241e-06  alpha:  2.852e-01  linmin:  4.777e-05  t[s]:   7167.50
	FillingsUpdate:  mu: +0.133831399  nElectrons: 349.000000  magneticMoment: [ Abs: 47.59818  Tot: -0.00000 ]
	SubspaceRotationAdjust: set factor to 0.226
ElecMinimize: Iter: 135  F: -2024.649452262524619  |grad|_K:  2.738e-06  alpha:  2.959e-01  linmin: -2.949e-04  t[s]:   7213.19
	FillingsUpdate:  mu: +0.134088143  nElectrons: 349.000000  magneticMoment: [ Abs: 47.61179  Tot: +0.00000 ]
	SubspaceRotationAdjust: set factor to 0.269
ElecMinimize: Iter: 136  F: -2024.649925071677671  |grad|_K:  2.783e-06  alpha:  3.585e-01  linmin:  9.179e-04  t[s]:   7258.83
	FillingsUpdate:  mu: +0.132438864  nElectrons: 349.000000  magneticMoment: [ Abs: 47.60478  Tot: +0.00000 ]
	SubspaceRotationAdjust: set factor to 0.319
ElecMinimize: Iter: 137  F: -2024.650318874484128  |grad|_K:  2.739e-06  alpha:  3.125e-01  linmin: -1.893e-04  t[s]:   7304.43
	FillingsUpdate:  mu: +0.131813529  nElectrons: 349.000000  magneticMoment: [ Abs: 47.60655  Tot: -0.00000 ]
	SubspaceRotationAdjust: set factor to 0.311
ElecMinimize: Iter: 138  F: -2024.650660235036867  |grad|_K:  2.817e-06  alpha:  2.603e-01  linmin: -2.349e-04  t[s]:   7349.85
	FillingsUpdate:  mu: +0.133388208  nElectrons: 349.000000  magneticMoment: [ Abs: 47.60810  Tot: +0.00000 ]
	SubspaceRotationAdjust: set factor to 0.274
ElecMinimize: Iter: 139  F: -2024.651010572568566  |grad|_K:  2.519e-06  alpha:  2.497e-01  linmin:  7.665e-05  t[s]:   7395.45
	FillingsUpdate:  mu: +0.132657253  nElectrons: 349.000000  magneticMoment: [ Abs: 47.59269  Tot: -0.00000 ]
	SubspaceRotationAdjust: set factor to 0.281
ElecMinimize: Iter: 140  F: -2024.651340185062736  |grad|_K:  2.165e-06  alpha:  3.009e-01  linmin:  6.865e-05  t[s]:   7441.11
	FillingsUpdate:  mu: +0.131834515  nElectrons: 349.000000  magneticMoment: [ Abs: 47.56682  Tot: +0.00000 ]
	SubspaceRotationAdjust: set factor to 0.301
ElecMinimize: Iter: 141  F: -2024.651599553008054  |grad|_K:  1.930e-06  alpha:  3.196e-01  linmin: -8.294e-05  t[s]:   7486.82
	FillingsUpdate:  mu: +0.132524362  nElectrons: 349.000000  magneticMoment: [ Abs: 47.54818  Tot: +0.00000 ]
	SubspaceRotationAdjust: set factor to 0.327
ElecMinimize: Iter: 142  F: -2024.651815262393484  |grad|_K:  1.640e-06  alpha:  3.299e-01  linmin: -7.046e-06  t[s]:   7533.03
	FillingsUpdate:  mu: +0.132658502  nElectrons: 349.000000  magneticMoment: [ Abs: 47.51801  Tot: -0.00000 ]
	SubspaceRotationAdjust: set factor to 0.368
ElecMinimize: Iter: 143  F: -2024.651988217578491  |grad|_K:  1.637e-06  alpha:  3.691e-01  linmin: -2.922e-05  t[s]:   7578.73
	FillingsUpdate:  mu: +0.131820356  nElectrons: 349.000000  magneticMoment: [ Abs: 47.48316  Tot: +0.00000 ]
	SubspaceRotationAdjust: set factor to 0.346
ElecMinimize: Iter: 144  F: -2024.652128817076118  |grad|_K:  1.901e-06  alpha:  2.994e-01  linmin:  3.827e-05  t[s]:   7624.19
	FillingsUpdate:  mu: +0.132523524  nElectrons: 349.000000  magneticMoment: [ Abs: 47.45617  Tot: -0.00000 ]
	SubspaceRotationAdjust: set factor to 0.274
ElecMinimize: Iter: 145  F: -2024.652248486580447  |grad|_K:  1.853e-06  alpha:  1.925e-01  linmin:  5.825e-06  t[s]:   7669.50
	FillingsUpdate:  mu: +0.132617284  nElectrons: 349.000000  magneticMoment: [ Abs: 47.41833  Tot: +0.00000 ]
	SubspaceRotationAdjust: set factor to 0.262
ElecMinimize: Iter: 146  F: -2024.652406073378870  |grad|_K:  1.601e-06  alpha:  2.645e-01  linmin:  7.082e-05  t[s]:   7714.51
	FillingsUpdate:  mu: +0.132067798  nElectrons: 349.000000  magneticMoment: [ Abs: 47.37310  Tot: +0.00000 ]
	SubspaceRotationAdjust: set factor to 0.3
ElecMinimize: Iter: 147  F: -2024.652576293884522  |grad|_K:  1.538e-06  alpha:  3.835e-01  linmin: -5.669e-05  t[s]:   7760.30
	FillingsUpdate:  mu: +0.131850691  nElectrons: 349.000000  magneticMoment: [ Abs: 47.33926  Tot: -0.00000 ]
	SubspaceRotationAdjust: set factor to 0.322
ElecMinimize: Iter: 148  F: -2024.652721385394443  |grad|_K:  1.582e-06  alpha:  3.507e-01  linmin: -3.802e-05  t[s]:   7805.80
	FillingsUpdate:  mu: +0.131716885  nElectrons: 349.000000  magneticMoment: [ Abs: 47.31243  Tot: -0.00000 ]
	SubspaceRotationAdjust: set factor to 0.294
ElecMinimize: Iter: 149  F: -2024.652858032170798  |grad|_K:  1.830e-06  alpha:  3.127e-01  linmin:  1.170e-05  t[s]:   7851.29
	FillingsUpdate:  mu: +0.132423843  nElectrons: 349.000000  magneticMoment: [ Abs: 47.29439  Tot: +0.00000 ]
	SubspaceRotationAdjust: set factor to 0.245
ElecMinimize: Iter: 150  F: -2024.652989071419597  |grad|_K:  1.743e-06  alpha:  2.259e-01  linmin: -1.582e-05  t[s]:   7896.94
	FillingsUpdate:  mu: +0.131720201  nElectrons: 349.000000  magneticMoment: [ Abs: 47.26984  Tot: +0.00000 ]
	SubspaceRotationAdjust: set factor to 0.266
ElecMinimize: Iter: 151  F: -2024.653161298229179  |grad|_K:  1.554e-06  alpha:  3.249e-01  linmin: -1.739e-05  t[s]:   7942.23
	FillingsUpdate:  mu: +0.131367059  nElectrons: 349.000000  magneticMoment: [ Abs: 47.25715  Tot: -0.00000 ]
	SubspaceRotationAdjust: set factor to 0.296
ElecMinimize: Iter: 152  F: -2024.653301387424790  |grad|_K:  1.467e-06  alpha:  3.325e-01  linmin: -5.267e-06  t[s]:   7988.09
	FillingsUpdate:  mu: +0.131706027  nElectrons: 349.000000  magneticMoment: [ Abs: 47.25797  Tot: -0.00000 ]
	SubspaceRotationAdjust: set factor to 0.28
ElecMinimize: Iter: 153  F: -2024.653416252964234  |grad|_K:  1.514e-06  alpha:  3.062e-01  linmin: -3.575e-06  t[s]:   8033.85
	FillingsUpdate:  mu: +0.131629058  nElectrons: 349.000000  magneticMoment: [ Abs: 47.26112  Tot: -0.00000 ]
	SubspaceRotationAdjust: set factor to 0.253
ElecMinimize: Iter: 154  F: -2024.653514082531501  |grad|_K:  1.349e-06  alpha:  2.458e-01  linmin: -3.270e-05  t[s]:   8079.45
	FillingsUpdate:  mu: +0.131353655  nElectrons: 349.000000  magneticMoment: [ Abs: 47.27260  Tot: -0.00000 ]
	SubspaceRotationAdjust: set factor to 0.29
ElecMinimize: Iter: 155  F: -2024.653616272852105  |grad|_K:  1.200e-06  alpha:  3.216e-01  linmin:  5.115e-06  t[s]:   8125.11
	FillingsUpdate:  mu: +0.131182779  nElectrons: 349.000000  magneticMoment: [ Abs: 47.28922  Tot: -0.00000 ]
	SubspaceRotationAdjust: set factor to 0.326
ElecMinimize: Iter: 156  F: -2024.653708964487123  |grad|_K:  1.276e-06  alpha:  3.697e-01  linmin:  3.035e-06  t[s]:   8170.25
	FillingsUpdate:  mu: +0.131281042  nElectrons: 349.000000  magneticMoment: [ Abs: 47.30988  Tot: -0.00000 ]
	SubspaceRotationAdjust: set factor to 0.309
ElecMinimize: Iter: 157  F: -2024.653800280311543  |grad|_K:  1.406e-06  alpha:  3.223e-01  linmin: -1.687e-05  t[s]:   8215.92
	FillingsUpdate:  mu: +0.131400920  nElectrons: 349.000000  magneticMoment: [ Abs: 47.33625  Tot: +0.00000 ]
	SubspaceRotationAdjust: set factor to 0.276
ElecMinimize: Iter: 158  F: -2024.653888763692748  |grad|_K:  1.342e-06  alpha:  2.569e-01  linmin: -6.509e-06  t[s]:   8261.70
	FillingsUpdate:  mu: +0.131123207  nElectrons: 349.000000  magneticMoment: [ Abs: 47.36478  Tot: -0.00000 ]
	SubspaceRotationAdjust: set factor to 0.299
ElecMinimize: Iter: 159  F: -2024.653987465677346  |grad|_K:  1.228e-06  alpha:  3.145e-01  linmin: -1.699e-05  t[s]:   8307.41
	FillingsUpdate:  mu: +0.131151884  nElectrons: 349.000000  magneticMoment: [ Abs: 47.39638  Tot: -0.00000 ]
	SubspaceRotationAdjust: set factor to 0.337
ElecMinimize: Iter: 160  F: -2024.654088384769011  |grad|_K:  1.281e-06  alpha:  3.837e-01  linmin:  4.721e-06  t[s]:   8353.28
	FillingsUpdate:  mu: +0.131460478  nElectrons: 349.000000  magneticMoment: [ Abs: 47.42687  Tot: +0.00000 ]
	SubspaceRotationAdjust: set factor to 0.327
ElecMinimize: Iter: 161  F: -2024.654183253136125  |grad|_K:  1.428e-06  alpha:  3.320e-01  linmin:  2.477e-05  t[s]:   8398.26
	FillingsUpdate:  mu: +0.131309376  nElectrons: 349.000000  magneticMoment: [ Abs: 47.44796  Tot: -0.00000 ]
	SubspaceRotationAdjust: set factor to 0.275
ElecMinimize: Iter: 162  F: -2024.654265761924307  |grad|_K:  1.358e-06  alpha:  2.320e-01  linmin:  6.238e-06  t[s]:   8443.88
	FillingsUpdate:  mu: +0.131067162  nElectrons: 349.000000  magneticMoment: [ Abs: 47.46934  Tot: -0.00000 ]
	SubspaceRotationAdjust: set factor to 0.275
ElecMinimize: Iter: 163  F: -2024.654359314980411  |grad|_K:  1.237e-06  alpha:  2.918e-01  linmin:  3.230e-05  t[s]:   8490.25
	FillingsUpdate:  mu: +0.131233851  nElectrons: 349.000000  magneticMoment: [ Abs: 47.48891  Tot: -0.00000 ]
	SubspaceRotationAdjust: set factor to 0.318
ElecMinimize: Iter: 164  F: -2024.654452553191049  |grad|_K:  1.174e-06  alpha:  3.515e-01  linmin:  5.435e-06  t[s]:   8536.28
	FillingsUpdate:  mu: +0.131534982  nElectrons: 349.000000  magneticMoment: [ Abs: 47.50169  Tot: +0.00000 ]
	SubspaceRotationAdjust: set factor to 0.318
ElecMinimize: Iter: 165  F: -2024.654529085496506  |grad|_K:  1.190e-06  alpha:  3.192e-01  linmin:  3.878e-06  t[s]:   8582.31
	FillingsUpdate:  mu: +0.131618347  nElectrons: 349.000000  magneticMoment: [ Abs: 47.50690  Tot: -0.00000 ]
	SubspaceRotationAdjust: set factor to 0.268
ElecMinimize: Iter: 166  F: -2024.654582959080699  |grad|_K:  1.154e-06  alpha:  2.180e-01  linmin:  1.640e-06  t[s]:   8628.14
	FillingsUpdate:  mu: +0.131621813  nElectrons: 349.000000  magneticMoment: [ Abs: 47.50577  Tot: +0.00000 ]
	SubspaceRotationAdjust: set factor to 0.269
ElecMinimize: Iter: 167  F: -2024.654647585598923  |grad|_K:  1.026e-06  alpha:  2.787e-01  linmin: -1.425e-05  t[s]:   8673.89
	FillingsUpdate:  mu: +0.131822598  nElectrons: 349.000000  magneticMoment: [ Abs: 47.50077  Tot: -0.00000 ]
	SubspaceRotationAdjust: set factor to 0.309
ElecMinimize: Iter: 168  F: -2024.654709107009239  |grad|_K:  9.480e-07  alpha:  3.350e-01  linmin:  4.386e-07  t[s]:   8719.20
	FillingsUpdate:  mu: +0.131736679  nElectrons: 349.000000  magneticMoment: [ Abs: 47.49210  Tot: -0.00000 ]
	SubspaceRotationAdjust: set factor to 0.317
ElecMinimize: Iter: 169  F: -2024.654759605112076  |grad|_K:  9.910e-07  alpha:  3.227e-01  linmin:  1.214e-05  t[s]:   8764.76
	FillingsUpdate:  mu: +0.131428076  nElectrons: 349.000000  magneticMoment: [ Abs: 47.48221  Tot: -0.00000 ]
	SubspaceRotationAdjust: set factor to 0.256
ElecMinimize: Iter: 170  F: -2024.654795349762026  |grad|_K:  9.175e-07  alpha:  2.088e-01  linmin: -2.643e-06  t[s]:   8810.33
	FillingsUpdate:  mu: +0.131241147  nElectrons: 349.000000  magneticMoment: [ Abs: 47.47122  Tot: -0.00000 ]
	SubspaceRotationAdjust: set factor to 0.265
ElecMinimize: Iter: 171  F: -2024.654833247569741  |grad|_K:  7.933e-07  alpha:  2.584e-01  linmin: -1.220e-05  t[s]:   8855.63
	FillingsUpdate:  mu: +0.131426384  nElectrons: 349.000000  magneticMoment: [ Abs: 47.45814  Tot: -0.00000 ]
	SubspaceRotationAdjust: set factor to 0.301
ElecMinimize: Iter: 172  F: -2024.654873536133664  |grad|_K:  7.548e-07  alpha:  3.673e-01  linmin:  3.321e-06  t[s]:   8901.41
	FillingsUpdate:  mu: +0.131554506  nElectrons: 349.000000  magneticMoment: [ Abs: 47.44566  Tot: +0.00000 ]
	SubspaceRotationAdjust: set factor to 0.304
ElecMinimize: Iter: 173  F: -2024.654905394254229  |grad|_K:  7.924e-07  alpha:  3.212e-01  linmin:  9.310e-06  t[s]:   8947.26
	FillingsUpdate:  mu: +0.131683107  nElectrons: 349.000000  magneticMoment: [ Abs: 47.43575  Tot: +0.00000 ]
	SubspaceRotationAdjust: set factor to 0.261
ElecMinimize: Iter: 174  F: -2024.654930676534832  |grad|_K:  7.590e-07  alpha:  2.322e-01  linmin: -1.142e-05  t[s]:   8992.77
	FillingsUpdate:  mu: +0.131745475  nElectrons: 349.000000  magneticMoment: [ Abs: 47.42372  Tot: +0.00000 ]
	SubspaceRotationAdjust: set factor to 0.258
ElecMinimize: Iter: 175  F: -2024.654957865459210  |grad|_K:  6.867e-07  alpha:  2.709e-01  linmin:  6.433e-06  t[s]:   9039.06
	FillingsUpdate:  mu: +0.131794789  nElectrons: 349.000000  magneticMoment: [ Abs: 47.41121  Tot: -0.00000 ]
	SubspaceRotationAdjust: set factor to 0.301
ElecMinimize: Iter: 176  F: -2024.654986774484996  |grad|_K:  6.357e-07  alpha:  3.523e-01  linmin:  2.389e-06  t[s]:   9084.83
	FillingsUpdate:  mu: +0.131736457  nElectrons: 349.000000  magneticMoment: [ Abs: 47.40198  Tot: +0.00000 ]
	SubspaceRotationAdjust: set factor to 0.303
ElecMinimize: Iter: 177  F: -2024.655010177257964  |grad|_K:  6.743e-07  alpha:  3.328e-01  linmin: -1.935e-05  t[s]:   9129.84
	FillingsUpdate:  mu: +0.131715971  nElectrons: 349.000000  magneticMoment: [ Abs: 47.39529  Tot: +0.00000 ]
	SubspaceRotationAdjust: set factor to 0.258
ElecMinimize: Iter: 178  F: -2024.655029084565740  |grad|_K:  6.596e-07  alpha:  2.387e-01  linmin: -3.435e-06  t[s]:   9175.20
	FillingsUpdate:  mu: +0.131789044  nElectrons: 349.000000  magneticMoment: [ Abs: 47.39078  Tot: +0.00000 ]
	SubspaceRotationAdjust: set factor to 0.26
ElecMinimize: Iter: 179  F: -2024.655050265815134  |grad|_K:  5.883e-07  alpha:  2.793e-01  linmin: -3.277e-05  t[s]:   9220.86
	FillingsUpdate:  mu: +0.131796791  nElectrons: 349.000000  magneticMoment: [ Abs: 47.38692  Tot: -0.00000 ]
	SubspaceRotationAdjust: set factor to 0.298
ElecMinimize: Iter: 180  F: -2024.655071126910798  |grad|_K:  5.583e-07  alpha:  3.450e-01  linmin:  3.398e-06  t[s]:   9266.08
	FillingsUpdate:  mu: +0.131724494  nElectrons: 349.000000  magneticMoment: [ Abs: 47.38427  Tot: +0.00000 ]
	SubspaceRotationAdjust: set factor to 0.301
ElecMinimize: Iter: 181  F: -2024.655088855103259  |grad|_K:  5.695e-07  alpha:  3.268e-01  linmin: -3.708e-06  t[s]:   9311.56
	FillingsUpdate:  mu: +0.131724961  nElectrons: 349.000000  magneticMoment: [ Abs: 47.38446  Tot: -0.00000 ]
	SubspaceRotationAdjust: set factor to 0.261
ElecMinimize: Iter: 182  F: -2024.655102581838037  |grad|_K:  5.445e-07  alpha:  2.435e-01  linmin: -1.166e-05  t[s]:   9356.92
	FillingsUpdate:  mu: +0.131819987  nElectrons: 349.000000  magneticMoment: [ Abs: 47.38583  Tot: +0.00000 ]
	SubspaceRotationAdjust: set factor to 0.265
ElecMinimize: Iter: 183  F: -2024.655117507161776  |grad|_K:  4.856e-07  alpha:  2.888e-01  linmin: -4.604e-07  t[s]:   9402.57
	FillingsUpdate:  mu: +0.131826894  nElectrons: 349.000000  magneticMoment: [ Abs: 47.38810  Tot: -0.00000 ]
	SubspaceRotationAdjust: set factor to 0.305
ElecMinimize: Iter: 184  F: -2024.655132058770960  |grad|_K:  4.642e-07  alpha:  3.544e-01  linmin:  2.598e-06  t[s]:   9448.17
	FillingsUpdate:  mu: +0.131781592  nElectrons: 349.000000  magneticMoment: [ Abs: 47.39106  Tot: +0.00000 ]
	SubspaceRotationAdjust: set factor to 0.309
ElecMinimize: Iter: 185  F: -2024.655144215237897  |grad|_K:  4.756e-07  alpha:  3.242e-01  linmin: -7.325e-06  t[s]:   9493.33
	FillingsUpdate:  mu: +0.131836445  nElectrons: 349.000000  magneticMoment: [ Abs: 47.39450  Tot: +0.00000 ]
	SubspaceRotationAdjust: set factor to 0.273
ElecMinimize: Iter: 186  F: -2024.655154405108306  |grad|_K:  4.738e-07  alpha:  2.585e-01  linmin:  3.525e-06  t[s]:   9539.19
	FillingsUpdate:  mu: +0.131893321  nElectrons: 349.000000  magneticMoment: [ Abs: 47.39962  Tot: -0.00000 ]
	SubspaceRotationAdjust: set factor to 0.277
ElecMinimize: Iter: 187  F: -2024.655165722179845  |grad|_K:  4.360e-07  alpha:  2.896e-01  linmin: -8.568e-06  t[s]:   9584.79
	FillingsUpdate:  mu: +0.131854952  nElectrons: 349.000000  magneticMoment: [ Abs: 47.40477  Tot: +0.00000 ]
	SubspaceRotationAdjust: set factor to 0.319
ElecMinimize: Iter: 188  F: -2024.655177872836930  |grad|_K:  4.326e-07  alpha:  3.669e-01  linmin:  3.203e-06  t[s]:   9630.25
	FillingsUpdate:  mu: +0.131831096  nElectrons: 349.000000  magneticMoment: [ Abs: 47.40973  Tot: -0.00000 ]
	SubspaceRotationAdjust: set factor to 0.333
ElecMinimize: Iter: 189  F: -2024.655189253743856  |grad|_K:  4.733e-07  alpha:  3.493e-01  linmin:  9.866e-06  t[s]:   9675.51
	FillingsUpdate:  mu: +0.131878105  nElectrons: 349.000000  magneticMoment: [ Abs: 47.41486  Tot: +0.00000 ]
	SubspaceRotationAdjust: set factor to 0.29
ElecMinimize: Iter: 190  F: -2024.655199512848412  |grad|_K:  5.076e-07  alpha:  2.630e-01  linmin:  4.397e-06  t[s]:   9721.11
	FillingsUpdate:  mu: +0.131950776  nElectrons: 349.000000  magneticMoment: [ Abs: 47.42016  Tot: +0.00000 ]
	SubspaceRotationAdjust: set factor to 0.277
ElecMinimize: Iter: 191  F: -2024.655211553331128  |grad|_K:  4.741e-07  alpha:  2.685e-01  linmin:  1.833e-05  t[s]:   9766.50
	FillingsUpdate:  mu: +0.131907284  nElectrons: 349.000000  magneticMoment: [ Abs: 47.42568  Tot: -0.00000 ]
	SubspaceRotationAdjust: set factor to 0.313
ElecMinimize: Iter: 192  F: -2024.655226252304828  |grad|_K:  4.765e-07  alpha:  3.765e-01  linmin:  3.937e-06  t[s]:   9811.86
	FillingsUpdate:  mu: +0.131909267  nElectrons: 349.000000  magneticMoment: [ Abs: 47.43095  Tot: +0.00000 ]
	SubspaceRotationAdjust: set factor to 0.336
ElecMinimize: Iter: 193  F: -2024.655240288240748  |grad|_K:  5.103e-07  alpha:  3.552e-01  linmin:  3.781e-06  t[s]:   9857.23
	FillingsUpdate:  mu: +0.131952674  nElectrons: 349.000000  magneticMoment: [ Abs: 47.43512  Tot: +0.00000 ]
	SubspaceRotationAdjust: set factor to 0.299
[...]
	SubspaceRotationAdjust: set factor to 0.22
ElecMinimize: Iter:  14  F: -2024.694476395612355  |grad|_K:  9.464e-08  alpha:  2.966e-01  linmin: -8.981e-07  t[s]:  66301.34
	FillingsUpdate:  mu: +0.127565979  nElectrons: 349.000000  magneticMoment: [ Abs: 47.11347  Tot: +0.00000 ]
	SubspaceRotationAdjust: set factor to 0.27
ElecMinimize: Iter:  15  F: -2024.694476966005141  |grad|_K:  8.055e-08  alpha:  3.656e-01  linmin: -3.631e-06  t[s]:  66347.18
	FillingsUpdate:  mu: +0.127574589  nElectrons: 349.000000  magneticMoment: [ Abs: 47.11351  Tot: -0.00000 ]
	SubspaceRotationAdjust: set factor to 0.265
ElecMinimize: Iter:  16  F: -2024.694477350672969  |grad|_K:  7.371e-08  alpha:  3.404e-01  linmin:  9.412e-06  t[s]:  66393.95
	FillingsUpdate:  mu: +0.127549669  nElectrons: 349.000000  magneticMoment: [ Abs: 47.11269  Tot: -0.00000 ]
	SubspaceRotationAdjust: set factor to 0.235
ElecMinimize: Iter:  17  F: -2024.694477687544122  |grad|_K:  7.202e-08  alpha:  3.566e-01  linmin: -5.108e-06  t[s]:  66440.54
ElecMinimize: Converged (|Delta F|<1.000000e-06 for 5 iters).
Setting wave functions to eigenvectors of Hamiltonian

# Ionic positions in lattice coordinates:
ion Ni   0.001386998632224   0.009017931063196   0.158873633268091 1
ion Ni   0.491702865489148   0.503513886795915   0.151004088207680 1
ion V   0.495170747770708   0.003123136609898   0.165963120158946 1
ion V  -0.005094425864993   0.502033136294780   0.155878901964712 1
ion V   0.500000000000000   0.000000000000000  -0.050000000000000 0
ion Co   0.254173012181953   0.255632381298148   0.055318789550451 1
ion Co   0.250352959898325   0.756981820368082   0.058647632706346 1
ion Co   0.000000000000000   0.500000000000000  -0.050000000000000 0
ion Co   0.500000000000000   0.500000000000000  -0.050000000000000 0
ion Co   0.250000000000000   0.250000000000000  -0.150000000000000 0
ion Co   0.250000000000000   0.750000000000000  -0.150000000000000 0
ion Cr  -0.254235752272589   0.253649358195807   0.056175910858163 1
ion Cr  -0.256255928533614   0.750146613516390   0.053005951569721 1
ion Cr   0.000000000000000   0.000000000000000  -0.050000000000000 0
ion Cr  -0.250000000000000   0.250000000000000  -0.150000000000000 0
ion Cr  -0.250000000000000   0.750000000000000  -0.150000000000000 0
ion O   0.241713457559142   0.274181305190704   0.150561649038839 1
ion O   0.241533038281107   0.729459195115394   0.154306037423951 1
ion O  -0.259426183843496   0.275580689887003   0.152036751467704 1
ion O  -0.258262209228276   0.734760117832052   0.146270182515324 1
ion O   0.001500429295962  -0.024896924314659   0.046506018381896 1
ion O   0.516203465591264   0.002515026846676   0.055814227462539 1
ion O  -0.022918759029727   0.502090426246626   0.056721874409781 1
ion O   0.485909699725239   0.524975979088372   0.044951733903322 1
ion O   0.250000000000000   0.250000000000000  -0.050000000000000 0
ion O   0.250000000000000   0.750000000000000  -0.050000000000000 0
ion O  -0.250000000000000   0.250000000000000  -0.050000000000000 0
ion O  -0.250000000000000   0.750000000000000  -0.050000000000000 0
ion O   0.000000000000000   0.000000000000000  -0.150000000000000 0
ion O   0.500000000000000   0.000000000000000  -0.150000000000000 0
ion O   0.000000000000000   0.500000000000000  -0.150000000000000 0
ion O   0.500000000000000   0.500000000000000  -0.150000000000000 0
ion O  -0.008526865632615   0.005179264377154   0.240253152030885 1

# Forces in Lattice coordinates:
force Ni   0.000787397460965  -0.001823894884418   0.068916872476960 1
force Ni  -0.003884567973150   0.000495792431659   0.007433026991941 1
force V   0.000285348662843  -0.003070174611981  -0.052806800931089 1
force V   0.001723595663616   0.004032074406105   0.020878223252855 1
force V  -0.080255794363011  -0.001278276866665   0.544651010998695 0
force Co   0.002688126097707  -0.004004480171035   0.031058223010845 1
force Co  -0.007047116745712   0.008845414126546  -0.003518719441103 1
force Co   0.035758733272241   0.008235194486978   0.161904787011624 0
force Co  -0.044867666923637   0.024856727894674  -0.034143409359594 0
force Co  -0.004427135607319   0.031938452464380  -0.077784552843240 0
force Co  -0.003168517073724  -0.030618760837757   0.009475983292642 0
force Cr   0.000080236030093  -0.005780502790659   0.009204890363861 1
force Cr  -0.002666206550598   0.009410246829916   0.020387937960467 1
force Cr   0.045406989670441  -0.035234511473451   0.062863600207834 0
force Cr  -0.006742354219644   0.036677062356826  -1.446569606980594 0
force Cr  -0.008021653014519  -0.038295514810428  -1.471425884566572 0
force O   0.007111306157936  -0.003161369890476  -0.003135237079759 1
force O   0.008969598601306   0.005648552264822   0.013138472469919 1
force O  -0.002115954994601  -0.001731758448491  -0.005697877154248 1
force O  -0.004502436939531  -0.000097808849952   0.008518159623254 1
force O  -0.001302596266699  -0.014643491249742   0.007818204627057 1
force O  -0.006412417865636  -0.000988722953468  -0.022973573992249 1
force O  -0.007337100063200   0.003238174583521  -0.029737647840352 1
force O  -0.003309290787308   0.007861417606010   0.031397179338697 1
force O   0.019941963501665   0.080702247243165   0.200228525541234 0
force O   0.008785412207519  -0.069285361587552  -0.228629298582085 0
force O  -0.001714628169207   0.084727325757315   1.106543598304883 0
force O  -0.015926217418596  -0.080856172191390   1.300797754781132 0
force O  -0.011335216962927   0.012393241275459   0.138058274258272 0
force O   0.056191076995130   0.002677215640698  -0.136875135332238 0
force O   0.000354285032553  -0.003195399132938  -0.156152983108915 0
force O   0.042990607147151  -0.010202223154702  -0.162808629943745 0
force O  -0.009019536303630  -0.000259687259833   0.031069027630188 1

# Energy components:
   Eewald =     5461.0740881741303383
       EH =     7282.5018064512933051
     Eloc =   -14900.3268653601480764
      Enl =     -552.8566947880140106
   Epulay =       -0.0004765495153388
      Exc =     -247.9948912253867945
       KE =      931.9626745517559812
        U =        0.9468531533384161
-------------------------------------
     Etot =    -2024.6935055925453071
       TS =        0.0009720949989190
-------------------------------------
        F =    -2024.6944776875441221

IonicMinimize: Iter:  20  F: -2024.694477687544122  |grad|_K:  5.525e-04  alpha:  1.000e+00  linmin: -7.342e-03  t[s]:  66456.43

#--- Lowdin population analysis ---
# oxidation-state Ni +3.414 +3.363
# magnetic-moments Ni +0.602 -0.621
# oxidation-state V +1.192 +1.373 +0.942
# magnetic-moments V -3.010 +2.078 +2.838
# oxidation-state Co +1.193 +1.162 +1.205 +1.155 +1.230 +1.221
# magnetic-moments Co +2.654 +2.605 -2.699 +2.591 -2.689 -2.679
# oxidation-state Cr +2.815 +2.950 +2.838 +2.932 +2.937
# magnetic-moments Cr -3.806 -3.194 -3.649 +3.880 +3.885
# oxidation-state O -0.828 -0.833 -0.774 -0.746 -0.874 -0.916 -0.898 -0.934 -1.016 -1.010 -0.977 -0.959 -0.936 -0.958 -0.991 -0.991 -0.477
# magnetic-moments O +0.061 +0.059 +0.038 +0.052 +0.148 +0.108 +0.072 +0.074 -0.051 -0.064 +0.052 +0.051 -0.082 -0.139 -0.186 -0.081 +1.103


-------- Electronic minimization -----------
	FillingsUpdate:  mu: +0.149890001  nElectrons: 349.000000  magneticMoment: [ Abs: 47.11838  Tot: +0.00000 ]
ElecMinimize: Iter:   0  F: -2024.398067571422189  |grad|_K:  9.211e-05  alpha:  1.000e+00
	FillingsUpdate:  mu: +0.134672300  nElectrons: 349.000000  magneticMoment: [ Abs: 47.08102  Tot: +0.00000 ]
	SubspaceRotationAdjust: set factor to 0.227
ElecMinimize: Iter:   1  F: -2024.676699532219573  |grad|_K:  1.498e-05  alpha:  1.948e-01  linmin:  1.356e-02  t[s]:  66535.58
	FillingsUpdate:  mu: +0.127705017  nElectrons: 349.000000  magneticMoment: [ Abs: 47.12687  Tot: +0.00000 ]
	SubspaceRotationAdjust: set factor to 0.179
ElecMinimize: Iter:   2  F: -2024.686736164297827  |grad|_K:  7.583e-06  alpha:  2.736e-01  linmin:  6.113e-03  t[s]:  66581.22
	FillingsUpdate:  mu: +0.129958581  nElectrons: 349.000000  magneticMoment: [ Abs: 47.09051  Tot: -0.00000 ]
	SubspaceRotationAdjust: set factor to 0.18
ElecMinimize: Iter:   3  F: -2024.689345672165700  |grad|_K:  4.259e-06  alpha:  2.847e-01  linmin: -9.983e-04  t[s]:  66626.83
	FillingsUpdate:  mu: +0.127662578  nElectrons: 349.000000  magneticMoment: [ Abs: 47.10326  Tot: -0.00000 ]
	SubspaceRotationAdjust: set factor to 0.22
ElecMinimize: Iter:   4  F: -2024.690889681744011  |grad|_K:  3.814e-06  alpha:  4.785e-01  linmin:  2.317e-04  t[s]:  66672.62
	FillingsUpdate:  mu: +0.127943106  nElectrons: 349.000000  magneticMoment: [ Abs: 47.10436  Tot: +0.00000 ]
	SubspaceRotationAdjust: set factor to 0.268
ElecMinimize: Iter:   5  F: -2024.692170425739050  |grad|_K:  3.844e-06  alpha:  5.163e-01  linmin: -5.319e-06  t[s]:  66718.30
	FillingsUpdate:  mu: +0.128899049  nElectrons: 349.000000  magneticMoment: [ Abs: 47.09390  Tot: -0.00000 ]
	SubspaceRotationAdjust: set factor to 0.282
ElecMinimize: Iter:   6  F: -2024.693306124797346  |grad|_K:  3.291e-06  alpha:  4.420e-01  linmin: -2.833e-05  t[s]:  66763.72
	FillingsUpdate:  mu: +0.127948034  nElectrons: 349.000000  magneticMoment: [ Abs: 47.11213  Tot: -0.00000 ]
	SubspaceRotationAdjust: set factor to 0.217
ElecMinimize: Iter:   7  F: -2024.693875956381135  |grad|_K:  2.813e-06  alpha:  2.924e-01  linmin:  1.039e-06  t[s]:  66810.06
	FillingsUpdate:  mu: +0.127133053  nElectrons: 349.000000  magneticMoment: [ Abs: 47.10094  Tot: -0.00000 ]
	SubspaceRotationAdjust: set factor to 0.175
ElecMinimize: Iter:   8  F: -2024.694236226318708  |grad|_K:  1.675e-06  alpha:  2.622e-01  linmin: -5.866e-05  t[s]:  66855.49
	FillingsUpdate:  mu: +0.127158957  nElectrons: 349.000000  magneticMoment: [ Abs: 47.10209  Tot: -0.00000 ]
	SubspaceRotationAdjust: set factor to 0.191
ElecMinimize: Iter:   9  F: -2024.694399642387680  |grad|_K:  1.089e-06  alpha:  3.316e-01  linmin:  2.155e-06  t[s]:  66900.86
	FillingsUpdate:  mu: +0.127310999  nElectrons: 349.000000  magneticMoment: [ Abs: 47.10440  Tot: +0.00000 ]
	SubspaceRotationAdjust: set factor to 0.19
ElecMinimize: Iter:  10  F: -2024.694464729411493  |grad|_K:  7.706e-07  alpha:  3.152e-01  linmin:  6.535e-06  t[s]:  66946.11
	FillingsUpdate:  mu: +0.127120821  nElectrons: 349.000000  magneticMoment: [ Abs: 47.10253  Tot: +0.00000 ]
	SubspaceRotationAdjust: set factor to 0.187
ElecMinimize: Iter:  11  F: -2024.694494351777166  |grad|_K:  4.851e-07  alpha:  2.867e-01  linmin: -1.038e-05  t[s]:  66992.12
	FillingsUpdate:  mu: +0.127130237  nElectrons: 349.000000  magneticMoment: [ Abs: 47.10264  Tot: +0.00000 ]
	SubspaceRotationAdjust: set factor to 0.21
ElecMinimize: Iter:  12  F: -2024.694509892834276  |grad|_K:  3.395e-07  alpha:  3.790e-01  linmin:  3.813e-07  t[s]:  67037.80
	FillingsUpdate:  mu: +0.127140140  nElectrons: 349.000000  magneticMoment: [ Abs: 47.10287  Tot: -0.00000 ]
	SubspaceRotationAdjust: set factor to 0.234
ElecMinimize: Iter:  13  F: -2024.694516668194865  |grad|_K:  2.669e-07  alpha:  3.376e-01  linmin:  1.400e-07  t[s]:  67083.35
	FillingsUpdate:  mu: +0.127098132  nElectrons: 349.000000  magneticMoment: [ Abs: 47.10207  Tot: -0.00000 ]
	SubspaceRotationAdjust: set factor to 0.265
ElecMinimize: Iter:  14  F: -2024.694520816048453  |grad|_K:  1.971e-07  alpha:  3.344e-01  linmin: -1.264e-06  t[s]:  67128.91
	FillingsUpdate:  mu: +0.127106429  nElectrons: 349.000000  magneticMoment: [ Abs: 47.10205  Tot: +0.00000 ]
	SubspaceRotationAdjust: set factor to 0.307
ElecMinimize: Iter:  15  F: -2024.694523359552477  |grad|_K:  1.618e-07  alpha:  3.761e-01  linmin:  3.395e-07  t[s]:  67174.70
	FillingsUpdate:  mu: +0.127090487  nElectrons: 349.000000  magneticMoment: [ Abs: 47.10115  Tot: -0.00000 ]
	SubspaceRotationAdjust: set factor to 0.343
ElecMinimize: Iter:  16  F: -2024.694525098592976  |grad|_K:  1.405e-07  alpha:  3.815e-01  linmin: -1.949e-06  t[s]:  67220.52
	FillingsUpdate:  mu: +0.127090466  nElectrons: 349.000000  magneticMoment: [ Abs: 47.10091  Tot: -0.00000 ]
	SubspaceRotationAdjust: set factor to 0.36
ElecMinimize: Iter:  17  F: -2024.694526302713712  |grad|_K:  1.201e-07  alpha:  3.500e-01  linmin:  1.790e-06  t[s]:  67265.92
	FillingsUpdate:  mu: +0.127064613  nElectrons: 349.000000  magneticMoment: [ Abs: 47.09980  Tot: -0.00000 ]
	SubspaceRotationAdjust: set factor to 0.33
ElecMinimize: Iter:  18  F: -2024.694527100031792  |grad|_K:  1.122e-07  alpha:  3.176e-01  linmin: -3.948e-06  t[s]:  67311.29
	FillingsUpdate:  mu: +0.127075726  nElectrons: 349.000000  magneticMoment: [ Abs: 47.09968  Tot: +0.00000 ]
	SubspaceRotationAdjust: set factor to 0.266
ElecMinimize: Iter:  19  F: -2024.694527632415884  |grad|_K:  9.623e-08  alpha:  2.424e-01  linmin:  6.880e-06  t[s]:  67356.88
	FillingsUpdate:  mu: +0.127055370  nElectrons: 349.000000  magneticMoment: [ Abs: 47.09844  Tot: +0.00000 ]
	SubspaceRotationAdjust: set factor to 0.271
ElecMinimize: Iter:  20  F: -2024.694528148116660  |grad|_K:  8.057e-08  alpha:  3.201e-01  linmin: -4.306e-06  t[s]:  67402.09
	FillingsUpdate:  mu: +0.127042317  nElectrons: 349.000000  magneticMoment: [ Abs: 47.09740  Tot: -0.00000 ]
	SubspaceRotationAdjust: set factor to 0.328
ElecMinimize: Iter:  21  F: -2024.694528618654886  |grad|_K:  7.742e-08  alpha:  4.160e-01  linmin:  2.192e-06  t[s]:  67447.49
	FillingsUpdate:  mu: +0.127039466  nElectrons: 349.000000  magneticMoment: [ Abs: 47.09636  Tot: +0.00000 ]
	SubspaceRotationAdjust: set factor to 0.365
ElecMinimize: Iter:  22  F: -2024.694529050624396  |grad|_K:  8.327e-08  alpha:  4.139e-01  linmin:  5.781e-06  t[s]:  67493.13
ElecMinimize: Converged (|Delta F|<1.000000e-06 for 5 iters).
Setting wave functions to eigenvectors of Hamiltonian

# Ionic positions in lattice coordinates:
ion Ni   0.001380997749621   0.009016257272263   0.159579807823524 1
ion Ni   0.490932888283698   0.503697653691704   0.151597398675619 1
ion V   0.494748950857103   0.003136808685935   0.165739816676152 1
ion V  -0.005112518838371   0.502391446120203   0.155802136016027 1
ion V   0.500000000000000   0.000000000000000  -0.050000000000000 0
ion Co   0.254671743585813   0.256192657794043   0.055273166444895 1
ion Co   0.250112018041151   0.757259335794165   0.058535470110009 1
ion Co   0.000000000000000   0.500000000000000  -0.050000000000000 0
ion Co   0.500000000000000   0.500000000000000  -0.050000000000000 0
ion Co   0.250000000000000   0.250000000000000  -0.150000000000000 0
ion Co   0.250000000000000   0.750000000000000  -0.150000000000000 0
ion Cr  -0.254390680248193   0.253752099391671   0.056176835853080 1
ion Cr  -0.256367987966371   0.750685491025721   0.053066140199767 1
ion Cr   0.000000000000000   0.000000000000000  -0.050000000000000 0
ion Cr  -0.250000000000000   0.250000000000000  -0.150000000000000 0
ion Cr  -0.250000000000000   0.750000000000000  -0.150000000000000 0
ion O   0.241009573156771   0.273874835459074   0.150562898496897 1
ion O   0.240833872676343   0.730305562463807   0.154407233470143 1
ion O  -0.259338948480071   0.275371642872109   0.152056886287859 1
ion O  -0.258511100683183   0.735018888088509   0.146325200512318 1
ion O   0.001270578380532  -0.025786345001223   0.046466950499032 1
ion O   0.515508298180249   0.003121986339387   0.055669745417704 1
ion O  -0.023273700021544   0.502131661051648   0.056698992609242 1
ion O   0.485326475332176   0.525393701938494   0.044939094680239 1
ion O   0.250000000000000   0.250000000000000  -0.050000000000000 0
ion O   0.250000000000000   0.750000000000000  -0.050000000000000 0
ion O  -0.250000000000000   0.250000000000000  -0.050000000000000 0
ion O  -0.250000000000000   0.750000000000000  -0.050000000000000 0
ion O   0.000000000000000   0.000000000000000  -0.150000000000000 0
ion O   0.500000000000000   0.000000000000000  -0.150000000000000 0
ion O   0.000000000000000   0.500000000000000  -0.150000000000000 0
ion O   0.500000000000000   0.500000000000000  -0.150000000000000 0
ion O  -0.009119480853405   0.005517091933635   0.240768838970512 1

# Forces in Lattice coordinates:
force Ni  -0.000206522509252  -0.000775733804315   0.018605652326013 1
force Ni  -0.004314647420143   0.000411192613522   0.002970069189082 1
force V   0.010303598263507  -0.000948351146395   0.010966128613302 1
force V  -0.001148971901929  -0.009027620928872   0.039334021795587 1
force V  -0.080557972991181  -0.001065707364915   0.528770668698423 0
force Co  -0.000310120535221  -0.001815614717580   0.010992506369375 1
force Co  -0.005567567070668   0.005704621765922  -0.016697583290145 1
force Co   0.035107362166037   0.008809134403649   0.158787054431216 0
force Co  -0.044331762582367   0.026204773874203  -0.034505197848627 0
force Co  -0.004765198441018   0.031432172831869  -0.064288486749827 0
force Co  -0.003510777977102  -0.030064218178870   0.023578862067496 0
force Cr   0.001359415104860  -0.002549076081266  -0.006215280723345 1
force Cr  -0.005550762681639  -0.005841281452317  -0.016295982125000 1
force Cr   0.044341959158374  -0.036485342267842   0.057641196881812 0
force Cr  -0.006282648825708   0.036170992407314  -1.437891767298035 0
force Cr  -0.007581930429044  -0.037793752718932  -1.461854551834857 0
force O   0.012493468686456   0.004016228894235  -0.007500039933660 1
force O   0.012784205423456  -0.000944302542261  -0.008954133735440 1
force O  -0.006795302820707   0.006204977387288  -0.013523696594619 1
force O  -0.006728596885719  -0.004269835035497  -0.001482356783736 1
force O  -0.002813951602386   0.002024117785887  -0.000443445343852 1
force O  -0.000963946468997  -0.006178525794999   0.007937846898448 1
force O  -0.005018326915533   0.003706574610209  -0.024925397216105 1
force O   0.002070561602534   0.004503203800205   0.019598094815951 1
force O   0.019392240057693   0.079253794650547   0.200938132892841 0
force O   0.008365963566232  -0.067367638481802  -0.235373746313727 0
force O  -0.002114601519747   0.083592399415598   1.110176832893349 0
force O  -0.016359850352311  -0.078539418714662   1.303796874039642 0
force O  -0.011112156063959   0.012807112451902   0.138861708320244 0
force O   0.056131873422897   0.002594114916407  -0.133544195694306 0
force O   0.000436281042669  -0.003302529988419  -0.154099598236609 0
force O   0.042857042205187  -0.010307713526801  -0.159178725343564 0
force O  -0.002311427321276  -0.001701687032640   0.039221793942254 1

# Energy components:
   Eewald =     5454.6956658748522386
       EH =     7276.0756666305751423
     Eloc =   -14887.5201002962767234
      Enl =     -552.8539654568819515
   Epulay =       -0.0004765495153388
      Exc =     -247.9926870349751766
       KE =      931.9552026428984846
        U =        0.9471535208700476
-------------------------------------
     Etot =    -2024.6935406684526697
       TS =        0.0009883821717855
-------------------------------------
        F =    -2024.6945290506243964

IonicMinimize: Iter:  21  F: -2024.694529050624396  |grad|_K:  4.567e-04  alpha:  1.000e+00  linmin: -1.664e-04  t[s]:  67509.01
IonicMinimize: Converged (|Delta F|<1.000000e-04 for 3 iters).

#--- Lowdin population analysis ---
# oxidation-state Ni +3.422 +3.359
# magnetic-moments Ni +0.601 -0.615
# oxidation-state V +1.191 +1.373 +0.944
# magnetic-moments V -3.010 +2.075 +2.834
# oxidation-state Co +1.193 +1.163 +1.205 +1.155 +1.231 +1.221
# magnetic-moments Co +2.654 +2.606 -2.700 +2.591 -2.689 -2.679
# oxidation-state Cr +2.816 +2.951 +2.839 +2.932 +2.937
# magnetic-moments Cr -3.807 -3.194 -3.649 +3.880 +3.885
# oxidation-state O -0.829 -0.833 -0.774 -0.747 -0.874 -0.917 -0.898 -0.936 -1.016 -1.009 -0.976 -0.959 -0.936 -0.958 -0.991 -0.991 -0.478
# magnetic-moments O +0.062 +0.059 +0.040 +0.054 +0.148 +0.108 +0.073 +0.078 -0.051 -0.064 +0.052 +0.051 -0.082 -0.138 -0.186 -0.081 +1.097


Dumping 'run.ionpos' ... done
Dumping 'run.lattice' ... done
Dumping 'run.Ecomponents' ... done
End date and time: Wed May 21 11:38:12 2025  (Duration: 0-18:45:13.31)
Done!
