
*************** JDFTx 1.7.0  ***************

Start date and time: Fri May 16 21:11:51 2025
Executable /data2/jt577/jdftx_eat_withLibXC/build/jdftx with command-line: -i /data2/jt577/May_2025/Relax_Mag_litU/pure_CoO/runs/calc_20250516-211150/O/O.in
Running on hosts (process indices):  node3401 (0-8)
Divided in process groups (process indices):  0 (0)  1 (1)  2 (2)  3 (3)  4 (4)  5 (5)  6 (6)  7 (7)  8 (8)
Resource initialization completed at t[s]:      0.00
Run totals: 9 processes, 90 threads, 0 GPUs


Input parsed successfully to the following command list (including defaults):

add-mix 
add-U 	Co d 0.121273
basis kpoint-dependent
coords-type Lattice
core-overlap-check vector
coulomb-interaction Periodic
davidson-band-ratio 1.1
dump End IonicPositions Lattice Ecomponents
dump-name O.$VAR
elec-cutoff 30
elec-eigen-algo Davidson
elec-ex-corr gga-x-rpbe gga-c-pbe
elec-smearing Fermi 0.001
electronic-minimize  \
	dirUpdateScheme      FletcherReeves \
	linminMethod         DirUpdateRecommended \
	nIterations          1000 \
	history              15 \
	knormThreshold       0 \
	energyDiffThreshold  1e-06 \
	nEnergyDiff          5 \
	alphaTstart          1 \
	alphaTmin            1e-10 \
	updateTestStepSize   yes \
	alphaTreduceFactor   0.1 \
	alphaTincreaseFactor 3 \
	nAlphaAdjustMax      3 \
	wolfeEnergy          0.0001 \
	wolfeGradient        0.9 \
	fdTest               no
exchange-regularization WignerSeitzTruncated
fluid None
fluid-ex-corr (null) lda-PZ
fluid-gummel-loop 10 1.000000e-05
fluid-minimize  \
	dirUpdateScheme      PolakRibiere \
	linminMethod         DirUpdateRecommended \
	nIterations          100 \
	history              15 \
	knormThreshold       0 \
	energyDiffThreshold  0 \
	nEnergyDiff          2 \
	alphaTstart          1 \
	alphaTmin            1e-10 \
	updateTestStepSize   yes \
	alphaTreduceFactor   0.1 \
	alphaTincreaseFactor 3 \
	nAlphaAdjustMax      3 \
	wolfeEnergy          0.0001 \
	wolfeGradient        0.9 \
	fdTest               no
fluid-solvent H2O 55.338 ScalarEOS \
	epsBulk 78.4 \
	pMol 0.92466 \
	epsInf 1.77 \
	Pvap 1.06736e-10 \
	sigmaBulk 4.62e-05 \
	Rvdw 2.61727 \
	Res 1.42 \
	tauNuc 343133 \
	poleEl 15 7 1
forces-output-coords Positions
initial-magnetic-moments  \
	Co 1 -1 1 -1 1 1 -1 -1 -1 1 -1 1 -1 -1 1 1
initial-state O.$VAR
ion Co  0.000000000000000   0.000000000000000   0.150000000000000 1
ion Co  0.500000000000000   0.000000000000000   0.150000000000000 1
ion Co  0.000000000000000   0.500000000000000   0.150000000000000 1
ion Co  0.500000000000000   0.500000000000000   0.150000000000000 1
ion Co  0.250000000000000   0.250000000000000   0.050000000000000 1
ion Co  0.250000000000000   0.750000000000000   0.050000000000000 1
ion Co -0.250000000000000   0.250000000000000   0.050000000000000 1
ion Co -0.250000000000000   0.750000000000000   0.050000000000000 1
ion Co  0.000000000000000   0.000000000000000  -0.050000000000000 0
ion Co  0.500000000000000   0.000000000000000  -0.050000000000000 0
ion Co  0.000000000000000   0.500000000000000  -0.050000000000000 0
ion Co  0.500000000000000   0.500000000000000  -0.050000000000000 0
ion Co  0.250000000000000   0.250000000000000  -0.150000000000000 0
ion Co  0.250000000000000   0.750000000000000  -0.150000000000000 0
ion Co -0.250000000000000   0.250000000000000  -0.150000000000000 0
ion Co -0.250000000000000   0.750000000000000  -0.150000000000000 0
ion O  0.250000000000000   0.250000000000000   0.150000000000000 1
ion O  0.250000000000000   0.750000000000000   0.150000000000000 1
ion O -0.250000000000000   0.250000000000000   0.150000000000000 1
ion O -0.250000000000000   0.750000000000000   0.150000000000000 1
ion O  0.000000000000000   0.000000000000000   0.050000000000000 1
ion O  0.500000000000000   0.000000000000000   0.050000000000000 1
ion O  0.000000000000000   0.500000000000000   0.050000000000000 1
ion O  0.500000000000000   0.500000000000000   0.050000000000000 1
ion O  0.250000000000000   0.250000000000000  -0.050000000000000 0
ion O  0.250000000000000   0.750000000000000  -0.050000000000000 0
ion O -0.250000000000000   0.250000000000000  -0.050000000000000 0
ion O -0.250000000000000   0.750000000000000  -0.050000000000000 0
ion O  0.000000000000000   0.000000000000000  -0.150000000000000 0
ion O  0.500000000000000   0.000000000000000  -0.150000000000000 0
ion O  0.000000000000000   0.500000000000000  -0.150000000000000 0
ion O  0.500000000000000   0.500000000000000  -0.150000000000000 0
ion O  0.000000000000000   0.000000000000000   0.230000000000000 1
ion-species SG15/$ID_ONCV_PBE.upf
ion-width 0
ionic-minimize  \
	dirUpdateScheme      L-BFGS \
	linminMethod         DirUpdateRecommended \
	nIterations          1000 \
	history              15 \
	knormThreshold       0.0001 \
	energyDiffThreshold  0.0001 \
	nEnergyDiff          3 \
	alphaTstart          1 \
	alphaTmin            1e-10 \
	updateTestStepSize   yes \
	alphaTreduceFactor   0.1 \
	alphaTincreaseFactor 3 \
	nAlphaAdjustMax      3 \
	wolfeEnergy          0.0001 \
	wolfeGradient        0.9 \
	fdTest               no
kpoint   0.500000000000   0.500000000000   0.500000000000  1.00000000000000
kpoint-folding 3 3 1 
latt-move-scale 1 1 1
latt-scale 1 1 1 
lattice  \
	   8.010000000000000    8.010000000000000    0.000000000000000  \
	   8.010000000000000   -8.010000000000000    0.000000000000000  \
	   0.000000000000000    0.000000000000000   40.049999999999997 
lattice-minimize  \
	dirUpdateScheme      L-BFGS \
	linminMethod         DirUpdateRecommended \
	nIterations          0 \
	history              15 \
	knormThreshold       0 \
	energyDiffThreshold  1e-06 \
	nEnergyDiff          2 \
	alphaTstart          1 \
	alphaTmin            1e-10 \
	updateTestStepSize   yes \
	alphaTreduceFactor   0.1 \
	alphaTincreaseFactor 3 \
	nAlphaAdjustMax      3 \
	wolfeEnergy          0.0001 \
	wolfeGradient        0.9 \
	fdTest               no
lcao-params -1 1e-06 0.001
pcm-variant GLSSA13
spintype z-spin
subspace-rotation-factor 1 yes
symmetries none
symmetry-threshold 0.0001


Applied RMS atom displacement 0 bohrs to make symmetries exact.

---------- Initializing the Grid ----------
R = 
[         8.01         8.01            0  ]
[         8.01        -8.01            0  ]
[            0            0        40.05  ]
unit cell volume = 5139.22
G =
[   0.392209   0.392209         -0  ]
[   0.392209  -0.392209         -0  ]
[         -0         -0   0.156884  ]
Minimum fftbox size, Smin = [  56  56  200  ]
Chosen fftbox size, S = [  56  56  200  ]

---------- Exchange Correlation functional ----------
Initialized LibXC exchange functional 'Hammer, Hansen, and Norskov'
Initialized LibXC correlation functional 'Perdew, Burke & Ernzerhof'

---------- Setting up pseudopotentials ----------
Width of ionic core gaussian charges (only for fluid interactions / plotting) set to 0

Reading pseudopotential file '/data2/jt577/jdftx_eat_withLibXC/build/pseudopotentials/SG15/Co_ONCV_PBE.upf':
  'Co' pseudopotential, 'PBE' functional
  Generated using ONCVPSP code by D. R. Hamann
  Author: Martin Schlipf and Francois Gygi  Date: 150915.
  17 valence electrons, 4 orbitals, 6 projectors, 1388 radial grid points, with lMax = 2
  Transforming local potential to a uniform radial grid of dG=0.02 with 1355 points.
  Transforming nonlocal projectors to a uniform radial grid of dG=0.02 with 528 points.
    3S    l: 0   occupation:  2.0   eigenvalue: -3.763303
    3P    l: 1   occupation:  6.0   eigenvalue: -2.412101
    4S    l: 0   occupation:  2.0   eigenvalue: -0.201022
    3D    l: 2   occupation:  7.0   eigenvalue: -0.301498
  Transforming atomic orbitals to a uniform radial grid of dG=0.02 with 528 points.
  Core radius for overlap checks: 1.94 bohrs.
  Reading pulay file /data2/jt577/jdftx_eat_withLibXC/build/pseudopotentials/SG15/Co_ONCV_PBE.pulay ... using dE_dnG = -9.787391e-05 computed for Ecut = 30.

Reading pseudopotential file '/data2/jt577/jdftx_eat_withLibXC/build/pseudopotentials/SG15/O_ONCV_PBE.upf':
  'O' pseudopotential, 'PBE' functional
  Generated using ONCVPSP code by D. R. Hamann
  Author: Martin Schlipf and Francois Gygi  Date: 150915.
  6 valence electrons, 2 orbitals, 4 projectors, 936 radial grid points, with lMax = 1
  Transforming local potential to a uniform radial grid of dG=0.02 with 1355 points.
  Transforming nonlocal projectors to a uniform radial grid of dG=0.02 with 528 points.
    2S    l: 0   occupation:  2.0   eigenvalue: -0.880572
    2P    l: 1   occupation:  4.0   eigenvalue: -0.331869
  Transforming atomic orbitals to a uniform radial grid of dG=0.02 with 528 points.
  Core radius for overlap checks: 1.29 bohrs.
  Reading pulay file /data2/jt577/jdftx_eat_withLibXC/build/pseudopotentials/SG15/O_ONCV_PBE.pulay ... using dE_dnG = -8.209514e-03 computed for Ecut = 30.

Initialized 2 species with 33 total atoms.

Folded 1 k-points by 3x3x1 to 9 k-points.

---------- Setting up k-points, bands, fillings ----------
No reducable k-points. 
Computing the number of bands and number of electrons
Calculating initial fillings.
nElectrons: 374.000000   nBands: 228   nStates: 18

----- Setting up reduced wavefunction bases (one per k-point) -----
average nbasis = 40341.333 , ideal nbasis = 40334.198

---------- Setting up ewald sum ----------
Optimum gaussian width for ewald sums = 3.844061 bohr.
Real space sum over 605 unit cells with max indices [  5  5  2  ]
Reciprocal space sum over 5915 terms with max indices [  6  6  17  ]

---------- Allocating electronic variables ----------
Initializing wave functions:  linear combination of atomic orbitals
Co (M=1) pseudo-atom majority spin occupations:   s ( 1 0 )  p ( 3 )  d ( 5 )
Co (M=1) pseudo-atom minority spin occupations:   s ( 1 0 )  p ( 3 )  d ( 4 )
O pseudo-atom occupations:   s ( 2 )  p ( 4 )
	FillingsUpdate:  mu: -0.170892153  nElectrons: 374.000000  magneticMoment: [ Abs: 37.86374  Tot: -0.00000 ]
LCAOMinimize: Iter:   0  F: -2404.3167144150925196  |grad|_K:  2.360e-02  alpha:  1.000e+00
LCAOMinimize: 	Step increased F by 1.957939e+02, reducing alpha to 3.940579e-02.
LCAOMinimize: 	Step increased F by 1.028200e+01, reducing alpha to 3.940579e-03.
	FillingsUpdate:  mu: -0.025469771  nElectrons: 374.000000  magneticMoment: [ Abs: 38.96281  Tot: +0.00000 ]
LCAOMinimize: Iter:   1  F: -2405.9587480659556604  |grad|_K:  1.454e-02  alpha:  3.941e-03  linmin: -1.090e-01  cgtest:  9.378e-01  t[s]:     55.06
LCAOMinimize: Encountered beta<0, resetting CG.
LCAOMinimize: 	Predicted alpha/alphaT>3.000000, increasing alphaT to 1.182174e-02.
	FillingsUpdate:  mu: +0.322180779  nElectrons: 374.000000  magneticMoment: [ Abs: 41.19992  Tot: +0.00000 ]
LCAOMinimize: Iter:   2  F: -2407.5021664508553840  |grad|_K:  1.234e-02  alpha:  1.509e-02  linmin: -8.979e-03  cgtest:  3.488e-02  t[s]:     72.12
LCAOMinimize: 	Wrong curvature in test step, increasing alphaT to 4.525699e-02.
	FillingsUpdate:  mu: +0.319712015  nElectrons: 374.000000  magneticMoment: [ Abs: 43.87660  Tot: -0.00000 ]
LCAOMinimize: Iter:   3  F: -2409.9880130109527272  |grad|_K:  1.169e-02  alpha: -1.298e-01  linmin: -6.550e-02  cgtest:  9.283e-01  t[s]:     83.99
	FillingsUpdate:  mu: +0.590457601  nElectrons: 374.000000  magneticMoment: [ Abs: 14.74543  Tot: -0.00000 ]
LCAOMinimize: Iter:   4  F: -2421.4432395526878281  |grad|_K:  1.518e-02  alpha:  3.863e-01  linmin:  4.602e-02  cgtest: -1.024e+00  t[s]:     96.70
LCAOMinimize: 	Bad step direction: g.d > 0.
LCAOMinimize: 	Undoing step.
LCAOMinimize: 	Step failed: resetting search direction.
	FillingsUpdate:  mu: +0.590457601  nElectrons: 374.000000  magneticMoment: [ Abs: 14.74543  Tot: -0.00000 ]
LCAOMinimize: Iter:   5  F: -2421.4432395526878281  |grad|_K:  1.518e-02  alpha:  0.000e+00
LCAOMinimize: 	Step increased F by 2.450310e+00, reducing alpha to 4.834751e-03.
	FillingsUpdate:  mu: +0.443953133  nElectrons: 374.000000  magneticMoment: [ Abs: 14.86019  Tot: +0.00000 ]
LCAOMinimize: Iter:   6  F: -2422.4466101052212252  |grad|_K:  1.336e-02  alpha:  4.835e-03  linmin: -1.476e-01  cgtest:  9.385e-01  t[s]:    127.56
LCAOMinimize: Encountered beta<0, resetting CG.
LCAOMinimize: 	Predicted alpha/alphaT>3.000000, increasing alphaT to 1.450425e-02.
LCAOMinimize: 	Predicted alpha/alphaT>3.000000, increasing alphaT to 4.351276e-02.
	FillingsUpdate:  mu: +1.055790279  nElectrons: 374.000000  magneticMoment: [ Abs: 17.78136  Tot: +0.00000 ]
LCAOMinimize: Iter:   7  F: -2426.2331432244282041  |grad|_K:  2.305e-02  alpha:  4.129e-02  linmin:  3.116e-02  cgtest: -2.314e-01  t[s]:    148.02
LCAOMinimize: 	Step increased F by 7.886192e-02, reducing alpha to 1.781757e-04.
	FillingsUpdate:  mu: +1.070519247  nElectrons: 374.000000  magneticMoment: [ Abs: 17.85725  Tot: -0.00000 ]
LCAOMinimize: Iter:   8  F: -2426.2556976594401021  |grad|_K:  2.350e-02  alpha:  1.782e-04  linmin: -8.667e-03  cgtest:  9.944e-01  t[s]:    169.82
LCAOMinimize: 	Predicted alpha/alphaT>3.000000, increasing alphaT to 5.345272e-04.
LCAOMinimize: 	Predicted alpha/alphaT>3.000000, increasing alphaT to 1.603582e-03.
LCAOMinimize: 	Predicted alpha/alphaT>3.000000, increasing alphaT to 4.810745e-03.
	FillingsUpdate:  mu: +0.625296414  nElectrons: 374.000000  magneticMoment: [ Abs: 18.28032  Tot: +0.00000 ]
LCAOMinimize: Iter:   9  F: -2429.1831708977069866  |grad|_K:  1.181e-02  alpha:  8.634e-03  linmin: -1.932e-01  cgtest:  8.218e-01  t[s]:    190.11
LCAOMinimize: Encountered beta<0, resetting CG.
LCAOMinimize: 	Predicted alpha/alphaT>3.000000, increasing alphaT to 2.590168e-02.
LCAOMinimize: 	Wrong curvature in test step, increasing alphaT to 7.770503e-02.
	FillingsUpdate:  mu: +0.479033255  nElectrons: 374.000000  magneticMoment: [ Abs: 20.93900  Tot: +0.00000 ]
LCAOMinimize: Iter:  10  F: -2433.0061590995460392  |grad|_K:  1.050e-02  alpha: -1.071e-01  linmin: -1.771e-01  cgtest:  3.960e-01  t[s]:    205.90
LCAOMinimize: 	Step increased F by 7.945493e+01, reducing alpha to 2.336924e-02.
	FillingsUpdate:  mu: +0.121360735  nElectrons: 374.000000  magneticMoment: [ Abs: 23.53754  Tot: +0.00000 ]
LCAOMinimize: Iter:  11  F: -2434.6064443557102095  |grad|_K:  8.184e-03  alpha:  2.337e-02  linmin: -8.956e-02  cgtest: -1.058e-01  t[s]:    227.96
	FillingsUpdate:  mu: +0.190747981  nElectrons: 374.000000  magneticMoment: [ Abs: 24.61421  Tot: -0.00000 ]
LCAOMinimize: Iter:  12  F: -2435.2375644388771434  |grad|_K:  5.755e-03  alpha:  7.414e-03  linmin: -1.251e-01  cgtest:  6.920e-01  t[s]:    240.88
LCAOMinimize: 	Wrong curvature in test step, increasing alphaT to 2.224119e-02.
	FillingsUpdate:  mu: +0.220148550  nElectrons: 374.000000  magneticMoment: [ Abs: 24.96441  Tot: +0.00000 ]
LCAOMinimize: Iter:  13  F: -2435.5055622612544539  |grad|_K:  6.029e-03  alpha: -2.658e-02  linmin: -1.892e-01  cgtest:  8.024e-01  t[s]:    252.75
LCAOMinimize: 	Step increased F by 1.436731e+01, reducing alpha to 2.383626e-02.
	FillingsUpdate:  mu: +0.379523427  nElectrons: 374.000000  magneticMoment: [ Abs: 26.74772  Tot: +0.00000 ]
LCAOMinimize: Iter:  14  F: -2436.0233670052703019  |grad|_K:  6.553e-03  alpha:  2.384e-02  linmin: -1.609e-02  cgtest: -4.580e-02  t[s]:    274.66
	FillingsUpdate:  mu: +0.329451066  nElectrons: 374.000000  magneticMoment: [ Abs: 27.72571  Tot: -0.00000 ]
LCAOMinimize: Iter:  15  F: -2436.2759150206297818  |grad|_K:  4.218e-03  alpha:  7.756e-03  linmin: -5.605e-02  cgtest:  5.309e-01  t[s]:    287.40
LCAOMinimize: 	Predicted alpha/alphaT>3.000000, increasing alphaT to 2.326667e-02.
	FillingsUpdate:  mu: +0.233947974  nElectrons: 374.000000  magneticMoment: [ Abs: 29.13960  Tot: -0.00000 ]
LCAOMinimize: Iter:  16  F: -2436.5020598104833880  |grad|_K:  4.246e-03  alpha:  2.570e-02  linmin:  1.744e-02  cgtest: -8.402e-02  t[s]:    303.94
	FillingsUpdate:  mu: +0.193358540  nElectrons: 374.000000  magneticMoment: [ Abs: 30.43457  Tot: -0.00000 ]
LCAOMinimize: Iter:  17  F: -2436.6244767700131888  |grad|_K:  3.702e-03  alpha:  1.429e-02  linmin: -9.013e-03  cgtest:  3.800e-01  t[s]:    316.94
	FillingsUpdate:  mu: +0.213777122  nElectrons: 374.000000  magneticMoment: [ Abs: 31.34729  Tot: +0.00000 ]
LCAOMinimize: Iter:  18  F: -2436.7244531301735151  |grad|_K:  1.932e-03  alpha:  1.484e-02  linmin:  1.178e-02  cgtest: -2.192e-01  t[s]:    329.76
	FillingsUpdate:  mu: +0.215459413  nElectrons: 374.000000  magneticMoment: [ Abs: 32.42706  Tot: -0.00000 ]
LCAOMinimize: Iter:  19  F: -2436.7654949549869343  |grad|_K:  2.590e-03  alpha:  2.652e-02  linmin:  7.071e-03  cgtest:  8.144e-02  t[s]:    342.79
	FillingsUpdate:  mu: +0.184836278  nElectrons: 374.000000  magneticMoment: [ Abs: 33.20277  Tot: +0.00000 ]
LCAOMinimize: Iter:  20  F: -2436.7929716856588129  |grad|_K:  1.376e-03  alpha:  1.047e-02  linmin:  8.426e-03  cgtest:  1.310e-01  t[s]:    355.85
	FillingsUpdate:  mu: +0.164748006  nElectrons: 374.000000  magneticMoment: [ Abs: 33.78115  Tot: -0.00000 ]
LCAOMinimize: Iter:  21  F: -2436.8155279755610536  |grad|_K:  9.788e-04  alpha:  2.575e-02  linmin: -9.060e-03  cgtest:  1.414e-01  t[s]:    369.07
	FillingsUpdate:  mu: +0.182794301  nElectrons: 374.000000  magneticMoment: [ Abs: 34.06558  Tot: -0.00000 ]
LCAOMinimize: Iter:  22  F: -2436.8255430998624433  |grad|_K:  7.676e-04  alpha:  2.142e-02  linmin: -5.796e-04  cgtest: -9.247e-02  t[s]:    382.17
	FillingsUpdate:  mu: +0.194664278  nElectrons: 374.000000  magneticMoment: [ Abs: 34.56514  Tot: -0.00000 ]
LCAOMinimize: Iter:  23  F: -2436.8390155241099819  |grad|_K:  1.544e-03  alpha:  4.508e-02  linmin: -4.857e-03  cgtest:  9.750e-02  t[s]:    395.13
	FillingsUpdate:  mu: +0.203462421  nElectrons: 374.000000  magneticMoment: [ Abs: 35.43816  Tot: -0.00000 ]
LCAOMinimize: Iter:  24  F: -2436.8611101417559439  |grad|_K:  1.790e-03  alpha:  2.112e-02  linmin:  3.757e-03  cgtest: -4.986e-01  t[s]:    408.20
	FillingsUpdate:  mu: +0.207862641  nElectrons: 374.000000  magneticMoment: [ Abs: 37.47436  Tot: +0.00000 ]
LCAOMinimize: Iter:  25  F: -2436.9005253100044683  |grad|_K:  1.646e-03  alpha:  3.079e-02  linmin: -1.333e-03  cgtest:  1.061e+00  t[s]:    421.36
LCAOMinimize: Encountered beta<0, resetting CG.
	FillingsUpdate:  mu: +0.197513416  nElectrons: 374.000000  magneticMoment: [ Abs: 37.46179  Tot: +0.00000 ]
LCAOMinimize: Iter:  26  F: -2436.9237943746866222  |grad|_K:  1.508e-03  alpha:  1.881e-02  linmin:  1.374e-03  cgtest: -1.252e-02  t[s]:    434.52
	FillingsUpdate:  mu: +0.176261113  nElectrons: 374.000000  magneticMoment: [ Abs: 37.31333  Tot: +0.00000 ]
LCAOMinimize: Iter:  27  F: -2436.9586132118624846  |grad|_K:  9.874e-04  alpha:  3.181e-02  linmin: -1.054e-02  cgtest:  5.840e-02  t[s]:    447.80
	FillingsUpdate:  mu: +0.174792273  nElectrons: 374.000000  magneticMoment: [ Abs: 37.18578  Tot: +0.00000 ]
LCAOMinimize: Iter:  28  F: -2436.9936111237007026  |grad|_K:  6.503e-04  alpha:  6.617e-02  linmin: -2.802e-02  cgtest:  3.505e-01  t[s]:    460.94
	FillingsUpdate:  mu: +0.176271523  nElectrons: 374.000000  magneticMoment: [ Abs: 37.61486  Tot: -0.00000 ]
LCAOMinimize: Iter:  29  F: -2437.0354876713231533  |grad|_K:  8.968e-04  alpha:  1.618e-01  linmin: -2.756e-02  cgtest:  1.559e-01  t[s]:    474.21
	FillingsUpdate:  mu: +0.197838804  nElectrons: 374.000000  magneticMoment: [ Abs: 38.06749  Tot: -0.00000 ]
LCAOMinimize: Iter:  30  F: -2437.0587799327809080  |grad|_K:  1.292e-03  alpha:  7.992e-02  linmin:  4.389e-03  cgtest: -4.543e-01  t[s]:    487.25
LCAOMinimize: None of the convergence criteria satisfied after 30 iterations.


---- Citations for features of the code used in this run ----

   Software package:
      R. Sundararaman, K. Letchworth-Weaver, K.A. Schwarz, D. Gunceler, Y. Ozhabes and T.A. Arias, 'JDFTx: software for joint density-functional theory', SoftwareX 6, 278 (2017)

   Simplified rotationally-invariant DFT+U:
      S. L. Dudarev et al., Phys. Rev. B 57, 1505 (1998)

   LibXC library of exchange-correlation functions:
      M. A. L. Marques, M. J. T. Oliveira and T. Burnus, Comput. Phys. Commun. 183, 2272 (2012)

   Hammer, Hansen, and Norskov exchange functional:
      B. Hammer, L. B. Hansen, and J. K. Nørskov, Phys. Rev. B 59, 7413 (1999)

   Perdew, Burke & Ernzerhof correlation functional:
      J. P. Perdew, K. Burke, and M. Ernzerhof, Phys. Rev. Lett. 77, 3865 (1996)

   Pseudopotentials:
      M Schlipf and F Gygi, Comput. Phys. Commun. 196, 36 (2015)

   Total energy minimization with Auxiliary Hamiltonian:
      C. Freysoldt, S. Boeck, and J. Neugebauer, Phys. Rev. B 79, 241103(R) (2009)

This list may not be complete. Please suggest additional citations or
report any other bugs at https://github.com/shankar1729/jdftx/issues

Initialization completed successfully at t[s]:    492.80


-------- Electronic minimization -----------
	FillingsUpdate:  mu: +0.197840261  nElectrons: 374.000000  magneticMoment: [ Abs: 38.06749  Tot: -0.00000 ]
ElecMinimize: Iter:   0  F: -2437.058779932782727  |grad|_K:  1.517e-04  alpha:  1.000e+00
	FillingsUpdate:  mu: +0.177883935  nElectrons: 374.000000  magneticMoment: [ Abs: 38.44304  Tot: +0.00000 ]
	SubspaceRotationAdjust: set factor to 0.919
ElecMinimize: Iter:   1  F: -2437.431628870271197  |grad|_K:  1.274e-04  alpha:  6.459e-02  linmin: -2.231e-03  t[s]:    576.97
ElecMinimize: 	Predicted alpha/alphaT>3.000000, increasing alphaT to 1.937776e-01.
	FillingsUpdate:  mu: +0.128229698  nElectrons: 374.000000  magneticMoment: [ Abs: 40.05541  Tot: -0.00000 ]
	SubspaceRotationAdjust: set factor to 0.887
ElecMinimize: Iter:   2  F: -2438.374809754370290  |grad|_K:  1.002e-04  alpha:  2.180e-01  linmin: -1.034e-04  t[s]:    677.10
	FillingsUpdate:  mu: +0.131964376  nElectrons: 374.000000  magneticMoment: [ Abs: 41.66400  Tot: +0.00000 ]
	SubspaceRotationAdjust: set factor to 0.95
ElecMinimize: Iter:   3  F: -2438.737409223905615  |grad|_K:  8.216e-05  alpha:  2.081e-01  linmin: -7.180e-05  t[s]:    751.50
	FillingsUpdate:  mu: +0.099490871  nElectrons: 374.000000  magneticMoment: [ Abs: 42.92562  Tot: +0.00000 ]
	SubspaceRotationAdjust: set factor to 1.12
ElecMinimize: Iter:   4  F: -2438.986571610298597  |grad|_K:  5.954e-05  alpha:  2.122e-01  linmin: -2.399e-05  t[s]:    823.37
	FillingsUpdate:  mu: +0.104948298  nElectrons: 374.000000  magneticMoment: [ Abs: 43.83349  Tot: +0.00000 ]
	SubspaceRotationAdjust: set factor to 1.15
ElecMinimize: Iter:   5  F: -2439.128512075505114  |grad|_K:  4.305e-05  alpha:  2.368e-01  linmin: -2.211e-05  t[s]:    894.63
	FillingsUpdate:  mu: +0.133159186  nElectrons: 374.000000  magneticMoment: [ Abs: 44.19695  Tot: +0.00000 ]
	SubspaceRotationAdjust: set factor to 0.942
ElecMinimize: Iter:   6  F: -2439.184390633926796  |grad|_K:  3.647e-05  alpha:  1.787e-01  linmin:  1.138e-05  t[s]:    967.89
	FillingsUpdate:  mu: +0.115722692  nElectrons: 374.000000  magneticMoment: [ Abs: 44.40864  Tot: -0.00000 ]
	SubspaceRotationAdjust: set factor to 0.888
ElecMinimize: Iter:   7  F: -2439.222871553461118  |grad|_K:  2.524e-05  alpha:  1.748e-01  linmin: -1.893e-05  t[s]:   1040.31
	FillingsUpdate:  mu: +0.112551217  nElectrons: 374.000000  magneticMoment: [ Abs: 44.44016  Tot: +0.00000 ]
	SubspaceRotationAdjust: set factor to 1.07
ElecMinimize: Iter:   8  F: -2439.248136726380380  |grad|_K:  1.822e-05  alpha:  2.388e-01  linmin:  5.948e-06  t[s]:   1113.82
	FillingsUpdate:  mu: +0.115780928  nElectrons: 374.000000  magneticMoment: [ Abs: 44.40887  Tot: +0.00000 ]
	SubspaceRotationAdjust: set factor to 1.01
ElecMinimize: Iter:   9  F: -2439.259958607489807  |grad|_K:  1.476e-05  alpha:  2.148e-01  linmin:  3.024e-06  t[s]:   1186.75
	FillingsUpdate:  mu: +0.107014976  nElectrons: 374.000000  magneticMoment: [ Abs: 44.40904  Tot: +0.00000 ]
	SubspaceRotationAdjust: set factor to 0.871
ElecMinimize: Iter:  10  F: -2439.266015642155253  |grad|_K:  1.134e-05  alpha:  1.680e-01  linmin: -2.066e-06  t[s]:   1258.26
	FillingsUpdate:  mu: +0.109087644  nElectrons: 374.000000  magneticMoment: [ Abs: 44.43505  Tot: +0.00000 ]
	SubspaceRotationAdjust: set factor to 0.957
ElecMinimize: Iter:  11  F: -2439.271284864402332  |grad|_K:  8.525e-06  alpha:  2.465e-01  linmin:  2.238e-06  t[s]:   1333.72
	FillingsUpdate:  mu: +0.111414112  nElectrons: 374.000000  magneticMoment: [ Abs: 44.45205  Tot: +0.00000 ]
	SubspaceRotationAdjust: set factor to 0.986
ElecMinimize: Iter:  12  F: -2439.274248230919056  |grad|_K:  6.811e-06  alpha:  2.460e-01  linmin:  1.829e-06  t[s]:   1404.77
	FillingsUpdate:  mu: +0.108339514  nElectrons: 374.000000  magneticMoment: [ Abs: 44.45004  Tot: +0.00000 ]
	SubspaceRotationAdjust: set factor to 0.869
ElecMinimize: Iter:  13  F: -2439.275744140722963  |grad|_K:  5.463e-06  alpha:  1.945e-01  linmin: -2.322e-06  t[s]:   1478.01
	FillingsUpdate:  mu: +0.109526159  nElectrons: 374.000000  magneticMoment: [ Abs: 44.43223  Tot: +0.00000 ]
	SubspaceRotationAdjust: set factor to 0.894
ElecMinimize: Iter:  14  F: -2439.276812115928351  |grad|_K:  4.177e-06  alpha:  2.155e-01  linmin:  3.329e-06  t[s]:   1552.40
	FillingsUpdate:  mu: +0.109883228  nElectrons: 374.000000  magneticMoment: [ Abs: 44.41206  Tot: +0.00000 ]
	SubspaceRotationAdjust: set factor to 1.04
ElecMinimize: Iter:  15  F: -2439.277606086484411  |grad|_K:  3.435e-06  alpha:  2.742e-01  linmin:  5.995e-07  t[s]:   1626.07
	FillingsUpdate:  mu: +0.108986783  nElectrons: 374.000000  magneticMoment: [ Abs: 44.40070  Tot: +0.00000 ]
	SubspaceRotationAdjust: set factor to 1.01
ElecMinimize: Iter:  16  F: -2439.278068956858988  |grad|_K:  3.159e-06  alpha:  2.363e-01  linmin: -5.122e-07  t[s]:   1699.68
	FillingsUpdate:  mu: +0.110468040  nElectrons: 374.000000  magneticMoment: [ Abs: 44.39229  Tot: +0.00000 ]
	SubspaceRotationAdjust: set factor to 0.956
ElecMinimize: Iter:  17  F: -2439.278398634437053  |grad|_K:  2.484e-06  alpha:  1.989e-01  linmin:  6.546e-07  t[s]:   1771.96
	FillingsUpdate:  mu: +0.109946845  nElectrons: 374.000000  magneticMoment: [ Abs: 44.38865  Tot: +0.00000 ]
	SubspaceRotationAdjust: set factor to 1.08
ElecMinimize: Iter:  18  F: -2439.278660301846685  |grad|_K:  2.073e-06  alpha:  2.556e-01  linmin:  3.169e-07  t[s]:   1843.91
	FillingsUpdate:  mu: +0.109462347  nElectrons: 374.000000  magneticMoment: [ Abs: 44.38666  Tot: +0.00000 ]
	SubspaceRotationAdjust: set factor to 1.21
ElecMinimize: Iter:  19  F: -2439.278871479716599  |grad|_K:  1.931e-06  alpha:  2.961e-01  linmin:  5.874e-07  t[s]:   1917.66
	FillingsUpdate:  mu: +0.110243536  nElectrons: 374.000000  magneticMoment: [ Abs: 44.38374  Tot: +0.00000 ]
	SubspaceRotationAdjust: set factor to 1.16
ElecMinimize: Iter:  20  F: -2439.279018320170053  |grad|_K:  2.000e-06  alpha:  2.371e-01  linmin:  6.502e-07  t[s]:   1992.44
	FillingsUpdate:  mu: +0.109289413  nElectrons: 374.000000  magneticMoment: [ Abs: 44.38196  Tot: +0.00000 ]
	SubspaceRotationAdjust: set factor to 1.08
ElecMinimize: Iter:  21  F: -2439.279149674053770  |grad|_K:  1.763e-06  alpha:  1.977e-01  linmin: -8.321e-07  t[s]:   2066.21
	FillingsUpdate:  mu: +0.109476003  nElectrons: 374.000000  magneticMoment: [ Abs: 44.38063  Tot: +0.00000 ]
	SubspaceRotationAdjust: set factor to 1.22
ElecMinimize: Iter:  22  F: -2439.279291858063516  |grad|_K:  1.630e-06  alpha:  2.754e-01  linmin:  4.344e-07  t[s]:   2141.65
	FillingsUpdate:  mu: +0.109495790  nElectrons: 374.000000  magneticMoment: [ Abs: 44.38320  Tot: +0.00000 ]
	SubspaceRotationAdjust: set factor to 1.39
ElecMinimize: Iter:  23  F: -2439.279435233575441  |grad|_K:  1.621e-06  alpha:  3.251e-01  linmin:  1.159e-06  t[s]:   2213.59
	FillingsUpdate:  mu: +0.109033407  nElectrons: 374.000000  magneticMoment: [ Abs: 44.38709  Tot: +0.00000 ]
	SubspaceRotationAdjust: set factor to 1.42
ElecMinimize: Iter:  24  F: -2439.279562088987859  |grad|_K:  1.893e-06  alpha:  2.909e-01  linmin:  7.123e-07  t[s]:   2287.44
	FillingsUpdate:  mu: +0.110071148  nElectrons: 374.000000  magneticMoment: [ Abs: 44.38779  Tot: +0.00000 ]
	SubspaceRotationAdjust: set factor to 1.22
ElecMinimize: Iter:  25  F: -2439.279669904476123  |grad|_K:  1.975e-06  alpha:  1.810e-01  linmin: -1.397e-06  t[s]:   2361.68
	FillingsUpdate:  mu: +0.109406702  nElectrons: 374.000000  magneticMoment: [ Abs: 44.38738  Tot: -0.00000 ]
	SubspaceRotationAdjust: set factor to 1.23
ElecMinimize: Iter:  26  F: -2439.279820187666701  |grad|_K:  1.853e-06  alpha:  2.320e-01  linmin:  3.209e-06  t[s]:   2436.29
	FillingsUpdate:  mu: +0.109584694  nElectrons: 374.000000  magneticMoment: [ Abs: 44.38428  Tot: +0.00000 ]
	SubspaceRotationAdjust: set factor to 1.39
ElecMinimize: Iter:  27  F: -2439.280012736396202  |grad|_K:  1.943e-06  alpha:  3.386e-01  linmin:  5.018e-06  t[s]:   2510.82
	FillingsUpdate:  mu: +0.110192536  nElectrons: 374.000000  magneticMoment: [ Abs: 44.38103  Tot: +0.00000 ]
	SubspaceRotationAdjust: set factor to 1.5
ElecMinimize: Iter:  28  F: -2439.280220043018744  |grad|_K:  2.207e-06  alpha:  3.316e-01  linmin:  3.298e-06  t[s]:   2585.51
	FillingsUpdate:  mu: +0.109125622  nElectrons: 374.000000  magneticMoment: [ Abs: 44.37991  Tot: +0.00000 ]
	SubspaceRotationAdjust: set factor to 1.38
ElecMinimize: Iter:  29  F: -2439.280404585397264  |grad|_K:  2.636e-06  alpha:  2.283e-01  linmin: -9.327e-07  t[s]:   2658.08
	FillingsUpdate:  mu: +0.110061246  nElectrons: 374.000000  magneticMoment: [ Abs: 44.37711  Tot: +0.00000 ]
	SubspaceRotationAdjust: set factor to 1.22
ElecMinimize: Iter:  30  F: -2439.280593659527312  |grad|_K:  2.333e-06  alpha:  1.632e-01  linmin:  2.865e-08  t[s]:   2733.20
	FillingsUpdate:  mu: +0.109512210  nElectrons: 374.000000  magneticMoment: [ Abs: 44.37289  Tot: +0.00000 ]
	SubspaceRotationAdjust: set factor to 1.39
ElecMinimize: Iter:  31  F: -2439.280838904550365  |grad|_K:  2.218e-06  alpha:  2.725e-01  linmin:  2.960e-05  t[s]:   2804.73
	FillingsUpdate:  mu: +0.109361353  nElectrons: 374.000000  magneticMoment: [ Abs: 44.36430  Tot: +0.00000 ]
	SubspaceRotationAdjust: set factor to 1.58
ElecMinimize: Iter:  32  F: -2439.281081074457688  |grad|_K:  2.398e-06  alpha:  2.992e-01  linmin:  1.162e-05  t[s]:   2878.38
	FillingsUpdate:  mu: +0.110594579  nElectrons: 374.000000  magneticMoment: [ Abs: 44.35203  Tot: +0.00000 ]
	SubspaceRotationAdjust: set factor to 1.54
ElecMinimize: Iter:  33  F: -2439.281290341692966  |grad|_K:  2.848e-06  alpha:  2.196e-01  linmin: -1.143e-07  t[s]:   2955.54
	FillingsUpdate:  mu: +0.109419484  nElectrons: 374.000000  magneticMoment: [ Abs: 44.34161  Tot: +0.00000 ]
	SubspaceRotationAdjust: set factor to 1.44
ElecMinimize: Iter:  34  F: -2439.281494735979777  |grad|_K:  2.520e-06  alpha:  1.514e-01  linmin: -1.114e-06  t[s]:   3029.49
	FillingsUpdate:  mu: +0.109749119  nElectrons: 374.000000  magneticMoment: [ Abs: 44.33094  Tot: +0.00000 ]
	SubspaceRotationAdjust: set factor to 1.69
ElecMinimize: Iter:  35  F: -2439.281746402653425  |grad|_K:  2.348e-06  alpha:  2.397e-01  linmin:  1.655e-05  t[s]:   3100.49
	FillingsUpdate:  mu: +0.109949137  nElectrons: 374.000000  magneticMoment: [ Abs: 44.32608  Tot: +0.00000 ]
	SubspaceRotationAdjust: set factor to 2.01
ElecMinimize: Iter:  36  F: -2439.281983935140943  |grad|_K:  2.290e-06  alpha:  2.626e-01  linmin:  2.086e-05  t[s]:   3172.98
	FillingsUpdate:  mu: +0.109323199  nElectrons: 374.000000  magneticMoment: [ Abs: 44.32263  Tot: +0.00000 ]
	SubspaceRotationAdjust: set factor to 2.14
ElecMinimize: Iter:  37  F: -2439.282173141230032  |grad|_K:  2.579e-06  alpha:  2.186e-01  linmin:  4.367e-06  t[s]:   3246.47
	FillingsUpdate:  mu: +0.110275676  nElectrons: 374.000000  magneticMoment: [ Abs: 44.31703  Tot: +0.00000 ]
	SubspaceRotationAdjust: set factor to 1.9
ElecMinimize: Iter:  38  F: -2439.282299464434800  |grad|_K:  2.514e-06  alpha:  1.139e-01  linmin: -5.931e-06  t[s]:   3322.19
	FillingsUpdate:  mu: +0.109357832  nElectrons: 374.000000  magneticMoment: [ Abs: 44.30911  Tot: +0.00000 ]
	SubspaceRotationAdjust: set factor to 2.04
ElecMinimize: Iter:  39  F: -2439.282455893706356  |grad|_K:  2.049e-06  alpha:  1.487e-01  linmin:  4.390e-06  t[s]:   3396.69
	FillingsUpdate:  mu: +0.109633497  nElectrons: 374.000000  magneticMoment: [ Abs: 44.30114  Tot: +0.00000 ]
	SubspaceRotationAdjust: set factor to 2.41
ElecMinimize: Iter:  40  F: -2439.282606268676318  |grad|_K:  1.877e-06  alpha:  2.167e-01  linmin:  4.016e-06  t[s]:   3469.05
	FillingsUpdate:  mu: +0.109567729  nElectrons: 374.000000  magneticMoment: [ Abs: 44.29780  Tot: +0.00000 ]
	SubspaceRotationAdjust: set factor to 2.92
ElecMinimize: Iter:  41  F: -2439.282729749362716  |grad|_K:  1.719e-06  alpha:  2.118e-01  linmin:  1.748e-06  t[s]:   3543.77
	FillingsUpdate:  mu: +0.109986686  nElectrons: 374.000000  magneticMoment: [ Abs: 44.29620  Tot: +0.00000 ]
	SubspaceRotationAdjust: set factor to 2.66
ElecMinimize: Iter:  42  F: -2439.282819946000018  |grad|_K:  1.941e-06  alpha:  1.839e-01  linmin:  1.330e-08  t[s]:   3617.27
	FillingsUpdate:  mu: +0.109251111  nElectrons: 374.000000  magneticMoment: [ Abs: 44.29574  Tot: +0.00000 ]
	SubspaceRotationAdjust: set factor to 2.32
ElecMinimize: Iter:  43  F: -2439.282868534430690  |grad|_K:  1.891e-06  alpha:  7.779e-02  linmin:  9.837e-07  t[s]:   3691.41
	FillingsUpdate:  mu: +0.109700595  nElectrons: 374.000000  magneticMoment: [ Abs: 44.29309  Tot: +0.00000 ]
	SubspaceRotationAdjust: set factor to 2.83
ElecMinimize: Iter:  44  F: -2439.282946864259429  |grad|_K:  1.482e-06  alpha:  1.320e-01  linmin: -2.692e-08  t[s]:   3766.50
	FillingsUpdate:  mu: +0.109680839  nElectrons: 374.000000  magneticMoment: [ Abs: 44.29037  Tot: +0.00000 ]
	SubspaceRotationAdjust: set factor to 3.59
ElecMinimize: Iter:  45  F: -2439.283027746245352  |grad|_K:  1.533e-06  alpha:  2.217e-01  linmin:  2.523e-07  t[s]:   3837.63
	FillingsUpdate:  mu: +0.109004781  nElectrons: 374.000000  magneticMoment: [ Abs: 44.28937  Tot: +0.00000 ]
	SubspaceRotationAdjust: set factor to 2.48
ElecMinimize: Iter:  46  F: -2439.283079279095091  |grad|_K:  2.224e-06  alpha:  1.322e-01  linmin: -9.666e-07  t[s]:   3909.54
	FillingsUpdate:  mu: +0.109639141  nElectrons: 374.000000  magneticMoment: [ Abs: 44.28741  Tot: +0.00000 ]
	SubspaceRotationAdjust: set factor to 2.3
ElecMinimize: Iter:  47  F: -2439.283128529568330  |grad|_K:  1.501e-06  alpha:  5.984e-02  linmin: -3.534e-06  t[s]:   3980.83
ElecMinimize: 	Predicted alpha/alphaT>3.000000, increasing alphaT to 1.795078e-01.
	FillingsUpdate:  mu: +0.109729451  nElectrons: 374.000000  magneticMoment: [ Abs: 44.28448  Tot: +0.00000 ]
	SubspaceRotationAdjust: set factor to 3.08
ElecMinimize: Iter:  48  F: -2439.283205848834768  |grad|_K:  1.471e-06  alpha:  2.064e-01  linmin:  2.097e-07  t[s]:   4085.92
	FillingsUpdate:  mu: +0.109033553  nElectrons: 374.000000  magneticMoment: [ Abs: 44.28305  Tot: +0.00000 ]
	SubspaceRotationAdjust: set factor to 2.38
ElecMinimize: Iter:  49  F: -2439.283255173537327  |grad|_K:  2.011e-06  alpha:  1.374e-01  linmin: -1.798e-07  t[s]:   4159.27
	FillingsUpdate:  mu: +0.109511605  nElectrons: 374.000000  magneticMoment: [ Abs: 44.28141  Tot: +0.00000 ]
	SubspaceRotationAdjust: set factor to 2.12
ElecMinimize: Iter:  50  F: -2439.283301954145372  |grad|_K:  1.402e-06  alpha:  6.954e-02  linmin: -1.249e-06  t[s]:   4233.38
	FillingsUpdate:  mu: +0.109501909  nElectrons: 374.000000  magneticMoment: [ Abs: 44.28195  Tot: +0.00000 ]
	SubspaceRotationAdjust: set factor to 2.76
ElecMinimize: Iter:  51  F: -2439.283368725967648  |grad|_K:  1.332e-06  alpha:  2.045e-01  linmin:  6.324e-07  t[s]:   4307.08
	FillingsUpdate:  mu: +0.109019834  nElectrons: 374.000000  magneticMoment: [ Abs: 44.28384  Tot: +0.00000 ]
	SubspaceRotationAdjust: set factor to 2.31
ElecMinimize: Iter:  52  F: -2439.283414240790080  |grad|_K:  1.743e-06  alpha:  1.546e-01  linmin: -9.981e-07  t[s]:   4381.22
	FillingsUpdate:  mu: +0.109543731  nElectrons: 374.000000  magneticMoment: [ Abs: 44.28483  Tot: +0.00000 ]
	SubspaceRotationAdjust: set factor to 1.93
ElecMinimize: Iter:  53  F: -2439.283451133393100  |grad|_K:  1.275e-06  alpha:  7.303e-02  linmin: -1.738e-06  t[s]:   4454.52
	FillingsUpdate:  mu: +0.109307233  nElectrons: 374.000000  magneticMoment: [ Abs: 44.28638  Tot: +0.00000 ]
	SubspaceRotationAdjust: set factor to 2.45
ElecMinimize: Iter:  54  F: -2439.283503208690490  |grad|_K:  1.138e-06  alpha:  1.927e-01  linmin: -7.358e-08  t[s]:   4526.40
	FillingsUpdate:  mu: +0.108904143  nElectrons: 374.000000  magneticMoment: [ Abs: 44.28750  Tot: -0.00000 ]
	SubspaceRotationAdjust: set factor to 2.24
ElecMinimize: Iter:  55  F: -2439.283539551568992  |grad|_K:  1.383e-06  alpha:  1.690e-01  linmin: -3.555e-07  t[s]:   4599.81
	FillingsUpdate:  mu: +0.109409714  nElectrons: 374.000000  magneticMoment: [ Abs: 44.28775  Tot: +0.00000 ]
	SubspaceRotationAdjust: set factor to 1.9
ElecMinimize: Iter:  56  F: -2439.283564816750186  |grad|_K:  1.089e-06  alpha:  7.938e-02  linmin: -2.546e-06  t[s]:   4673.48
	FillingsUpdate:  mu: +0.109337217  nElectrons: 374.000000  magneticMoment: [ Abs: 44.28857  Tot: +0.00000 ]
	SubspaceRotationAdjust: set factor to 2.47
ElecMinimize: Iter:  57  F: -2439.283601098875351  |grad|_K:  9.433e-07  alpha:  1.843e-01  linmin:  1.006e-05  t[s]:   4745.00
	FillingsUpdate:  mu: +0.108999308  nElectrons: 374.000000  magneticMoment: [ Abs: 44.28796  Tot: +0.00000 ]
	SubspaceRotationAdjust: set factor to 2.27
ElecMinimize: Iter:  58  F: -2439.283628617062277  |grad|_K:  1.136e-06  alpha:  1.867e-01  linmin:  1.062e-06  t[s]:   4819.81
	FillingsUpdate:  mu: +0.109381078  nElectrons: 374.000000  magneticMoment: [ Abs: 44.28610  Tot: +0.00000 ]
	SubspaceRotationAdjust: set factor to 1.97
ElecMinimize: Iter:  59  F: -2439.283645638576218  |grad|_K:  9.713e-07  alpha:  7.929e-02  linmin: -2.036e-06  t[s]:   4891.90
	FillingsUpdate:  mu: +0.109269191  nElectrons: 374.000000  magneticMoment: [ Abs: 44.28226  Tot: +0.00000 ]
	SubspaceRotationAdjust: set factor to 2.63
ElecMinimize: Iter:  60  F: -2439.283671983325803  |grad|_K:  8.174e-07  alpha:  1.681e-01  linmin:  2.523e-06  t[s]:   4966.83
	FillingsUpdate:  mu: +0.108998183  nElectrons: 374.000000  magneticMoment: [ Abs: 44.28017  Tot: +0.00000 ]
	SubspaceRotationAdjust: set factor to 2.21
ElecMinimize: Iter:  61  F: -2439.283692386472921  |grad|_K:  1.023e-06  alpha:  1.844e-01  linmin:  1.218e-06  t[s]:   5041.41
	FillingsUpdate:  mu: +0.109331161  nElectrons: 374.000000  magneticMoment: [ Abs: 44.27958  Tot: +0.00000 ]
	SubspaceRotationAdjust: set factor to 1.99
ElecMinimize: Iter:  62  F: -2439.283704999191741  |grad|_K:  8.497e-07  alpha:  7.251e-02  linmin: -5.396e-06  t[s]:   5113.36
	FillingsUpdate:  mu: +0.109271064  nElectrons: 374.000000  magneticMoment: [ Abs: 44.28144  Tot: +0.00000 ]
	SubspaceRotationAdjust: set factor to 2.79
ElecMinimize: Iter:  63  F: -2439.283726553983797  |grad|_K:  7.787e-07  alpha:  1.798e-01  linmin:  6.698e-06  t[s]:   5187.41
	FillingsUpdate:  mu: +0.108976432  nElectrons: 374.000000  magneticMoment: [ Abs: 44.28342  Tot: +0.00000 ]
	SubspaceRotationAdjust: set factor to 2.2
ElecMinimize: Iter:  64  F: -2439.283741027057658  |grad|_K:  1.050e-06  alpha:  1.441e-01  linmin:  8.335e-08  t[s]:   5260.09
	FillingsUpdate:  mu: +0.109281571  nElectrons: 374.000000  magneticMoment: [ Abs: 44.28464  Tot: +0.00000 ]
	SubspaceRotationAdjust: set factor to 2.13
ElecMinimize: Iter:  65  F: -2439.283755043557903  |grad|_K:  7.637e-07  alpha:  7.643e-02  linmin: -7.555e-07  t[s]:   5333.40
	FillingsUpdate:  mu: +0.109228658  nElectrons: 374.000000  magneticMoment: [ Abs: 44.28615  Tot: +0.00000 ]
	SubspaceRotationAdjust: set factor to 2.76
ElecMinimize: Iter:  66  F: -2439.283774489998450  |grad|_K:  7.693e-07  alpha:  2.009e-01  linmin:  2.076e-06  t[s]:   5406.75
	FillingsUpdate:  mu: +0.108916276  nElectrons: 374.000000  magneticMoment: [ Abs: 44.28802  Tot: +0.00000 ]
	SubspaceRotationAdjust: set factor to 2.37
ElecMinimize: Iter:  67  F: -2439.283786913248605  |grad|_K:  9.854e-07  alpha:  1.266e-01  linmin: -2.289e-07  t[s]:   5480.43
	FillingsUpdate:  mu: +0.109251337  nElectrons: 374.000000  magneticMoment: [ Abs: 44.29056  Tot: +0.00000 ]
	SubspaceRotationAdjust: set factor to 2.25
ElecMinimize: Iter:  68  F: -2439.283801466775458  |grad|_K:  7.541e-07  alpha:  9.022e-02  linmin: -1.546e-07  t[s]:   5553.06
	FillingsUpdate:  mu: +0.109276238  nElectrons: 374.000000  magneticMoment: [ Abs: 44.29542  Tot: +0.00000 ]
	SubspaceRotationAdjust: set factor to 2.71
ElecMinimize: Iter:  69  F: -2439.283820264788574  |grad|_K:  7.116e-07  alpha:  1.993e-01  linmin:  3.253e-06  t[s]:   5627.62
	FillingsUpdate:  mu: +0.109002725  nElectrons: 374.000000  magneticMoment: [ Abs: 44.29852  Tot: +0.00000 ]
	SubspaceRotationAdjust: set factor to 2.76
ElecMinimize: Iter:  70  F: -2439.283835149845800  |grad|_K:  8.513e-07  alpha:  1.774e-01  linmin:  2.473e-07  t[s]:   5701.01
	FillingsUpdate:  mu: +0.109273349  nElectrons: 374.000000  magneticMoment: [ Abs: 44.29929  Tot: +0.00000 ]
	SubspaceRotationAdjust: set factor to 2.26
ElecMinimize: Iter:  71  F: -2439.283844191258140  |grad|_K:  7.693e-07  alpha:  7.506e-02  linmin: -1.117e-06  t[s]:   5774.51
	FillingsUpdate:  mu: +0.109158724  nElectrons: 374.000000  magneticMoment: [ Abs: 44.29990  Tot: +0.00000 ]
	SubspaceRotationAdjust: set factor to 2.51
ElecMinimize: Iter:  72  F: -2439.283858082597817  |grad|_K:  6.257e-07  alpha:  1.412e-01  linmin:  1.002e-07  t[s]:   5846.40
	FillingsUpdate:  mu: +0.109175176  nElectrons: 374.000000  magneticMoment: [ Abs: 44.30093  Tot: +0.00000 ]
	SubspaceRotationAdjust: set factor to 2.99
ElecMinimize: Iter:  73  F: -2439.283871181978611  |grad|_K:  5.946e-07  alpha:  2.016e-01  linmin:  8.620e-07  t[s]:   5918.98
	FillingsUpdate:  mu: +0.109330091  nElectrons: 374.000000  magneticMoment: [ Abs: 44.30256  Tot: +0.00000 ]
	SubspaceRotationAdjust: set factor to 2.71
ElecMinimize: Iter:  74  F: -2439.283880627027884  |grad|_K:  7.187e-07  alpha:  1.609e-01  linmin: -1.835e-07  t[s]:   5991.82
	FillingsUpdate:  mu: +0.109082971  nElectrons: 374.000000  magneticMoment: [ Abs: 44.30380  Tot: -0.00000 ]
	SubspaceRotationAdjust: set factor to 2.23
ElecMinimize: Iter:  75  F: -2439.283886350238390  |grad|_K:  6.029e-07  alpha:  6.673e-02  linmin: -2.351e-07  t[s]:   6066.34
	FillingsUpdate:  mu: +0.109206808  nElectrons: 374.000000  magneticMoment: [ Abs: 44.30451  Tot: +0.00000 ]
	SubspaceRotationAdjust: set factor to 2.84
ElecMinimize: Iter:  76  F: -2439.283895358963491  |grad|_K:  4.931e-07  alpha:  1.493e-01  linmin:  1.186e-06  t[s]:   6138.23
	FillingsUpdate:  mu: +0.109313330  nElectrons: 374.000000  magneticMoment: [ Abs: 44.30365  Tot: +0.00000 ]
	SubspaceRotationAdjust: set factor to 3.01
ElecMinimize: Iter:  77  F: -2439.283903028344412  |grad|_K:  5.495e-07  alpha:  1.902e-01  linmin:  4.382e-07  t[s]:   6212.30
	FillingsUpdate:  mu: +0.109112089  nElectrons: 374.000000  magneticMoment: [ Abs: 44.30317  Tot: +0.00000 ]
	SubspaceRotationAdjust: set factor to 2.64
ElecMinimize: Iter:  78  F: -2439.283906940022007  |grad|_K:  5.747e-07  alpha:  7.805e-02  linmin: -2.385e-07  t[s]:   6287.64
	FillingsUpdate:  mu: +0.109253691  nElectrons: 374.000000  magneticMoment: [ Abs: 44.30219  Tot: +0.00000 ]
	SubspaceRotationAdjust: set factor to 3.07
ElecMinimize: Iter:  79  F: -2439.283913071172719  |grad|_K:  4.433e-07  alpha:  1.118e-01  linmin:  7.920e-07  t[s]:   6361.77
	FillingsUpdate:  mu: +0.109288867  nElectrons: 374.000000  magneticMoment: [ Abs: 44.30214  Tot: -0.00000 ]
	SubspaceRotationAdjust: set factor to 3.87
ElecMinimize: Iter:  80  F: -2439.283919449868336  |grad|_K:  4.324e-07  alpha:  1.957e-01  linmin:  5.838e-07  t[s]:   6435.37
	FillingsUpdate:  mu: +0.109134403  nElectrons: 374.000000  magneticMoment: [ Abs: 44.30226  Tot: +0.00000 ]
	SubspaceRotationAdjust: set factor to 3
ElecMinimize: Iter:  81  F: -2439.283924362406196  |grad|_K:  5.928e-07  alpha:  1.583e-01  linmin: -7.366e-08  t[s]:   6507.51
	FillingsUpdate:  mu: +0.109316839  nElectrons: 374.000000  magneticMoment: [ Abs: 44.30194  Tot: +0.00000 ]
	SubspaceRotationAdjust: set factor to 2.46
ElecMinimize: Iter:  82  F: -2439.283927240595403  |grad|_K:  4.715e-07  alpha:  4.927e-02  linmin: -1.331e-06  t[s]:   6581.31
ElecMinimize: 	Predicted alpha/alphaT>3.000000, increasing alphaT to 1.478168e-01.
	FillingsUpdate:  mu: +0.109347681  nElectrons: 374.000000  magneticMoment: [ Abs: 44.30110  Tot: +0.00000 ]
	SubspaceRotationAdjust: set factor to 3.45
ElecMinimize: Iter:  83  F: -2439.283933204922050  |grad|_K:  4.338e-07  alpha:  1.614e-01  linmin: -2.297e-07  t[s]:   6684.16
	FillingsUpdate:  mu: +0.109175526  nElectrons: 374.000000  magneticMoment: [ Abs: 44.30103  Tot: +0.00000 ]
	SubspaceRotationAdjust: set factor to 2.63
ElecMinimize: Iter:  84  F: -2439.283937046611300  |grad|_K:  6.200e-07  alpha:  1.229e-01  linmin: -2.255e-07  t[s]:   6759.51
	FillingsUpdate:  mu: +0.109326158  nElectrons: 374.000000  magneticMoment: [ Abs: 44.30108  Tot: +0.00000 ]
	SubspaceRotationAdjust: set factor to 2.42
ElecMinimize: Iter:  85  F: -2439.283941148844860  |grad|_K:  4.291e-07  alpha:  6.424e-02  linmin: -3.976e-07  t[s]:   6833.63
ElecMinimize: 	Predicted alpha/alphaT>3.000000, increasing alphaT to 1.927337e-01.
	FillingsUpdate:  mu: +0.109326727  nElectrons: 374.000000  magneticMoment: [ Abs: 44.30228  Tot: +0.00000 ]
	SubspaceRotationAdjust: set factor to 3.05
ElecMinimize: Iter:  86  F: -2439.283947109232486  |grad|_K:  4.414e-07  alpha:  1.949e-01  linmin:  5.015e-07  t[s]:   6939.35
	FillingsUpdate:  mu: +0.109179738  nElectrons: 374.000000  magneticMoment: [ Abs: 44.30304  Tot: +0.00000 ]
	SubspaceRotationAdjust: set factor to 2.64
ElecMinimize: Iter:  87  F: -2439.283950819135498  |grad|_K:  5.629e-07  alpha:  1.147e-01  linmin: -1.422e-07  t[s]:   7014.72
	FillingsUpdate:  mu: +0.109375128  nElectrons: 374.000000  magneticMoment: [ Abs: 44.30327  Tot: +0.00000 ]
	SubspaceRotationAdjust: set factor to 2.4
ElecMinimize: Iter:  88  F: -2439.283955023947783  |grad|_K:  4.188e-07  alpha:  7.989e-02  linmin: -5.092e-09  t[s]:   7088.95
	FillingsUpdate:  mu: +0.109350062  nElectrons: 374.000000  magneticMoment: [ Abs: 44.30292  Tot: +0.00000 ]
	SubspaceRotationAdjust: set factor to 2.89
ElecMinimize: Iter:  89  F: -2439.283960494278290  |grad|_K:  3.954e-07  alpha:  1.880e-01  linmin:  3.188e-06  t[s]:   7161.51
	FillingsUpdate:  mu: +0.109240201  nElectrons: 374.000000  magneticMoment: [ Abs: 44.30276  Tot: +0.00000 ]
	SubspaceRotationAdjust: set factor to 3.03
ElecMinimize: Iter:  90  F: -2439.283965038371207  |grad|_K:  4.592e-07  alpha:  1.753e-01  linmin:  4.048e-07  t[s]:   7233.97
	FillingsUpdate:  mu: +0.109407535  nElectrons: 374.000000  magneticMoment: [ Abs: 44.30272  Tot: +0.00000 ]
	SubspaceRotationAdjust: set factor to 2.48
ElecMinimize: Iter:  91  F: -2439.283967575340739  |grad|_K:  4.361e-07  alpha:  7.241e-02  linmin: -1.005e-06  t[s]:   7305.90
	FillingsUpdate:  mu: +0.109336482  nElectrons: 374.000000  magneticMoment: [ Abs: 44.30319  Tot: +0.00000 ]
	SubspaceRotationAdjust: set factor to 2.64
ElecMinimize: Iter:  92  F: -2439.283971407604895  |grad|_K:  3.465e-07  alpha:  1.213e-01  linmin:  6.206e-07  t[s]:   7381.59
	FillingsUpdate:  mu: +0.109342238  nElectrons: 374.000000  magneticMoment: [ Abs: 44.30325  Tot: +0.00000 ]
	SubspaceRotationAdjust: set factor to 3.13
ElecMinimize: Iter:  93  F: -2439.283975052232108  |grad|_K:  3.127e-07  alpha:  1.829e-01  linmin:  4.846e-07  t[s]:   7456.49
	FillingsUpdate:  mu: +0.109378751  nElectrons: 374.000000  magneticMoment: [ Abs: 44.30267  Tot: +0.00000 ]
	SubspaceRotationAdjust: set factor to 3.59
ElecMinimize: Iter:  94  F: -2439.283977982834131  |grad|_K:  3.122e-07  alpha:  1.806e-01  linmin: -5.935e-07  t[s]:   7529.13
	FillingsUpdate:  mu: +0.109264463  nElectrons: 374.000000  magneticMoment: [ Abs: 44.30248  Tot: +0.00000 ]
	SubspaceRotationAdjust: set factor to 2.8
ElecMinimize: Iter:  95  F: -2439.283979716563408  |grad|_K:  4.000e-07  alpha:  1.072e-01  linmin: -6.295e-08  t[s]:   7602.61
	FillingsUpdate:  mu: +0.109372478  nElectrons: 374.000000  magneticMoment: [ Abs: 44.30233  Tot: +0.00000 ]
	SubspaceRotationAdjust: set factor to 2.45
ElecMinimize: Iter:  96  F: -2439.283981367871547  |grad|_K:  2.763e-07  alpha:  6.217e-02  linmin: -2.235e-08  t[s]:   7677.91
	FillingsUpdate:  mu: +0.109345809  nElectrons: 374.000000  magneticMoment: [ Abs: 44.30275  Tot: +0.00000 ]
	SubspaceRotationAdjust: set factor to 3.07
ElecMinimize: Iter:  97  F: -2439.283983453419296  |grad|_K:  2.398e-07  alpha:  1.645e-01  linmin: -1.660e-07  t[s]:   7751.55
	FillingsUpdate:  mu: +0.109317904  nElectrons: 374.000000  magneticMoment: [ Abs: 44.30305  Tot: +0.00000 ]
	SubspaceRotationAdjust: set factor to 3.11
ElecMinimize: Iter:  98  F: -2439.283985135657986  |grad|_K:  2.737e-07  alpha:  1.762e-01  linmin: -5.339e-07  t[s]:   7824.88
	FillingsUpdate:  mu: +0.109422739  nElectrons: 374.000000  magneticMoment: [ Abs: 44.30287  Tot: +0.00000 ]
	SubspaceRotationAdjust: set factor to 2.69
ElecMinimize: Iter:  99  F: -2439.283986027707215  |grad|_K:  2.750e-07  alpha:  7.169e-02  linmin: -4.454e-07  t[s]:   7898.96
	FillingsUpdate:  mu: +0.109357586  nElectrons: 374.000000  magneticMoment: [ Abs: 44.30239  Tot: +0.00000 ]
	SubspaceRotationAdjust: set factor to 3.11
ElecMinimize: Iter: 100  F: -2439.283987435576819  |grad|_K:  2.153e-07  alpha:  1.121e-01  linmin:  5.312e-07  t[s]:   7974.74
	FillingsUpdate:  mu: +0.109333559  nElectrons: 374.000000  magneticMoment: [ Abs: 44.30178  Tot: +0.00000 ]
	SubspaceRotationAdjust: set factor to 3.86
ElecMinimize: Iter: 101  F: -2439.283988906066497  |grad|_K:  2.138e-07  alpha:  1.911e-01  linmin:  6.253e-07  t[s]:   8051.27
	FillingsUpdate:  mu: +0.109424091  nElectrons: 374.000000  magneticMoment: [ Abs: 44.30157  Tot: +0.00000 ]
	SubspaceRotationAdjust: set factor to 3
ElecMinimize: Iter: 102  F: -2439.283989978283898  |grad|_K:  2.924e-07  alpha:  1.414e-01  linmin: -1.682e-07  t[s]:   8123.61
	FillingsUpdate:  mu: +0.109347982  nElectrons: 374.000000  magneticMoment: [ Abs: 44.30158  Tot: +0.00000 ]
	SubspaceRotationAdjust: set factor to 2.45
ElecMinimize: Iter: 103  F: -2439.283990687364167  |grad|_K:  2.217e-07  alpha:  4.995e-02  linmin:  8.542e-08  t[s]:   8197.68
ElecMinimize: 	Predicted alpha/alphaT>3.000000, increasing alphaT to 1.498574e-01.
	FillingsUpdate:  mu: +0.109347094  nElectrons: 374.000000  magneticMoment: [ Abs: 44.30138  Tot: +0.00000 ]
	SubspaceRotationAdjust: set factor to 3.39
ElecMinimize: Iter: 104  F: -2439.283991993235759  |grad|_K:  2.022e-07  alpha:  1.600e-01  linmin: -1.228e-07  t[s]:   8301.58
	FillingsUpdate:  mu: +0.109416736  nElectrons: 374.000000  magneticMoment: [ Abs: 44.30096  Tot: +0.00000 ]
	SubspaceRotationAdjust: set factor to 2.67
ElecMinimize: Iter: 105  F: -2439.283992857465364  |grad|_K:  2.801e-07  alpha:  1.273e-01  linmin:  1.741e-07  t[s]:   8377.15
	FillingsUpdate:  mu: +0.109334987  nElectrons: 374.000000  magneticMoment: [ Abs: 44.30061  Tot: +0.00000 ]
	SubspaceRotationAdjust: set factor to 2.37
ElecMinimize: Iter: 106  F: -2439.283993666368588  |grad|_K:  1.985e-07  alpha:  6.213e-02  linmin: -9.829e-08  t[s]:   8454.21
	FillingsUpdate:  mu: +0.109340518  nElectrons: 374.000000  magneticMoment: [ Abs: 44.30006  Tot: +0.00000 ]
	SubspaceRotationAdjust: set factor to 3.04
ElecMinimize: Iter: 107  F: -2439.283994843542132  |grad|_K:  1.926e-07  alpha:  1.798e-01  linmin: -1.523e-06  t[s]:   8528.27
	FillingsUpdate:  mu: +0.109414971  nElectrons: 374.000000  magneticMoment: [ Abs: 44.29984  Tot: +0.00000 ]
	SubspaceRotationAdjust: set factor to 2.63
ElecMinimize: Iter: 108  F: -2439.283995591991243  |grad|_K:  2.455e-07  alpha:  1.214e-01  linmin: -2.839e-07  t[s]:   8601.43
	FillingsUpdate:  mu: +0.109344915  nElectrons: 374.000000  magneticMoment: [ Abs: 44.29983  Tot: +0.00000 ]
	SubspaceRotationAdjust: set factor to 2.36
ElecMinimize: Iter: 109  F: -2439.283996332141214  |grad|_K:  1.831e-07  alpha:  7.393e-02  linmin: -9.431e-08  t[s]:   8674.58
	FillingsUpdate:  mu: +0.109360155  nElectrons: 374.000000  magneticMoment: [ Abs: 44.29974  Tot: +0.00000 ]
	SubspaceRotationAdjust: set factor to 2.94
ElecMinimize: Iter: 110  F: -2439.283997332166564  |grad|_K:  1.713e-07  alpha:  1.800e-01  linmin:  3.753e-06  t[s]:   8751.82
	FillingsUpdate:  mu: +0.109404283  nElectrons: 374.000000  magneticMoment: [ Abs: 44.29942  Tot: +0.00000 ]
	SubspaceRotationAdjust: set factor to 2.83
ElecMinimize: Iter: 111  F: -2439.283998132797933  |grad|_K:  2.103e-07  alpha:  1.649e-01  linmin:  1.884e-07  t[s]:   8824.21
	FillingsUpdate:  mu: +0.109325371  nElectrons: 374.000000  magneticMoment: [ Abs: 44.29922  Tot: +0.00000 ]
	SubspaceRotationAdjust: set factor to 2.35
ElecMinimize: Iter: 112  F: -2439.283998634736690  |grad|_K:  1.829e-07  alpha:  6.830e-02  linmin:  4.459e-08  t[s]:   8898.34
	FillingsUpdate:  mu: +0.109341495  nElectrons: 374.000000  magneticMoment: [ Abs: 44.29880  Tot: +0.00000 ]
	SubspaceRotationAdjust: set factor to 2.83
ElecMinimize: Iter: 113  F: -2439.283999424879767  |grad|_K:  1.531e-07  alpha:  1.420e-01  linmin: -2.891e-06  t[s]:   8971.29
	FillingsUpdate:  mu: +0.109376354  nElectrons: 374.000000  magneticMoment: [ Abs: 44.29869  Tot: +0.00000 ]
	SubspaceRotationAdjust: set factor to 3.25
ElecMinimize: Iter: 114  F: -2439.284000147856204  |grad|_K:  1.658e-07  alpha:  1.854e-01  linmin: -1.503e-06  t[s]:   9045.36
	FillingsUpdate:  mu: +0.109315216  nElectrons: 374.000000  magneticMoment: [ Abs: 44.29882  Tot: +0.00000 ]
	SubspaceRotationAdjust: set factor to 2.84
ElecMinimize: Iter: 115  F: -2439.284000552040197  |grad|_K:  1.910e-07  alpha:  8.843e-02  linmin:  2.374e-07  t[s]:   9118.52
ElecMinimize: Converged (|Delta F|<1.000000e-06 for 5 iters).
Setting wave functions to eigenvectors of Hamiltonian

# Ionic positions in lattice coordinates:
ion Co   0.000000000000000   0.000000000000000   0.150000000000000 1
ion Co   0.500000000000000   0.000000000000000   0.150000000000000 1
ion Co   0.000000000000000   0.500000000000000   0.150000000000000 1
ion Co   0.500000000000000   0.500000000000000   0.150000000000000 1
ion Co   0.250000000000000   0.250000000000000   0.050000000000000 1
ion Co   0.250000000000000   0.750000000000000   0.050000000000000 1
ion Co  -0.250000000000000   0.250000000000000   0.050000000000000 1
ion Co  -0.250000000000000   0.750000000000000   0.050000000000000 1
ion Co   0.000000000000000   0.000000000000000  -0.050000000000000 0
ion Co   0.500000000000000   0.000000000000000  -0.050000000000000 0
ion Co   0.000000000000000   0.500000000000000  -0.050000000000000 0
ion Co   0.500000000000000   0.500000000000000  -0.050000000000000 0
ion Co   0.250000000000000   0.250000000000000  -0.150000000000000 0
ion Co   0.250000000000000   0.750000000000000  -0.150000000000000 0
ion Co  -0.250000000000000   0.250000000000000  -0.150000000000000 0
ion Co  -0.250000000000000   0.750000000000000  -0.150000000000000 0
ion O   0.250000000000000   0.250000000000000   0.150000000000000 1
ion O   0.250000000000000   0.750000000000000   0.150000000000000 1
ion O  -0.250000000000000   0.250000000000000   0.150000000000000 1
ion O  -0.250000000000000   0.750000000000000   0.150000000000000 1
ion O   0.000000000000000   0.000000000000000   0.050000000000000 1
ion O   0.500000000000000   0.000000000000000   0.050000000000000 1
ion O   0.000000000000000   0.500000000000000   0.050000000000000 1
ion O   0.500000000000000   0.500000000000000   0.050000000000000 1
ion O   0.250000000000000   0.250000000000000  -0.050000000000000 0
ion O   0.250000000000000   0.750000000000000  -0.050000000000000 0
ion O  -0.250000000000000   0.250000000000000  -0.050000000000000 0
ion O  -0.250000000000000   0.750000000000000  -0.050000000000000 0
ion O   0.000000000000000   0.000000000000000  -0.150000000000000 0
ion O   0.500000000000000   0.000000000000000  -0.150000000000000 0
ion O   0.000000000000000   0.500000000000000  -0.150000000000000 0
ion O   0.500000000000000   0.500000000000000  -0.150000000000000 0
ion O   0.000000000000000   0.000000000000000   0.230000000000000 1

# Forces in Lattice coordinates:
force Co   0.026153978441058   0.000029925746746   2.544321419583185 1
force Co  -0.014156331488154   0.000003437549690   0.469954058218121 1
force Co  -0.027847151046486   0.000132583334560   0.480324748794439 1
force Co  -0.020095599779980   0.000321462120336   0.385735287445607 1
force Co   0.036367372674312   0.037107922723603   0.154805127198431 1
force Co   0.036343651319315  -0.037113375546732   0.154874095545680 1
force Co  -0.024844426276464   0.028256421074898   0.132838563628653 1
force Co  -0.024860439195979  -0.028292083976116   0.132966606005420 1
force Co  -0.013573568689966  -0.000000990845002  -0.258360293790882 0
force Co  -0.002987388654765   0.000005361147118  -0.081121199074993 0
force Co  -0.002648047343225   0.000011159752664  -0.077497402323743 0
force Co  -0.003585646012072   0.000014217983576  -0.072292128168015 0
force Co   0.028699933074174   0.001207403571986  -0.305659975511013 0
force Co   0.028685930137736  -0.001365683217413  -0.305719841516424 0
force Co   0.027225872544182   0.000462020648761  -0.303847831390915 0
force Co   0.027226947428866  -0.000577034884661  -0.303742601624761 0
force O   0.026071051574266   0.014147338832441  -0.205114434844628 1
force O   0.026259206871834  -0.014259686229239  -0.204274131309852 1
force O  -0.033139713131486   0.028027469459328  -0.207538491172500 1
force O  -0.033195958855742  -0.028126317590824  -0.207025913984276 1
force O  -0.012060028663169  -0.000236128864832   0.917770829167495 1
force O   0.003331257920287   0.000023955877138  -0.062054529204933 1
force O   0.013196094268240  -0.000076372662887  -0.088813470816031 1
force O   0.008230020116141   0.000093354960990  -0.046265508217033 1
force O  -0.020394971018728  -0.008323731204998   0.024818582356207 0
force O  -0.020490914834344   0.008637616148707   0.023988118505077 0
force O  -0.003526534889580  -0.009363449417087   0.018065689939847 0
force O  -0.003617285697411   0.009280925854979   0.018064562945350 0
force O  -0.003276630548759   0.000007404636977  -0.335483471605512 0
force O  -0.005406379726317  -0.000035754469674  -0.353964630133834 0
force O  -0.005084684237956  -0.000025055133643  -0.354008627420928 0
force O  -0.005419102162321  -0.000037217841373  -0.350870611388124 0
force O  -0.008018876222772   0.000027972790214  -1.244602313281305 1

# Energy components:
   Eewald =     6601.2088265333986783
       EH =     8804.5751151732692961
     Eloc =   -17935.7580007139476947
      Enl =     -753.6249265185144850
   Epulay =        0.0001959371989449
      Exc =     -282.3035846993840892
       KE =     1126.1535769363781583
        U =        0.4647986165406757
-------------------------------------
     Etot =    -2439.2839987350603224
       TS =        0.0000018169800108
-------------------------------------
        F =    -2439.2840005520401974

IonicMinimize: Iter:   0  F: -2439.284000552040197  |grad|_K:  1.102e-02  t[s]:   9127.38

#--- Lowdin population analysis ---
# oxidation-state Co +1.291 +1.261 +1.254 +1.241 +1.190 +1.190 +1.190 +1.190 +1.198 +1.191 +1.191 +1.193 +1.227 +1.227 +1.227 +1.227
# magnetic-moments Co +2.026 -2.685 +2.669 -2.648 +2.627 +2.627 -2.627 -2.627 -2.634 +2.628 -2.629 +2.628 -2.663 -2.663 +2.663 +2.663
# oxidation-state O -1.035 -1.035 -1.038 -1.038 -1.052 -1.083 -1.082 -1.075 -1.081 -1.081 -1.081 -1.081 -1.087 -1.088 -1.088 -1.088 -0.421
# magnetic-moments O +0.044 +0.044 -0.070 -0.070 -0.017 -0.017 +0.015 -0.020 -0.023 -0.023 +0.018 +0.018 -0.053 +0.049 -0.050 +0.048 +0.758


-------- Electronic minimization -----------
	FillingsUpdate:  mu: +0.153090688  nElectrons: 374.000000  magneticMoment: [ Abs: 44.29862  Tot: +0.00000 ]
ElecMinimize: Iter:   0  F: -2438.607704641352484  |grad|_K:  1.619e-04  alpha:  1.000e+00
	FillingsUpdate:  mu: +0.112977794  nElectrons: 374.000000  magneticMoment: [ Abs: 44.30827  Tot: +0.00000 ]
	SubspaceRotationAdjust: set factor to 2.73
ElecMinimize: Iter:   1  F: -2438.991751746966202  |grad|_K:  1.034e-04  alpha:  6.696e-02  linmin: -5.225e-03  t[s]:   9221.42
	FillingsUpdate:  mu: +0.111821406  nElectrons: 374.000000  magneticMoment: [ Abs: 44.28084  Tot: -0.00000 ]
	SubspaceRotationAdjust: set factor to 2.62
ElecMinimize: Iter:   2  F: -2439.264194899653376  |grad|_K:  2.567e-05  alpha:  1.042e-01  linmin: -1.393e-03  t[s]:   9295.54
	FillingsUpdate:  mu: +0.113464576  nElectrons: 374.000000  magneticMoment: [ Abs: 44.27031  Tot: +0.00000 ]
	SubspaceRotationAdjust: set factor to 1.91
ElecMinimize: Iter:   3  F: -2439.275039239709258  |grad|_K:  2.200e-05  alpha:  9.503e-02  linmin: -3.468e-04  t[s]:   9368.95
	FillingsUpdate:  mu: +0.105073681  nElectrons: 374.000000  magneticMoment: [ Abs: 44.27363  Tot: +0.00000 ]
	SubspaceRotationAdjust: set factor to 1.17
ElecMinimize: Iter:   4  F: -2439.283014142639786  |grad|_K:  1.288e-05  alpha:  9.480e-02  linmin:  1.555e-04  t[s]:   9442.33
	FillingsUpdate:  mu: +0.113826561  nElectrons: 374.000000  magneticMoment: [ Abs: 44.26362  Tot: +0.00000 ]
	SubspaceRotationAdjust: set factor to 0.74
ElecMinimize: Iter:   5  F: -2439.286585424159057  |grad|_K:  5.997e-06  alpha:  1.327e-01  linmin:  4.223e-04  t[s]:   9516.80
	FillingsUpdate:  mu: +0.112291703  nElectrons: 374.000000  magneticMoment: [ Abs: 44.26073  Tot: +0.00000 ]
	SubspaceRotationAdjust: set factor to 0.814
ElecMinimize: Iter:   6  F: -2439.287900411311512  |grad|_K:  3.449e-06  alpha:  2.269e-01  linmin:  3.428e-06  t[s]:   9593.04
	FillingsUpdate:  mu: +0.110886702  nElectrons: 374.000000  magneticMoment: [ Abs: 44.25978  Tot: +0.00000 ]
	SubspaceRotationAdjust: set factor to 0.869
ElecMinimize: Iter:   7  F: -2439.288461186474706  |grad|_K:  2.163e-06  alpha:  2.836e-01  linmin: -5.748e-05  t[s]:   9663.94
	FillingsUpdate:  mu: +0.111054199  nElectrons: 374.000000  magneticMoment: [ Abs: 44.26061  Tot: +0.00000 ]
	SubspaceRotationAdjust: set factor to 0.969
ElecMinimize: Iter:   8  F: -2439.288704122955551  |grad|_K:  1.578e-06  alpha:  3.114e-01  linmin: -5.506e-06  t[s]:   9737.98
	FillingsUpdate:  mu: +0.111287011  nElectrons: 374.000000  magneticMoment: [ Abs: 44.26170  Tot: +0.00000 ]
	SubspaceRotationAdjust: set factor to 0.983
ElecMinimize: Iter:   9  F: -2439.288820837056846  |grad|_K:  1.056e-06  alpha:  2.821e-01  linmin:  3.016e-06  t[s]:   9814.42
	FillingsUpdate:  mu: +0.111737673  nElectrons: 374.000000  magneticMoment: [ Abs: 44.26205  Tot: -0.00000 ]
	SubspaceRotationAdjust: set factor to 0.881
ElecMinimize: Iter:  10  F: -2439.288869134144988  |grad|_K:  8.013e-07  alpha:  2.610e-01  linmin: -6.030e-06  t[s]:   9886.94
	FillingsUpdate:  mu: +0.111210668  nElectrons: 374.000000  magneticMoment: [ Abs: 44.26263  Tot: +0.00000 ]
	SubspaceRotationAdjust: set factor to 0.69
ElecMinimize: Iter:  11  F: -2439.288890931092737  |grad|_K:  5.379e-07  alpha:  2.044e-01  linmin: -5.936e-07  t[s]:   9959.47
	FillingsUpdate:  mu: +0.111339401  nElectrons: 374.000000  magneticMoment: [ Abs: 44.26274  Tot: +0.00000 ]
	SubspaceRotationAdjust: set factor to 0.699
ElecMinimize: Iter:  12  F: -2439.288902886310552  |grad|_K:  3.454e-07  alpha:  2.488e-01  linmin: -1.250e-06  t[s]:  10032.77
	FillingsUpdate:  mu: +0.111392259  nElectrons: 374.000000  magneticMoment: [ Abs: 44.26287  Tot: +0.00000 ]
	SubspaceRotationAdjust: set factor to 0.77
ElecMinimize: Iter:  13  F: -2439.288908740406441  |grad|_K:  2.466e-07  alpha:  2.956e-01  linmin: -1.041e-06  t[s]:  10105.24
	FillingsUpdate:  mu: +0.111323892  nElectrons: 374.000000  magneticMoment: [ Abs: 44.26302  Tot: +0.00000 ]
	SubspaceRotationAdjust: set factor to 0.747
ElecMinimize: Iter:  14  F: -2439.288911491925319  |grad|_K:  1.875e-07  alpha:  2.725e-01  linmin:  4.253e-07  t[s]:  10178.81
	FillingsUpdate:  mu: +0.111424190  nElectrons: 374.000000  magneticMoment: [ Abs: 44.26304  Tot: +0.00000 ]
	SubspaceRotationAdjust: set factor to 0.751
ElecMinimize: Iter:  15  F: -2439.288913054820114  |grad|_K:  1.401e-07  alpha:  2.679e-01  linmin: -5.934e-07  t[s]:  10249.93
	FillingsUpdate:  mu: +0.111396283  nElectrons: 374.000000  magneticMoment: [ Abs: 44.26307  Tot: +0.00000 ]
	SubspaceRotationAdjust: set factor to 0.886
ElecMinimize: Iter:  16  F: -2439.288914036728329  |grad|_K:  1.078e-07  alpha:  3.012e-01  linmin: -2.746e-08  t[s]:  10322.60
	FillingsUpdate:  mu: +0.111359626  nElectrons: 374.000000  magneticMoment: [ Abs: 44.26305  Tot: +0.00000 ]
	SubspaceRotationAdjust: set factor to 1.03
ElecMinimize: Iter:  17  F: -2439.288914730508168  |grad|_K:  9.735e-08  alpha:  3.594e-01  linmin:  6.989e-06  t[s]:  10394.95
	FillingsUpdate:  mu: +0.111412103  nElectrons: 374.000000  magneticMoment: [ Abs: 44.26294  Tot: +0.00000 ]
	SubspaceRotationAdjust: set factor to 1.03
ElecMinimize: Iter:  18  F: -2439.288915181092761  |grad|_K:  9.744e-08  alpha:  2.865e-01  linmin:  2.469e-07  t[s]:  10468.19
	FillingsUpdate:  mu: +0.111364852  nElectrons: 374.000000  magneticMoment: [ Abs: 44.26287  Tot: +0.00000 ]
	SubspaceRotationAdjust: set factor to 1.01
ElecMinimize: Iter:  19  F: -2439.288915617573821  |grad|_K:  9.202e-08  alpha:  2.769e-01  linmin: -3.428e-06  t[s]:  10538.54
	FillingsUpdate:  mu: +0.111393779  nElectrons: 374.000000  magneticMoment: [ Abs: 44.26269  Tot: +0.00000 ]
	SubspaceRotationAdjust: set factor to 1.13
ElecMinimize: Iter:  20  F: -2439.288916140212223  |grad|_K:  9.462e-08  alpha:  3.715e-01  linmin:  7.962e-07  t[s]:  10612.11
ElecMinimize: Converged (|Delta F|<1.000000e-06 for 5 iters).
Setting wave functions to eigenvectors of Hamiltonian

# Ionic positions in lattice coordinates:
ion Co   0.000203818092873   0.000000233211503   0.151586232826684 1
ion Co   0.499889679633541   0.000000026788843   0.150292988357698 1
ion Co  -0.000217012995978   0.500001033222630   0.150299453865436 1
ion Co   0.499843394884204   0.500002505156011   0.150240482971470 1
ion Co   0.250283411128367   0.250289182238834   0.050096511774264 1
ion Co   0.250283226267722   0.749710775267287   0.050096554771919 1
ion Co  -0.250193612745900   0.250220202439483   0.050082816930540 1
ion Co  -0.250193737534667   0.749779519639339   0.050082896757334 1
ion Co   0.000000000000000   0.000000000000000  -0.050000000000000 0
ion Co   0.500000000000000   0.000000000000000  -0.050000000000000 0
ion Co   0.000000000000000   0.500000000000000  -0.050000000000000 0
ion Co   0.500000000000000   0.500000000000000  -0.050000000000000 0
ion Co   0.250000000000000   0.250000000000000  -0.150000000000000 0
ion Co   0.250000000000000   0.750000000000000  -0.150000000000000 0
ion Co  -0.250000000000000   0.250000000000000  -0.150000000000000 0
ion Co  -0.250000000000000   0.750000000000000  -0.150000000000000 0
ion O   0.250203171843360   0.250110250286646   0.149872123369605 1
ion O   0.250204638138593   0.749888874189494   0.149872647248798 1
ion O  -0.250258257960411   0.250218418218327   0.149870612114898 1
ion O  -0.250258696283638   0.749780811457660   0.149870931676238 1
ion O  -0.000093983867413  -0.000001840153498   0.050572175435617 1
ion O   0.500025960510662   0.000000186688278   0.049961312697951 1
ion O   0.000102837232706   0.499999404827433   0.049944630092025 1
ion O   0.500064136590468   0.500000727515707   0.049971156211903 1
ion O   0.250000000000000   0.250000000000000  -0.050000000000000 0
ion O   0.250000000000000   0.750000000000000  -0.050000000000000 0
ion O  -0.250000000000000   0.250000000000000  -0.050000000000000 0
ion O  -0.250000000000000   0.750000000000000  -0.050000000000000 0
ion O   0.000000000000000   0.000000000000000  -0.150000000000000 0
ion O   0.500000000000000   0.000000000000000  -0.150000000000000 0
ion O   0.000000000000000   0.500000000000000  -0.150000000000000 0
ion O   0.500000000000000   0.500000000000000  -0.150000000000000 0
ion O  -0.000062491144986   0.000000217992103   0.229224064605086 1

# Forces in Lattice coordinates:
force Co   0.021034349289359  -0.000005535934995   1.449885779076625 1
force Co  -0.010454487396669   0.000023358878274   0.386686193247255 1
force Co  -0.026357175433325   0.000068969348867   0.392627518945369 1
force Co  -0.018833009042667   0.000146141674849   0.351554181511789 1
force Co   0.022161072611636   0.021749477013294   0.136071725426624 1
force Co   0.022158186872766  -0.021772577736558   0.136035147909447 1
force Co  -0.011847106735212   0.014345290009437   0.121872860226189 1
force Co  -0.011857093935390  -0.014366222868726   0.121792456293444 1
force Co  -0.012979460117528  -0.000005786083422  -0.190216877240888 0
force Co  -0.002897003254502  -0.000010665013148  -0.072320582878382 0
force Co  -0.002669270479923   0.000023428773379  -0.070690944813414 0
force Co  -0.003388175660507   0.000021379500299  -0.079982480007563 0
force Co   0.029015724088324   0.000945528008677  -0.313481976488688 0
force Co   0.029014533154760  -0.001050619241731  -0.313443413544277 0
force Co   0.027476880330236   0.000398994323863  -0.311344509937998 0
force Co   0.027475513432353  -0.000453752320320  -0.311318545989715 0
force O   0.018308200920137   0.010671591320034  -0.134280657114054 1
force O   0.018343515119288  -0.010771743588369  -0.133718155132311 1
force O  -0.027564300875009   0.023331512582854  -0.141777164143313 1
force O  -0.027585947800530  -0.023338401839651  -0.141497860866224 1
force O  -0.010007239306968  -0.000108272739697   0.955644499951830 1
force O   0.002686170130732   0.000015982640852  -0.021092982188081 1
force O   0.012669641525482  -0.000022925971564  -0.040560240660689 1
force O   0.008820886588273   0.000058043217371  -0.008128071214264 1
force O  -0.020641150153317  -0.008478795980322   0.030923731079899 0
force O  -0.020689620360116   0.008667945246620   0.030476549629945 0
force O  -0.003348850436875  -0.009336455798169   0.022714345762292 0
force O  -0.003382045545733   0.009276087483134   0.022701511415467 0
force O  -0.003146198671705   0.000003677176975  -0.336614732990332 0
force O  -0.005483400751942  -0.000020528007100  -0.356925186761312 0
force O  -0.005183670881786  -0.000001390916590  -0.356788107968754 0
force O  -0.005350712761319  -0.000029040594976  -0.350952160897532 0
force O  -0.007388872248300  -0.000007005146003  -0.396353260162996 1

# Energy components:
   Eewald =     6590.7527374140236134
       EH =     8794.5611079505706584
     Eloc =   -17915.3105290977509867
      Enl =     -753.6265316376762939
   Epulay =        0.0001959371989449
      Exc =     -282.3141427280265248
       KE =     1126.1836879547756780
        U =        0.4645588077262451
-------------------------------------
     Etot =    -2439.2889153991573039
       TS =        0.0000007410551168
-------------------------------------
        F =    -2439.2889161402122227

IonicMinimize: Iter:   1  F: -2439.288916140212223  |grad|_K:  6.857e-03  alpha:  1.000e+00  linmin: -8.505e-01  t[s]:  10620.87

#--- Lowdin population analysis ---
# oxidation-state Co +1.305 +1.258 +1.252 +1.240 +1.191 +1.191 +1.191 +1.191 +1.197 +1.191 +1.191 +1.193 +1.227 +1.227 +1.227 +1.227
# magnetic-moments Co +2.002 -2.683 +2.669 -2.647 +2.627 +2.627 -2.628 -2.628 -2.635 +2.628 -2.629 +2.629 -2.663 -2.663 +2.663 +2.663
# oxidation-state O -1.036 -1.036 -1.040 -1.040 -1.056 -1.083 -1.082 -1.076 -1.081 -1.081 -1.081 -1.081 -1.087 -1.088 -1.088 -1.088 -0.424
# magnetic-moments O +0.047 +0.047 -0.063 -0.064 -0.020 -0.017 +0.016 -0.020 -0.023 -0.023 +0.019 +0.019 -0.053 +0.049 -0.050 +0.049 +0.759


-------- Electronic minimization -----------
	FillingsUpdate:  mu: +0.201802119  nElectrons: 374.000000  magneticMoment: [ Abs: 44.26271  Tot: +0.00000 ]
ElecMinimize: Iter:   0  F: -2437.169411140572265  |grad|_K:  2.690e-04  alpha:  1.000e+00
	FillingsUpdate:  mu: +0.101696111  nElectrons: 374.000000  magneticMoment: [ Abs: 44.28567  Tot: -0.00000 ]
	SubspaceRotationAdjust: set factor to 1.08
ElecMinimize: Iter:   1  F: -2438.926478541544839  |grad|_K:  9.397e-05  alpha:  1.216e-01  linmin: -1.187e-02  t[s]:  10717.37
	FillingsUpdate:  mu: +0.128256158  nElectrons: 374.000000  magneticMoment: [ Abs: 44.27545  Tot: +0.00000 ]
	SubspaceRotationAdjust: set factor to 1.04
ElecMinimize: Iter:   2  F: -2439.201208946213228  |grad|_K:  4.045e-05  alpha:  1.484e-01  linmin: -6.857e-04  t[s]:  10790.89
	FillingsUpdate:  mu: +0.112268373  nElectrons: 374.000000  magneticMoment: [ Abs: 44.22777  Tot: +0.00000 ]
	SubspaceRotationAdjust: set factor to 1.29
ElecMinimize: Iter:   3  F: -2439.248995309554175  |grad|_K:  2.393e-05  alpha:  1.657e-01  linmin: -2.270e-03  t[s]:  10865.66
	FillingsUpdate:  mu: +0.107969748  nElectrons: 374.000000  magneticMoment: [ Abs: 44.23799  Tot: +0.00000 ]
	SubspaceRotationAdjust: set factor to 1.38
ElecMinimize: Iter:   4  F: -2439.276780073080772  |grad|_K:  1.701e-05  alpha:  2.449e-01  linmin:  3.824e-04  t[s]:  10939.12
	FillingsUpdate:  mu: +0.121353618  nElectrons: 374.000000  magneticMoment: [ Abs: 44.23308  Tot: +0.00000 ]
	SubspaceRotationAdjust: set factor to 1.25
ElecMinimize: Iter:   5  F: -2439.286002683706101  |grad|_K:  1.177e-05  alpha:  2.035e-01  linmin: -1.254e-04  t[s]:  11013.01
	FillingsUpdate:  mu: +0.114432612  nElectrons: 374.000000  magneticMoment: [ Abs: 44.23186  Tot: +0.00000 ]
	SubspaceRotationAdjust: set factor to 1.05
ElecMinimize: Iter:   6  F: -2439.290470085394190  |grad|_K:  6.221e-06  alpha:  1.897e-01  linmin:  1.277e-04  t[s]:  11086.50
	FillingsUpdate:  mu: +0.114795509  nElectrons: 374.000000  magneticMoment: [ Abs: 44.22933  Tot: +0.00000 ]
	SubspaceRotationAdjust: set factor to 0.766
ElecMinimize: Iter:   7  F: -2439.291671553366541  |grad|_K:  3.723e-06  alpha:  1.899e-01  linmin: -3.018e-05  t[s]:  11159.89
	FillingsUpdate:  mu: +0.113602192  nElectrons: 374.000000  magneticMoment: [ Abs: 44.22902  Tot: +0.00000 ]
	SubspaceRotationAdjust: set factor to 0.874
ElecMinimize: Iter:   8  F: -2439.292236025280090  |grad|_K:  2.373e-06  alpha:  2.448e-01  linmin:  3.953e-06  t[s]:  11233.23
	FillingsUpdate:  mu: +0.114537628  nElectrons: 374.000000  magneticMoment: [ Abs: 44.22859  Tot: +0.00000 ]
	SubspaceRotationAdjust: set factor to 0.984
ElecMinimize: Iter:   9  F: -2439.292488403407788  |grad|_K:  1.696e-06  alpha:  2.701e-01  linmin:  8.510e-06  t[s]:  11305.85
	FillingsUpdate:  mu: +0.115286350  nElectrons: 374.000000  magneticMoment: [ Abs: 44.22881  Tot: +0.00000 ]
	SubspaceRotationAdjust: set factor to 1.09
ElecMinimize: Iter:  10  F: -2439.292652590519083  |grad|_K:  1.405e-06  alpha:  3.438e-01  linmin: -9.793e-06  t[s]:  11379.92
	FillingsUpdate:  mu: +0.114287484  nElectrons: 374.000000  magneticMoment: [ Abs: 44.22948  Tot: +0.00000 ]
	SubspaceRotationAdjust: set factor to 0.975
ElecMinimize: Iter:  11  F: -2439.292731635875953  |grad|_K:  1.031e-06  alpha:  2.409e-01  linmin:  1.214e-06  t[s]:  11453.63
	FillingsUpdate:  mu: +0.114537888  nElectrons: 374.000000  magneticMoment: [ Abs: 44.22904  Tot: +0.00000 ]
	SubspaceRotationAdjust: set factor to 0.852
ElecMinimize: Iter:  12  F: -2439.292771915127105  |grad|_K:  6.533e-07  alpha:  2.281e-01  linmin: -5.946e-06  t[s]:  11524.98
	FillingsUpdate:  mu: +0.114517449  nElectrons: 374.000000  magneticMoment: [ Abs: 44.22891  Tot: +0.00000 ]
	SubspaceRotationAdjust: set factor to 0.888
ElecMinimize: Iter:  13  F: -2439.292789428031483  |grad|_K:  4.194e-07  alpha:  2.470e-01  linmin: -1.252e-07  t[s]:  11597.76
	FillingsUpdate:  mu: +0.114576433  nElectrons: 374.000000  magneticMoment: [ Abs: 44.22906  Tot: +0.00000 ]
	SubspaceRotationAdjust: set factor to 1.08
ElecMinimize: Iter:  14  F: -2439.292797794235412  |grad|_K:  3.031e-07  alpha:  2.865e-01  linmin:  1.188e-06  t[s]:  11672.66
	FillingsUpdate:  mu: +0.114652141  nElectrons: 374.000000  magneticMoment: [ Abs: 44.22930  Tot: +0.00000 ]
	SubspaceRotationAdjust: set factor to 1.13
ElecMinimize: Iter:  15  F: -2439.292802391632904  |grad|_K:  2.631e-07  alpha:  3.015e-01  linmin: -6.834e-07  t[s]:  11748.51
	FillingsUpdate:  mu: +0.114486482  nElectrons: 374.000000  magneticMoment: [ Abs: 44.22955  Tot: +0.00000 ]
	SubspaceRotationAdjust: set factor to 1.11
ElecMinimize: Iter:  16  F: -2439.292805460153886  |grad|_K:  2.290e-07  alpha:  2.669e-01  linmin:  5.172e-07  t[s]:  11820.00
	FillingsUpdate:  mu: +0.114600375  nElectrons: 374.000000  magneticMoment: [ Abs: 44.22949  Tot: +0.00000 ]
	SubspaceRotationAdjust: set factor to 1.12
ElecMinimize: Iter:  17  F: -2439.292807861997517  |grad|_K:  1.817e-07  alpha:  2.760e-01  linmin: -1.748e-06  t[s]:  11893.62
	FillingsUpdate:  mu: +0.114551139  nElectrons: 374.000000  magneticMoment: [ Abs: 44.22944  Tot: +0.00000 ]
	SubspaceRotationAdjust: set factor to 1.37
ElecMinimize: Iter:  18  F: -2439.292809546948774  |grad|_K:  1.559e-07  alpha:  3.074e-01  linmin:  1.846e-06  t[s]:  11968.10
	FillingsUpdate:  mu: +0.114527033  nElectrons: 374.000000  magneticMoment: [ Abs: 44.22931  Tot: +0.00000 ]
	SubspaceRotationAdjust: set factor to 1.67
ElecMinimize: Iter:  19  F: -2439.292811090400392  |grad|_K:  1.558e-07  alpha:  3.826e-01  linmin:  1.455e-06  t[s]:  12041.48
	FillingsUpdate:  mu: +0.114540377  nElectrons: 374.000000  magneticMoment: [ Abs: 44.22903  Tot: +0.00000 ]
	SubspaceRotationAdjust: set factor to 1.89
ElecMinimize: Iter:  20  F: -2439.292812746688014  |grad|_K:  1.737e-07  alpha:  4.110e-01  linmin: -2.615e-07  t[s]:  12116.69
	FillingsUpdate:  mu: +0.114469842  nElectrons: 374.000000  magneticMoment: [ Abs: 44.22870  Tot: +0.00000 ]
	SubspaceRotationAdjust: set factor to 2.08
ElecMinimize: Iter:  21  F: -2439.292814679231469  |grad|_K:  1.928e-07  alpha:  3.856e-01  linmin:  8.174e-07  t[s]:  12190.85
	FillingsUpdate:  mu: +0.114586727  nElectrons: 374.000000  magneticMoment: [ Abs: 44.22828  Tot: +0.00000 ]
	SubspaceRotationAdjust: set factor to 1.65
ElecMinimize: Iter:  22  F: -2439.292816322972158  |grad|_K:  2.691e-07  alpha:  2.665e-01  linmin:  1.183e-07  t[s]:  12266.62
	FillingsUpdate:  mu: +0.114446573  nElectrons: 374.000000  magneticMoment: [ Abs: 44.22796  Tot: +0.00000 ]
	SubspaceRotationAdjust: set factor to 1.37
ElecMinimize: Iter:  23  F: -2439.292818086639727  |grad|_K:  2.200e-07  alpha:  1.466e-01  linmin: -2.395e-07  t[s]:  12338.74
	FillingsUpdate:  mu: +0.114478748  nElectrons: 374.000000  magneticMoment: [ Abs: 44.22740  Tot: +0.00000 ]
	SubspaceRotationAdjust: set factor to 1.59
ElecMinimize: Iter:  24  F: -2439.292820667367323  |grad|_K:  2.004e-07  alpha:  3.214e-01  linmin:  3.966e-06  t[s]:  12411.85
	FillingsUpdate:  mu: +0.114511256  nElectrons: 374.000000  magneticMoment: [ Abs: 44.22709  Tot: +0.00000 ]
	SubspaceRotationAdjust: set factor to 1.58
ElecMinimize: Iter:  25  F: -2439.292822624937344  |grad|_K:  2.063e-07  alpha:  2.938e-01  linmin:  6.319e-08  t[s]:  12484.43
	FillingsUpdate:  mu: +0.114375177  nElectrons: 374.000000  magneticMoment: [ Abs: 44.22703  Tot: +0.00000 ]
	SubspaceRotationAdjust: set factor to 1.29
ElecMinimize: Iter:  26  F: -2439.292823808700177  |grad|_K:  1.909e-07  alpha:  1.675e-01  linmin: -4.989e-08  t[s]:  12557.06
	FillingsUpdate:  mu: +0.114462062  nElectrons: 374.000000  magneticMoment: [ Abs: 44.22679  Tot: +0.00000 ]
	SubspaceRotationAdjust: set factor to 1.42
ElecMinimize: Iter:  27  F: -2439.292825250611259  |grad|_K:  1.459e-07  alpha:  2.383e-01  linmin: -5.514e-09  t[s]:  12629.53
	FillingsUpdate:  mu: +0.114470873  nElectrons: 374.000000  magneticMoment: [ Abs: 44.22660  Tot: +0.00000 ]
	SubspaceRotationAdjust: set factor to 1.62
ElecMinimize: Iter:  28  F: -2439.292826380514271  |grad|_K:  1.331e-07  alpha:  3.197e-01  linmin: -2.185e-07  t[s]:  12703.00
	FillingsUpdate:  mu: +0.114371639  nElectrons: 374.000000  magneticMoment: [ Abs: 44.22653  Tot: +0.00000 ]
	SubspaceRotationAdjust: set factor to 1.41
ElecMinimize: Iter:  29  F: -2439.292826972410239  |grad|_K:  1.277e-07  alpha:  2.013e-01  linmin:  2.664e-08  t[s]:  12774.56
	FillingsUpdate:  mu: +0.114430743  nElectrons: 374.000000  magneticMoment: [ Abs: 44.22640  Tot: +0.00000 ]
[...]
   Epulay =        0.0001959371989449
      Exc =     -282.0831700640419513
       KE =     1125.3347928853484063
        U =        0.4532249409607305
-------------------------------------
     Etot =    -2439.3123336705507427
       TS =        0.0000005800123657
-------------------------------------
        F =    -2439.3123342505632536

IonicMinimize: Iter:  13  F: -2439.312334250563254  |grad|_K:  7.587e-04  alpha:  1.000e+00  linmin:  4.712e-02  t[s]:  37587.37

#--- Lowdin population analysis ---
# oxidation-state Co +1.330 +1.257 +1.252 +1.240 +1.202 +1.202 +1.203 +1.203 +1.184 +1.196 +1.197 +1.204 +1.227 +1.227 +1.227 +1.227
# magnetic-moments Co +2.065 -2.693 +2.677 -2.660 +2.646 +2.646 -2.649 -2.649 -2.637 +2.639 -2.641 +2.641 -2.664 -2.664 +2.663 +2.663
# oxidation-state O -1.039 -1.039 -1.044 -1.044 -1.035 -1.087 -1.086 -1.081 -1.082 -1.082 -1.083 -1.083 -1.086 -1.088 -1.089 -1.088 -0.474
# magnetic-moments O +0.035 +0.035 -0.061 -0.061 -0.039 -0.008 +0.012 -0.010 -0.038 -0.038 +0.025 +0.025 -0.065 +0.051 -0.053 +0.049 +0.758


-------- Electronic minimization -----------
	FillingsUpdate:  mu: +0.109944982  nElectrons: 374.000000  magneticMoment: [ Abs: 44.44067  Tot: +0.00000 ]
ElecMinimize: Iter:   0  F: -2439.311851037860379  |grad|_K:  3.900e-06  alpha:  1.000e+00
	FillingsUpdate:  mu: +0.110170869  nElectrons: 374.000000  magneticMoment: [ Abs: 44.44137  Tot: +0.00000 ]
	SubspaceRotationAdjust: set factor to 1.06
ElecMinimize: Iter:   1  F: -2439.312342363882181  |grad|_K:  1.152e-06  alpha:  1.944e-01  linmin: -6.588e-05  t[s]:  37707.73
	FillingsUpdate:  mu: +0.110348387  nElectrons: 374.000000  magneticMoment: [ Abs: 44.44180  Tot: +0.00000 ]
	SubspaceRotationAdjust: set factor to 1.18
ElecMinimize: Iter:   2  F: -2439.312394662781571  |grad|_K:  5.497e-07  alpha:  2.371e-01  linmin:  1.304e-06  t[s]:  37782.22
	FillingsUpdate:  mu: +0.110102234  nElectrons: 374.000000  magneticMoment: [ Abs: 44.44282  Tot: +0.00000 ]
	SubspaceRotationAdjust: set factor to 1.12
ElecMinimize: Iter:   3  F: -2439.312413145087703  |grad|_K:  3.989e-07  alpha:  3.684e-01  linmin:  3.795e-06  t[s]:  37858.02
	FillingsUpdate:  mu: +0.110381352  nElectrons: 374.000000  magneticMoment: [ Abs: 44.44303  Tot: +0.00000 ]
	SubspaceRotationAdjust: set factor to 0.729
ElecMinimize: Iter:   4  F: -2439.312417403520158  |grad|_K:  2.880e-07  alpha:  1.610e-01  linmin: -1.674e-05  t[s]:  37933.71
	FillingsUpdate:  mu: +0.110261452  nElectrons: 374.000000  magneticMoment: [ Abs: 44.44381  Tot: +0.00000 ]
	SubspaceRotationAdjust: set factor to 0.688
ElecMinimize: Iter:   5  F: -2439.312421148369140  |grad|_K:  1.453e-07  alpha:  2.717e-01  linmin:  5.118e-06  t[s]:  38009.26
	FillingsUpdate:  mu: +0.110230743  nElectrons: 374.000000  magneticMoment: [ Abs: 44.44416  Tot: +0.00000 ]
	SubspaceRotationAdjust: set factor to 0.737
ElecMinimize: Iter:   6  F: -2439.312422452400369  |grad|_K:  1.008e-07  alpha:  3.721e-01  linmin: -2.449e-06  t[s]:  38084.96
	FillingsUpdate:  mu: +0.110286447  nElectrons: 374.000000  magneticMoment: [ Abs: 44.44431  Tot: +0.00000 ]
	SubspaceRotationAdjust: set factor to 0.666
ElecMinimize: Iter:   7  F: -2439.312422945803974  |grad|_K:  7.695e-08  alpha:  2.922e-01  linmin: -1.392e-06  t[s]:  38161.82
	FillingsUpdate:  mu: +0.110250599  nElectrons: 374.000000  magneticMoment: [ Abs: 44.44449  Tot: +0.00000 ]
	SubspaceRotationAdjust: set factor to 0.629
ElecMinimize: Iter:   8  F: -2439.312423254716123  |grad|_K:  5.348e-08  alpha:  3.141e-01  linmin: -2.031e-05  t[s]:  38236.73
	FillingsUpdate:  mu: +0.110262413  nElectrons: 374.000000  magneticMoment: [ Abs: 44.44456  Tot: +0.00000 ]
	SubspaceRotationAdjust: set factor to 0.71
ElecMinimize: Iter:   9  F: -2439.312423425864381  |grad|_K:  4.109e-08  alpha:  3.600e-01  linmin:  1.214e-05  t[s]:  38311.85
	FillingsUpdate:  mu: +0.110263989  nElectrons: 374.000000  magneticMoment: [ Abs: 44.44460  Tot: +0.00000 ]
	SubspaceRotationAdjust: set factor to 0.826
ElecMinimize: Iter:  10  F: -2439.312423513522390  |grad|_K:  2.977e-08  alpha:  3.130e-01  linmin: -5.504e-06  t[s]:  38385.30
	FillingsUpdate:  mu: +0.110253367  nElectrons: 374.000000  magneticMoment: [ Abs: 44.44462  Tot: +0.00000 ]
	SubspaceRotationAdjust: set factor to 0.901
ElecMinimize: Iter:  11  F: -2439.312423562883396  |grad|_K:  2.422e-08  alpha:  3.363e-01  linmin:  9.366e-05  t[s]:  38458.81
ElecMinimize: Converged (|Delta F|<1.000000e-06 for 5 iters).
Setting wave functions to eigenvectors of Hamiltonian

# Ionic positions in lattice coordinates:
ion Co  -0.004949262872251  -0.000000668028116   0.170019439404026 1
ion Co   0.493103852762022  -0.000008874559304   0.160036874002922 1
ion Co  -0.008560299236851   0.499992900082070   0.159853622571148 1
ion Co   0.491789061207914   0.499994638494022   0.162603337525031 1
ion Co   0.250361959910940   0.250810962303556   0.056674594530150 1
ion Co   0.250362096819324   0.749164181537937   0.056674814742894 1
ion Co  -0.249269653843669   0.248995024644327   0.056631353507579 1
ion Co  -0.249270718260898   0.750983690279884   0.056631128491232 1
ion Co   0.000000000000000   0.000000000000000  -0.050000000000000 0
ion Co   0.500000000000000   0.000000000000000  -0.050000000000000 0
ion Co   0.000000000000000   0.500000000000000  -0.050000000000000 0
ion Co   0.500000000000000   0.500000000000000  -0.050000000000000 0
ion Co   0.250000000000000   0.250000000000000  -0.150000000000000 0
ion Co   0.250000000000000   0.750000000000000  -0.150000000000000 0
ion Co  -0.250000000000000   0.250000000000000  -0.150000000000000 0
ion Co  -0.250000000000000   0.750000000000000  -0.150000000000000 0
ion O   0.244733934806142   0.252785142925716   0.158539408039502 1
ion O   0.244743806232317   0.747167367544408   0.158542776041933 1
ion O  -0.260084725048646   0.253694814308031   0.158286523120131 1
ion O  -0.260075616957059   0.746309036395699   0.158289102433388 1
ion O  -0.002095789968499  -0.000027014425037   0.071483865881690 1
ion O   0.497411547652251  -0.000011252691818   0.054387319434854 1
ion O   0.001685979997130   0.499978694993250   0.053581822083475 1
ion O   0.503210650720174   0.499989693641455   0.052833012774829 1
ion O   0.250000000000000   0.250000000000000  -0.050000000000000 0
ion O   0.250000000000000   0.750000000000000  -0.050000000000000 0
ion O  -0.250000000000000   0.250000000000000  -0.050000000000000 0
ion O  -0.250000000000000   0.750000000000000  -0.050000000000000 0
ion O   0.000000000000000   0.000000000000000  -0.150000000000000 0
ion O   0.500000000000000   0.000000000000000  -0.150000000000000 0
ion O   0.000000000000000   0.500000000000000  -0.150000000000000 0
ion O   0.500000000000000   0.500000000000000  -0.150000000000000 0
ion O  -0.008015599849748   0.000040392223890   0.247163976565367 1

# Forces in Lattice coordinates:
force Co  -0.010200003761108  -0.000017574708810  -0.034883793029513 1
force Co   0.004066648799090  -0.000008789088652   0.020746783912631 1
force Co  -0.008690538336480   0.000004636349282   0.027587063634941 1
force Co   0.003683029509479  -0.000020754765506   0.013133975193825 1
force Co  -0.002605265940990   0.001714613424646   0.004584107990063 1
force Co  -0.002613623422697  -0.001744659867339   0.004693138399135 1
force Co  -0.004769289462430  -0.000336307232187   0.014936239922834 1
force Co  -0.004770895622929   0.000302382178037   0.014988864156017 1
force Co  -0.022698132703826  -0.000010117328436   0.106236254928241 0
force Co  -0.007607506730840  -0.000014783118915   0.284068589879324 0
force Co  -0.004500562942094  -0.000022112535902   0.265671151113876 0
force Co  -0.002657095666983  -0.000017281751496   0.294078519179982 0
force Co   0.028709155800908   0.000101177259852  -0.294840738973220 0
force Co   0.028709281833452  -0.000103585666720  -0.294840807755430 0
force Co   0.028111479564191  -0.001849958945867  -0.290140530730210 0
force Co   0.028111602399250   0.001848698370700  -0.290144657476344 0
force O   0.000156353500115  -0.001460968624588   0.009651899233385 1
force O   0.000147905605572   0.001454471694565   0.009790428711029 1
force O  -0.002764821047427   0.001208108339284  -0.000263267815242 1
force O  -0.002735693164406  -0.001219304909096  -0.000165323572364 1
force O  -0.003689501308392  -0.000014035472981   0.035220465030967 1
force O  -0.008094480007054  -0.000045868642482  -0.019495624863400 1
force O  -0.001451697913795  -0.000022971998849  -0.015231692710739 1
force O  -0.007940175055522  -0.000008216695682  -0.001951120379458 1
force O  -0.052072505695551  -0.045381372775285   0.329474965290101 0
force O  -0.052078593454278   0.045364050416688   0.329481388903225 0
force O   0.035286062163102  -0.050406545646014   0.324352512238228 0
force O   0.035291226674060   0.050377446925436   0.324368231379643 0
force O   0.001335373305300   0.000000945803268  -0.348072045295340 0
force O  -0.003994871857366   0.000001528294804  -0.368445603928590 0
force O  -0.004232963502402   0.000004162287144  -0.365223921645334 0
force O  -0.003995807153606   0.000002023961496  -0.344463472654158 0
force O   0.000440538461119   0.000050633309247   0.007984975222612 1

# Energy components:
   Eewald =     6159.3801114980533384
       EH =     8362.8349323356378591
     Eloc =   -17051.8238950369268423
      Enl =     -753.3977335731977973
   Epulay =        0.0001959371989449
      Exc =     -282.0789080839993517
       KE =     1125.3198493551844876
        U =        0.4530247437611599
-------------------------------------
     Etot =    -2439.3124228242895697
       TS =        0.0000007385940298
-------------------------------------
        F =    -2439.3124235628833958

IonicMinimize: Iter:  14  F: -2439.312423562883396  |grad|_K:  3.617e-04  alpha:  1.000e+00  linmin: -4.349e-02  t[s]:  38467.73

#--- Lowdin population analysis ---
# oxidation-state Co +1.329 +1.257 +1.252 +1.240 +1.203 +1.203 +1.203 +1.203 +1.184 +1.197 +1.197 +1.204 +1.227 +1.227 +1.227 +1.227
# magnetic-moments Co +2.067 -2.693 +2.678 -2.660 +2.646 +2.646 -2.649 -2.649 -2.637 +2.639 -2.642 +2.641 -2.664 -2.664 +2.663 +2.663
# oxidation-state O -1.039 -1.039 -1.045 -1.045 -1.035 -1.087 -1.086 -1.081 -1.082 -1.082 -1.083 -1.083 -1.086 -1.088 -1.089 -1.088 -0.474
# magnetic-moments O +0.035 +0.035 -0.061 -0.061 -0.040 -0.008 +0.012 -0.011 -0.039 -0.039 +0.025 +0.025 -0.065 +0.051 -0.053 +0.049 +0.758


-------- Electronic minimization -----------
	FillingsUpdate:  mu: +0.110078227  nElectrons: 374.000000  magneticMoment: [ Abs: 44.44613  Tot: +0.00000 ]
ElecMinimize: Iter:   0  F: -2439.311626277603864  |grad|_K:  4.834e-06  alpha:  1.000e+00
	FillingsUpdate:  mu: +0.110023040  nElectrons: 374.000000  magneticMoment: [ Abs: 44.44653  Tot: +0.00000 ]
	SubspaceRotationAdjust: set factor to 0.944
ElecMinimize: Iter:   1  F: -2439.312360950464154  |grad|_K:  1.427e-06  alpha:  1.894e-01  linmin: -8.698e-07  t[s]:  38587.25
	FillingsUpdate:  mu: +0.110315460  nElectrons: 374.000000  magneticMoment: [ Abs: 44.44673  Tot: +0.00000 ]
	SubspaceRotationAdjust: set factor to 0.996
ElecMinimize: Iter:   2  F: -2439.312439434167118  |grad|_K:  6.371e-07  alpha:  2.321e-01  linmin:  2.437e-06  t[s]:  38661.00
	FillingsUpdate:  mu: +0.109950875  nElectrons: 374.000000  magneticMoment: [ Abs: 44.44753  Tot: +0.00000 ]
	SubspaceRotationAdjust: set factor to 0.876
ElecMinimize: Iter:   3  F: -2439.312463307570397  |grad|_K:  4.856e-07  alpha:  3.543e-01  linmin: -3.478e-06  t[s]:  38734.76
	FillingsUpdate:  mu: +0.110285090  nElectrons: 374.000000  magneticMoment: [ Abs: 44.44759  Tot: +0.00000 ]
	SubspaceRotationAdjust: set factor to 0.574
ElecMinimize: Iter:   4  F: -2439.312470258413668  |grad|_K:  3.048e-07  alpha:  1.774e-01  linmin: -1.102e-05  t[s]:  38810.94
	FillingsUpdate:  mu: +0.110184087  nElectrons: 374.000000  magneticMoment: [ Abs: 44.44810  Tot: -0.00000 ]
	SubspaceRotationAdjust: set factor to 0.637
ElecMinimize: Iter:   5  F: -2439.312475434450334  |grad|_K:  1.698e-07  alpha:  3.354e-01  linmin: -2.497e-06  t[s]:  38886.47
	FillingsUpdate:  mu: +0.110127958  nElectrons: 374.000000  magneticMoment: [ Abs: 44.44830  Tot: +0.00000 ]
	SubspaceRotationAdjust: set factor to 0.659
ElecMinimize: Iter:   6  F: -2439.312477183291776  |grad|_K:  1.206e-07  alpha:  3.655e-01  linmin:  1.437e-06  t[s]:  38961.33
	FillingsUpdate:  mu: +0.110198721  nElectrons: 374.000000  magneticMoment: [ Abs: 44.44832  Tot: +0.00000 ]
	SubspaceRotationAdjust: set factor to 0.564
ElecMinimize: Iter:   7  F: -2439.312477877871515  |grad|_K:  8.776e-08  alpha:  2.875e-01  linmin: -5.481e-07  t[s]:  39035.01
	FillingsUpdate:  mu: +0.110162708  nElectrons: 374.000000  magneticMoment: [ Abs: 44.44840  Tot: +0.00000 ]
	SubspaceRotationAdjust: set factor to 0.595
ElecMinimize: Iter:   8  F: -2439.312478309419930  |grad|_K:  6.122e-08  alpha:  3.375e-01  linmin:  2.208e-07  t[s]:  39110.78
	FillingsUpdate:  mu: +0.110162071  nElectrons: 374.000000  magneticMoment: [ Abs: 44.44842  Tot: +0.00000 ]
	SubspaceRotationAdjust: set factor to 0.699
ElecMinimize: Iter:   9  F: -2439.312478538776304  |grad|_K:  5.073e-08  alpha:  3.688e-01  linmin:  9.428e-06  t[s]:  39183.89
	FillingsUpdate:  mu: +0.110179036  nElectrons: 374.000000  magneticMoment: [ Abs: 44.44839  Tot: +0.00000 ]
	SubspaceRotationAdjust: set factor to 0.783
ElecMinimize: Iter:  10  F: -2439.312478672271482  |grad|_K:  4.039e-08  alpha:  3.121e-01  linmin: -1.054e-05  t[s]:  39258.66
	FillingsUpdate:  mu: +0.110162367  nElectrons: 374.000000  magneticMoment: [ Abs: 44.44835  Tot: +0.00000 ]
	SubspaceRotationAdjust: set factor to 0.898
ElecMinimize: Iter:  11  F: -2439.312478772787472  |grad|_K:  3.583e-08  alpha:  3.711e-01  linmin: -2.203e-05  t[s]:  39334.70
ElecMinimize: Converged (|Delta F|<1.000000e-06 for 5 iters).
Setting wave functions to eigenvectors of Hamiltonian

# Ionic positions in lattice coordinates:
ion Co  -0.005793915780804  -0.000001785947752   0.170213937190220 1
ion Co   0.493168345651450  -0.000009988559036   0.160300431029794 1
ion Co  -0.009158769976526   0.499992548853240   0.160155388019933 1
ion Co   0.491829330124474   0.499993204344636   0.162871689938971 1
ion Co   0.249883021277578   0.250884496478038   0.056876426888172 1
ion Co   0.249882245959696   0.749086189319737   0.056876863921113 1
ion Co  -0.249814083526308   0.248976750681755   0.056893977377209 1
ion Co  -0.249814931001065   0.750997269248302   0.056894002946465 1
ion Co   0.000000000000000   0.000000000000000  -0.050000000000000 0
ion Co   0.500000000000000   0.000000000000000  -0.050000000000000 0
ion Co   0.000000000000000   0.500000000000000  -0.050000000000000 0
ion Co   0.500000000000000   0.500000000000000  -0.050000000000000 0
ion Co   0.250000000000000   0.250000000000000  -0.150000000000000 0
ion Co   0.250000000000000   0.750000000000000  -0.150000000000000 0
ion Co  -0.250000000000000   0.250000000000000  -0.150000000000000 0
ion Co  -0.250000000000000   0.750000000000000  -0.150000000000000 0
ion O   0.244562622080181   0.252705393147944   0.158811898116871 1
ion O   0.244569983533378   0.747243977799577   0.158816030058311 1
ion O  -0.260485352419550   0.253819191676841   0.158557975927236 1
ion O  -0.260474765749903   0.746182483143456   0.158561081708506 1
ion O  -0.002753170773402  -0.000030028282640   0.071810518285068 1
ion O   0.496515443069002  -0.000016313691233   0.054453258725253 1
ion O   0.001332233331165   0.499974598686744   0.053601576057584 1
ion O   0.502505883737173   0.499987826819153   0.052905557435687 1
ion O   0.250000000000000   0.250000000000000  -0.050000000000000 0
ion O   0.250000000000000   0.750000000000000  -0.050000000000000 0
ion O  -0.250000000000000   0.250000000000000  -0.050000000000000 0
ion O  -0.250000000000000   0.750000000000000  -0.050000000000000 0
ion O   0.000000000000000   0.000000000000000  -0.150000000000000 0
ion O   0.500000000000000   0.000000000000000  -0.150000000000000 0
ion O   0.000000000000000   0.500000000000000  -0.150000000000000 0
ion O   0.500000000000000   0.500000000000000  -0.150000000000000 0
ion O  -0.008113271815348   0.000047529667955   0.247386455752053 1

# Forces in Lattice coordinates:
force Co   0.000929080645327   0.000003043729215  -0.020874114280655 1
force Co  -0.004786768892001  -0.000013457340009   0.012595530672696 1
force Co   0.000039420296359  -0.000012453359188   0.013790327541907 1
force Co  -0.005230937872353  -0.000010628780859   0.009594174923071 1
force Co  -0.002001226737324   0.000732856305025  -0.001108372840478 1
force Co  -0.002014847611863  -0.000766231290189  -0.001015867361284 1
force Co  -0.003343800281883   0.000424643239548  -0.009831625448338 1
force Co  -0.003337199084950  -0.000456003421563  -0.009804105805492 1
force Co  -0.023215206849042  -0.000013521693789   0.104714210757313 0
force Co  -0.008130807217498  -0.000021067411642   0.288180233649283 0
force Co  -0.005005965408416  -0.000024545269571   0.269108250840495 0
force Co  -0.003057470841963  -0.000018292536376   0.299254788582961 0
force Co   0.028677015622913   0.000087926861297  -0.294277831093040 0
force Co   0.028676915247035  -0.000090721423324  -0.294275658322469 0
force Co   0.028138872122901  -0.001890138210332  -0.289722095000563 0
force Co   0.028139197051398   0.001888455869585  -0.289723222423906 0
force O  -0.002564124681426   0.001176156737654  -0.001037028820800 1
force O  -0.002544640334267  -0.001201344321440  -0.000807271380407 1
force O  -0.000707137873549   0.000713462288083  -0.009138622247770 1
force O  -0.000698677423651  -0.000728922460554  -0.008983461948263 1
force O  -0.004508237400970   0.000005198337109   0.015626416734251 1
force O  -0.006844336402054  -0.000043814426586  -0.003463981029708 1
force O  -0.005963080771122  -0.000025963932035  -0.002261362508681 1
force O  -0.004178365000432  -0.000019578210657  -0.003969046721102 1
force O  -0.052642663515369  -0.045599760699096   0.334212725203858 0
force O  -0.052651376044512   0.045577540723449   0.334219126467104 0
force O   0.035026977175804  -0.050917562500846   0.334252834195876 0
force O   0.035034595384491   0.050883286365867   0.334267314500070 0
force O   0.001368063133598   0.000001398086086  -0.348501159747379 0
force O  -0.003920285756666   0.000002596021494  -0.369167527729753 0
force O  -0.004303556390418   0.000004503685423  -0.365783731514213 0
force O  -0.003908461282985   0.000002122073231  -0.344547448908447 0
force O  -0.001120810830887   0.000054034737401  -0.009796155765258 1

# Energy components:
   Eewald =     6149.7265381296138003
       EH =     8353.1830283109356969
     Eloc =   -17032.5107460401486605
      Enl =     -753.3934332067624382
   Epulay =        0.0001959371989449
      Exc =     -282.0742645186617779
       KE =     1125.3034430924635672
        U =        0.4527603394669908
-------------------------------------
     Etot =    -2439.3124779558929731
       TS =        0.0000008168943631
-------------------------------------
        F =    -2439.3124787727874718

IonicMinimize: Iter:  15  F: -2439.312478772787472  |grad|_K:  2.317e-04  alpha:  1.000e+00  linmin: -1.125e-02  t[s]:  39343.60
IonicMinimize: Converged (|Delta F|<1.000000e-04 for 3 iters).

#--- Lowdin population analysis ---
# oxidation-state Co +1.329 +1.258 +1.252 +1.240 +1.203 +1.203 +1.203 +1.203 +1.184 +1.197 +1.197 +1.205 +1.227 +1.227 +1.227 +1.227
# magnetic-moments Co +2.067 -2.693 +2.678 -2.660 +2.647 +2.647 -2.650 -2.650 -2.637 +2.640 -2.642 +2.641 -2.664 -2.664 +2.663 +2.663
# oxidation-state O -1.039 -1.039 -1.045 -1.045 -1.035 -1.088 -1.086 -1.081 -1.082 -1.082 -1.083 -1.083 -1.086 -1.088 -1.089 -1.088 -0.475
# magnetic-moments O +0.034 +0.034 -0.061 -0.061 -0.040 -0.008 +0.012 -0.010 -0.039 -0.039 +0.025 +0.025 -0.065 +0.051 -0.053 +0.049 +0.759


Dumping 'O.ionpos' ... done
Dumping 'O.lattice' ... done
Dumping 'O.Ecomponents' ... done
End date and time: Sat May 17 08:07:38 2025  (Duration: 0-10:55:46.59)
Done!
