
*************** JDFTx 1.7.0  ***************

Start date and time: Sat May 17 12:53:00 2025
Executable /data2/jt577/jdftx_eat_withLibXC/build/jdftx with command-line: -i /data2/jt577/May_2025/Relax_Mag_litU/rel11+1_6/O/runs/calc_/run.in
Running on hosts (process indices):  node3407 (0-8)
Divided in process groups (process indices):  0 (0)  1 (1)  2 (2)  3 (3)  4 (4)  5 (5)  6 (6)  7 (7)  8 (8)
Resource initialization completed at t[s]:      0.00
Run totals: 9 processes, 90 threads, 0 GPUs


Input parsed successfully to the following command list (including defaults):

add-mix 
add-U 	Ni d 0.235196 \
	V d 0.113923 \
	Co d 0.121273 \
	Cr d 0.128623
basis kpoint-dependent
coords-type Lattice
core-overlap-check vector
coulomb-interaction Periodic
davidson-band-ratio 1.1
dump End IonicPositions Lattice Ecomponents
dump-name run.$VAR
elec-cutoff 30
elec-eigen-algo Davidson
elec-ex-corr gga-x-rpbe gga-c-pbe
elec-smearing Fermi 0.001
electronic-minimize  \
	dirUpdateScheme      FletcherReeves \
	linminMethod         DirUpdateRecommended \
	nIterations          1000 \
	history              15 \
	knormThreshold       0 \
	energyDiffThreshold  1e-06 \
	nEnergyDiff          5 \
	alphaTstart          1 \
	alphaTmin            1e-10 \
	updateTestStepSize   yes \
	alphaTreduceFactor   0.1 \
	alphaTincreaseFactor 3 \
	nAlphaAdjustMax      3 \
	wolfeEnergy          0.0001 \
	wolfeGradient        0.9 \
	fdTest               no
exchange-regularization WignerSeitzTruncated
fluid None
fluid-ex-corr (null) lda-PZ
fluid-gummel-loop 10 1.000000e-05
fluid-minimize  \
	dirUpdateScheme      PolakRibiere \
	linminMethod         DirUpdateRecommended \
	nIterations          100 \
	history              15 \
	knormThreshold       0 \
	energyDiffThreshold  0 \
	nEnergyDiff          2 \
	alphaTstart          1 \
	alphaTmin            1e-10 \
	updateTestStepSize   yes \
	alphaTreduceFactor   0.1 \
	alphaTincreaseFactor 3 \
	nAlphaAdjustMax      3 \
	wolfeEnergy          0.0001 \
	wolfeGradient        0.9 \
	fdTest               no
fluid-solvent H2O 55.338 ScalarEOS \
	epsBulk 78.4 \
	pMol 0.92466 \
	epsInf 1.77 \
	Pvap 1.06736e-10 \
	sigmaBulk 4.62e-05 \
	Rvdw 2.61727 \
	Res 1.42 \
	tauNuc 343133 \
	poleEl 15 7 1
forces-output-coords Positions
initial-magnetic-moments  \
	Ni 1 1 1 1 -1 -1 1 1 \
	V -1 1 -1 -1 -1 1 \
	Co -1 \
	Cr -1
initial-state run.$VAR
ion Ni  0.000000000000000   0.000000000000000   0.150000000000000 1
ion Ni  0.000000000000000   0.500000000000000   0.150000000000000 1
ion Ni  0.250000000000000   0.750000000000000   0.050000000000000 1
ion Ni  0.500000000000000   0.000000000000000  -0.050000000000000 0
ion Ni  0.250000000000000   0.250000000000000  -0.150000000000000 0
ion Ni  0.250000000000000   0.750000000000000  -0.150000000000000 0
ion Ni -0.250000000000000   0.250000000000000  -0.150000000000000 0
ion Ni -0.250000000000000   0.750000000000000  -0.150000000000000 0
ion V  0.500000000000000   0.000000000000000   0.150000000000000 1
ion V  0.250000000000000   0.250000000000000   0.050000000000000 1
ion V -0.250000000000000   0.750000000000000   0.050000000000000 1
ion V  0.000000000000000   0.000000000000000  -0.050000000000000 0
ion V  0.000000000000000   0.500000000000000  -0.050000000000000 0
ion V  0.500000000000000   0.500000000000000  -0.050000000000000 0
ion Co  0.500000000000000   0.500000000000000   0.150000000000000 1
ion Cr -0.250000000000000   0.250000000000000   0.050000000000000 1
ion O  0.250000000000000   0.250000000000000   0.150000000000000 1
ion O  0.250000000000000   0.750000000000000   0.150000000000000 1
ion O -0.250000000000000   0.250000000000000   0.150000000000000 1
ion O -0.250000000000000   0.750000000000000   0.150000000000000 1
ion O  0.000000000000000   0.000000000000000   0.050000000000000 1
ion O  0.500000000000000   0.000000000000000   0.050000000000000 1
ion O  0.000000000000000   0.500000000000000   0.050000000000000 1
ion O  0.500000000000000   0.500000000000000   0.050000000000000 1
ion O  0.250000000000000   0.250000000000000  -0.050000000000000 0
ion O  0.250000000000000   0.750000000000000  -0.050000000000000 0
ion O -0.250000000000000   0.250000000000000  -0.050000000000000 0
ion O -0.250000000000000   0.750000000000000  -0.050000000000000 0
ion O  0.000000000000000   0.000000000000000  -0.150000000000000 0
ion O  0.500000000000000   0.000000000000000  -0.150000000000000 0
ion O  0.000000000000000   0.500000000000000  -0.150000000000000 0
ion O  0.500000000000000   0.500000000000000  -0.150000000000000 0
ion O -0.000095572322686   0.000198307128402   0.224876729873325 1
ion-species SG15/$ID_ONCV_PBE.upf
ion-width 0
ionic-minimize  \
	dirUpdateScheme      L-BFGS \
	linminMethod         DirUpdateRecommended \
	nIterations          1000 \
	history              15 \
	knormThreshold       0.0001 \
	energyDiffThreshold  0.0001 \
	nEnergyDiff          3 \
	alphaTstart          1 \
	alphaTmin            1e-10 \
	updateTestStepSize   yes \
	alphaTreduceFactor   0.1 \
	alphaTincreaseFactor 3 \
	nAlphaAdjustMax      3 \
	wolfeEnergy          0.0001 \
	wolfeGradient        0.9 \
	fdTest               no
kpoint   0.500000000000   0.500000000000   0.500000000000  1.00000000000000
kpoint-folding 3 3 1 
latt-move-scale 1 1 1
latt-scale 1 1 1 
lattice  \
	   8.140000000000001    8.140000000000001    0.000000000000000  \
	   8.140000000000001   -8.140000000000001    0.000000000000000  \
	   0.000000000000000    0.000000000000000   40.700000000000003 
lattice-minimize  \
	dirUpdateScheme      L-BFGS \
	linminMethod         DirUpdateRecommended \
	nIterations          0 \
	history              15 \
	knormThreshold       0 \
	energyDiffThreshold  1e-06 \
	nEnergyDiff          2 \
	alphaTstart          1 \
	alphaTmin            1e-10 \
	updateTestStepSize   yes \
	alphaTreduceFactor   0.1 \
	alphaTincreaseFactor 3 \
	nAlphaAdjustMax      3 \
	wolfeEnergy          0.0001 \
	wolfeGradient        0.9 \
	fdTest               no
lcao-params -1 1e-06 0.001
pcm-variant GLSSA13
spintype z-spin
subspace-rotation-factor 1 yes
symmetries none
symmetry-threshold 0.0001


Applied RMS atom displacement 0 bohrs to make symmetries exact.

---------- Initializing the Grid ----------
R = 
[         8.14         8.14            0  ]
[         8.14        -8.14            0  ]
[            0            0         40.7  ]
unit cell volume = 5393.53
G =
[   0.385945   0.385945         -0  ]
[   0.385945  -0.385945         -0  ]
[         -0         -0   0.154378  ]
Minimum fftbox size, Smin = [  60  60  204  ]
Chosen fftbox size, S = [  60  60  210  ]

---------- Exchange Correlation functional ----------
Initialized LibXC exchange functional 'Hammer, Hansen, and Norskov'
Initialized LibXC correlation functional 'Perdew, Burke & Ernzerhof'

---------- Setting up pseudopotentials ----------
Width of ionic core gaussian charges (only for fluid interactions / plotting) set to 0

Reading pseudopotential file '/data2/jt577/jdftx_eat_withLibXC/build/pseudopotentials/SG15/Ni_ONCV_PBE.upf':
  'Ni' pseudopotential, 'PBE' functional
  Generated using ONCVPSP code by D. R. Hamann
  Author: Martin Schlipf and Francois Gygi  Date: 150915.
  18 valence electrons, 4 orbitals, 6 projectors, 1292 radial grid points, with lMax = 2
  Transforming local potential to a uniform radial grid of dG=0.02 with 1419 points.
  Transforming nonlocal projectors to a uniform radial grid of dG=0.02 with 528 points.
    3S    l: 0   occupation:  2.0   eigenvalue: -4.081355
    3P    l: 1   occupation:  6.0   eigenvalue: -2.623460
    4S    l: 0   occupation:  2.0   eigenvalue: -0.207378
    3D    l: 2   occupation:  8.0   eigenvalue: -0.326118
  Transforming atomic orbitals to a uniform radial grid of dG=0.02 with 528 points.
  WARNING: large normalization error in atomic orbital 1s (integral: 0.000006).
  Core radius for overlap checks: 1.99 bohrs.
  Reading pulay file /data2/jt577/jdftx_eat_withLibXC/build/pseudopotentials/SG15/Ni_ONCV_PBE.pulay ... using dE_dnG = -7.250568e-04 computed for Ecut = 30.

Reading pseudopotential file '/data2/jt577/jdftx_eat_withLibXC/build/pseudopotentials/SG15/V_ONCV_PBE.upf':
  'V' pseudopotential, 'PBE' functional
  Generated using ONCVPSP code by D. R. Hamann
  Author: Martin Schlipf and Francois Gygi  Date: 150915.
  13 valence electrons, 4 orbitals, 6 projectors, 1536 radial grid points, with lMax = 2
  Transforming local potential to a uniform radial grid of dG=0.02 with 1419 points.
  Transforming nonlocal projectors to a uniform radial grid of dG=0.02 with 528 points.
    3S    l: 0   occupation:  2.0   eigenvalue: -2.581105
    3P    l: 1   occupation:  6.0   eigenvalue: -1.618486
    4S    l: 0   occupation:  2.0   eigenvalue: -0.172804
    3D    l: 2   occupation:  3.0   eigenvalue: -0.189795
  Transforming atomic orbitals to a uniform radial grid of dG=0.02 with 528 points.
  Core radius for overlap checks: 1.80 bohrs.
  Reading pulay file /data2/jt577/jdftx_eat_withLibXC/build/pseudopotentials/SG15/V_ONCV_PBE.pulay ... using dE_dnG = -1.698632e-04 computed for Ecut = 30.

Reading pseudopotential file '/data2/jt577/jdftx_eat_withLibXC/build/pseudopotentials/SG15/Co_ONCV_PBE.upf':
  'Co' pseudopotential, 'PBE' functional
  Generated using ONCVPSP code by D. R. Hamann
  Author: Martin Schlipf and Francois Gygi  Date: 150915.
  17 valence electrons, 4 orbitals, 6 projectors, 1388 radial grid points, with lMax = 2
  Transforming local potential to a uniform radial grid of dG=0.02 with 1419 points.
  Transforming nonlocal projectors to a uniform radial grid of dG=0.02 with 528 points.
    3S    l: 0   occupation:  2.0   eigenvalue: -3.763303
    3P    l: 1   occupation:  6.0   eigenvalue: -2.412101
    4S    l: 0   occupation:  2.0   eigenvalue: -0.201022
    3D    l: 2   occupation:  7.0   eigenvalue: -0.301498
  Transforming atomic orbitals to a uniform radial grid of dG=0.02 with 528 points.
  Core radius for overlap checks: 1.94 bohrs.
  Reading pulay file /data2/jt577/jdftx_eat_withLibXC/build/pseudopotentials/SG15/Co_ONCV_PBE.pulay ... using dE_dnG = -9.787391e-05 computed for Ecut = 30.

Reading pseudopotential file '/data2/jt577/jdftx_eat_withLibXC/build/pseudopotentials/SG15/Cr_ONCV_PBE.upf':
  'Cr' pseudopotential, 'PBE' functional
  Generated using ONCVPSP code by D. R. Hamann
  Author: Martin Schlipf and Francois Gygi  Date: 150915.
  14 valence electrons, 4 orbitals, 6 projectors, 1160 radial grid points, with lMax = 2
  Transforming local potential to a uniform radial grid of dG=0.02 with 1419 points.
  Transforming nonlocal projectors to a uniform radial grid of dG=0.02 with 528 points.
    3S    l: 0   occupation:  2.0   eigenvalue: -2.865131
    3P    l: 1   occupation:  6.0   eigenvalue: -1.810600
    4S    l: 0   occupation:  2.0   eigenvalue: -0.180525
    3D    l: 2   occupation:  4.0   eigenvalue: -0.220312
  Transforming atomic orbitals to a uniform radial grid of dG=0.02 with 528 points.
  WARNING: large normalization error in atomic orbital 1s (integral: 0.000001).
  Core radius for overlap checks: 2.10 bohrs.
  Reading pulay file /data2/jt577/jdftx_eat_withLibXC/build/pseudopotentials/SG15/Cr_ONCV_PBE.pulay ... using dE_dnG = -9.817895e-06 computed for Ecut = 30.

Reading pseudopotential file '/data2/jt577/jdftx_eat_withLibXC/build/pseudopotentials/SG15/O_ONCV_PBE.upf':
  'O' pseudopotential, 'PBE' functional
  Generated using ONCVPSP code by D. R. Hamann
  Author: Martin Schlipf and Francois Gygi  Date: 150915.
  6 valence electrons, 2 orbitals, 4 projectors, 936 radial grid points, with lMax = 1
  Transforming local potential to a uniform radial grid of dG=0.02 with 1419 points.
  Transforming nonlocal projectors to a uniform radial grid of dG=0.02 with 528 points.
    2S    l: 0   occupation:  2.0   eigenvalue: -0.880572
    2P    l: 1   occupation:  4.0   eigenvalue: -0.331869
  Transforming atomic orbitals to a uniform radial grid of dG=0.02 with 528 points.
  Core radius for overlap checks: 1.29 bohrs.
  Reading pulay file /data2/jt577/jdftx_eat_withLibXC/build/pseudopotentials/SG15/O_ONCV_PBE.pulay ... using dE_dnG = -8.209514e-03 computed for Ecut = 30.

Initialized 5 species with 33 total atoms.

Folded 1 k-points by 3x3x1 to 9 k-points.

---------- Setting up k-points, bands, fillings ----------
No reducable k-points. 
Computing the number of bands and number of electrons
Calculating initial fillings.
nElectrons: 355.000000   nBands: 228   nStates: 18

----- Setting up reduced wavefunction bases (one per k-point) -----
average nbasis = 42312.000 , ideal nbasis = 42330.081

---------- Setting up ewald sum ----------
Optimum gaussian width for ewald sums = 3.906449 bohr.
Real space sum over 605 unit cells with max indices [  5  5  2  ]
Reciprocal space sum over 5915 terms with max indices [  6  6  17  ]

---------- Allocating electronic variables ----------
Initializing wave functions:  linear combination of atomic orbitals
Ni (M=1) pseudo-atom majority spin occupations:   s ( 1 0.5 )  p ( 3 )  d ( 5 )
Ni (M=1) pseudo-atom minority spin occupations:   s ( 1 0 )  p ( 3 )  d ( 4.5 )
V (M=1) pseudo-atom majority spin occupations:   s ( 1 0 )  p ( 3 )  d ( 3 )
V (M=1) pseudo-atom minority spin occupations:   s ( 1 0 )  p ( 3 )  d ( 2 )
Co (M=1) pseudo-atom majority spin occupations:   s ( 1 0 )  p ( 3 )  d ( 5 )
Co (M=1) pseudo-atom minority spin occupations:   s ( 1 0 )  p ( 3 )  d ( 4 )
Cr (M=1) pseudo-atom majority spin occupations:   s ( 1 0 )  p ( 3 )  d ( 3.5 )
Cr (M=1) pseudo-atom minority spin occupations:   s ( 1 0 )  p ( 3 )  d ( 2.5 )
O pseudo-atom occupations:   s ( 2 )  p ( 4 )
	FillingsUpdate:  mu: +0.065256715  nElectrons: 355.000000  magneticMoment: [ Abs: 0.22087  Tot: -0.00000 ]
LCAOMinimize: Iter:   0  F: -1987.3164614806623831  |grad|_K:  6.028e-03  alpha:  1.000e+00
	FillingsUpdate:  mu: +0.050778666  nElectrons: 355.000000  magneticMoment: [ Abs: 0.22519  Tot: +0.00000 ]
LCAOMinimize: Iter:   1  F: -1988.2669265897316109  |grad|_K:  6.432e-03  alpha:  2.553e-02  linmin: -9.300e-02  cgtest:  9.002e-01  t[s]:     43.20
LCAOMinimize: 	Wrong curvature in test step, increasing alphaT to 7.660085e-02.
	FillingsUpdate:  mu: +0.033191607  nElectrons: 355.000000  magneticMoment: [ Abs: 0.22214  Tot: +0.00000 ]
LCAOMinimize: Iter:   2  F: -1989.5988630704916886  |grad|_K:  7.060e-03  alpha: -1.007e-01  linmin: -1.043e-01  cgtest:  8.645e-01  t[s]:     56.65
	FillingsUpdate:  mu: -0.047172984  nElectrons: 355.000000  magneticMoment: [ Abs: 0.27258  Tot: -0.00000 ]
LCAOMinimize: Iter:   3  F: -1992.4395008463961858  |grad|_K:  9.135e-03  alpha:  3.485e-02  linmin: -1.214e-01  cgtest:  7.019e-01  t[s]:     71.17
	FillingsUpdate:  mu: -0.090467058  nElectrons: 355.000000  magneticMoment: [ Abs: 0.44804  Tot: +0.00000 ]
LCAOMinimize: Iter:   4  F: -1994.6451787303431047  |grad|_K:  3.171e-02  alpha:  7.895e-03  linmin: -7.372e-02  cgtest:  2.727e-01  t[s]:     85.66
LCAOMinimize: 	Step increased F by 7.724609e+00, reducing alpha to 2.172557e-04.
	FillingsUpdate:  mu: -0.162664867  nElectrons: 355.000000  magneticMoment: [ Abs: 5.37570  Tot: +0.00000 ]
LCAOMinimize: Iter:   5  F: -2007.3387828466918563  |grad|_K:  2.317e-02  alpha:  2.173e-04  linmin: -1.322e-01  cgtest:  6.693e-01  t[s]:    110.16
LCAOMinimize: 	Wrong curvature in test step, increasing alphaT to 6.517670e-04.
	FillingsUpdate:  mu: -0.148899857  nElectrons: 355.000000  magneticMoment: [ Abs: 5.05137  Tot: -0.00000 ]
LCAOMinimize: Iter:   6  F: -2007.8594609505648805  |grad|_K:  2.439e-02  alpha: -6.793e-04  linmin: -1.324e-01  cgtest:  8.253e-01  t[s]:    123.58
LCAOMinimize: 	Step increased F by 1.564131e+02, reducing alpha to 4.184330e-02.
LCAOMinimize: 	Step increased F by 1.199286e+01, reducing alpha to 4.184330e-03.
	FillingsUpdate:  mu: +0.156732387  nElectrons: 355.000000  magneticMoment: [ Abs: 2.50709  Tot: +0.00000 ]
LCAOMinimize: Iter:   7  F: -2008.7066376416396452  |grad|_K:  1.676e-02  alpha:  4.184e-03  linmin:  6.993e-02  cgtest: -1.114e+00  t[s]:    158.58
LCAOMinimize: 	Bad step direction: g.d > 0.
LCAOMinimize: 	Undoing step.
LCAOMinimize: 	Step failed: resetting search direction.
	FillingsUpdate:  mu: +0.156732387  nElectrons: 355.000000  magneticMoment: [ Abs: 2.50709  Tot: +0.00000 ]
LCAOMinimize: Iter:   8  F: -2008.7066376416396452  |grad|_K:  1.676e-02  alpha:  0.000e+00
LCAOMinimize: 	Wrong curvature in test step, increasing alphaT to 1.255299e-02.
	FillingsUpdate:  mu: -0.103151032  nElectrons: 355.000000  magneticMoment: [ Abs: 3.80329  Tot: -0.00000 ]
LCAOMinimize: Iter:   9  F: -2009.9028650624491092  |grad|_K:  1.228e-02  alpha: -2.663e-02  linmin: -6.732e-02  cgtest:  6.700e-01  t[s]:    182.15
LCAOMinimize: 	Step increased F by 7.500264e-01, reducing alpha to 1.423829e-02.
LCAOMinimize: 	Step increased F by 3.297253e-01, reducing alpha to 1.423829e-03.
	FillingsUpdate:  mu: -0.151835711  nElectrons: 355.000000  magneticMoment: [ Abs: 4.07047  Tot: +0.00000 ]
LCAOMinimize: Iter:  10  F: -2010.1077480327471676  |grad|_K:  1.029e-02  alpha:  1.424e-03  linmin: -4.725e-02  cgtest:  9.610e-01  t[s]:    217.00
LCAOMinimize: Encountered beta<0, resetting CG.
LCAOMinimize: 	Predicted alpha/alphaT>3.000000, increasing alphaT to 4.271486e-03.
	FillingsUpdate:  mu: -0.223787891  nElectrons: 355.000000  magneticMoment: [ Abs: 4.94592  Tot: -0.00000 ]
LCAOMinimize: Iter:  11  F: -2010.5693068685502567  |grad|_K:  9.191e-03  alpha:  8.709e-03  linmin: -8.467e-03  cgtest:  2.650e-01  t[s]:    235.93
LCAOMinimize: 	Predicted alpha/alphaT>3.000000, increasing alphaT to 2.612719e-02.
	FillingsUpdate:  mu: +0.000784206  nElectrons: 355.000000  magneticMoment: [ Abs: 2.43777  Tot: +0.00000 ]
LCAOMinimize: Iter:  12  F: -2014.0298207053597253  |grad|_K:  8.865e-03  alpha:  5.094e-02  linmin: -2.034e-02  cgtest:  1.150e+00  t[s]:    254.62
LCAOMinimize: Encountered beta<0, resetting CG.
	FillingsUpdate:  mu: +0.052159591  nElectrons: 355.000000  magneticMoment: [ Abs: 3.02541  Tot: -0.00000 ]
LCAOMinimize: Iter:  13  F: -2015.7792785616045421  |grad|_K:  1.060e-02  alpha:  1.069e-02  linmin: -1.040e-01  cgtest:  5.785e-01  t[s]:    269.48
	FillingsUpdate:  mu: +0.003621720  nElectrons: 355.000000  magneticMoment: [ Abs: 3.26362  Tot: +0.00000 ]
LCAOMinimize: Iter:  14  F: -2016.3035049592565429  |grad|_K:  1.174e-02  alpha:  4.548e-03  linmin:  1.840e-02  cgtest:  2.221e-01  t[s]:    283.69
	FillingsUpdate:  mu: -0.030021279  nElectrons: 355.000000  magneticMoment: [ Abs: 3.62919  Tot: +0.00000 ]
LCAOMinimize: Iter:  15  F: -2016.5688510054594644  |grad|_K:  1.475e-02  alpha:  6.269e-03  linmin: -6.773e-03  cgtest:  1.111e+00  t[s]:    298.47
LCAOMinimize: 	Predicted alpha/alphaT>3.000000, increasing alphaT to 1.880561e-02.
	FillingsUpdate:  mu: -0.137449292  nElectrons: 355.000000  magneticMoment: [ Abs: 3.68907  Tot: +0.00000 ]
LCAOMinimize: Iter:  16  F: -2018.1386523095632128  |grad|_K:  1.604e-02  alpha:  1.348e-02  linmin:  2.926e-02  cgtest: -2.777e-01  t[s]:    317.58
LCAOMinimize: 	Wrong curvature in test step, increasing alphaT to 4.044271e-02.
	FillingsUpdate:  mu: -0.137637407  nElectrons: 355.000000  magneticMoment: [ Abs: 3.57454  Tot: +0.00000 ]
LCAOMinimize: Iter:  17  F: -2019.6996551657559849  |grad|_K:  1.705e-02  alpha: -2.261e-03  linmin: -1.855e-02  cgtest:  1.516e+00  t[s]:    331.30
LCAOMinimize: Encountered beta<0, resetting CG.
LCAOMinimize: 	Step increased F by 1.122667e+02, reducing alpha to 2.224290e-02.
	FillingsUpdate:  mu: -0.038785191  nElectrons: 355.000000  magneticMoment: [ Abs: 3.38960  Tot: -0.00000 ]
LCAOMinimize: Iter:  18  F: -2021.3909738992942948  |grad|_K:  1.183e-02  alpha:  2.224e-02  linmin: -4.578e-03  cgtest: -8.180e-01  t[s]:    356.48
LCAOMinimize: 	Step increased F by 2.983449e+00, reducing alpha to 4.659510e-03.
	FillingsUpdate:  mu: +0.034399588  nElectrons: 355.000000  magneticMoment: [ Abs: 3.82047  Tot: +0.00000 ]
LCAOMinimize: Iter:  19  F: -2022.0106279454475953  |grad|_K:  1.143e-02  alpha:  4.660e-03  linmin: -5.011e-02  cgtest:  1.016e+00  t[s]:    381.86
LCAOMinimize: Encountered beta<0, resetting CG.
LCAOMinimize: 	Wrong curvature in test step, increasing alphaT to 1.397853e-02.
	FillingsUpdate:  mu: +0.005125002  nElectrons: 355.000000  magneticMoment: [ Abs: 3.95223  Tot: -0.00000 ]
LCAOMinimize: Iter:  20  F: -2022.7159246702356086  |grad|_K:  1.525e-02  alpha: -1.021e-02  linmin: -8.502e-02  cgtest:  6.760e-01  t[s]:    395.57
LCAOMinimize: 	Step increased F by 3.034001e+02, reducing alpha to 2.374367e-02.
LCAOMinimize: 	Step increased F by 4.486128e+00, reducing alpha to 2.374367e-03.
	FillingsUpdate:  mu: -0.065041462  nElectrons: 355.000000  magneticMoment: [ Abs: 4.35935  Tot: -0.00000 ]
LCAOMinimize: Iter:  21  F: -2024.1490926953010785  |grad|_K:  1.435e-02  alpha:  2.374e-03  linmin: -1.196e-01  cgtest:  6.706e-01  t[s]:    431.51
	FillingsUpdate:  mu: -0.027048296  nElectrons: 355.000000  magneticMoment: [ Abs: 5.24513  Tot: +0.00000 ]
LCAOMinimize: Iter:  22  F: -2024.9152775406187175  |grad|_K:  1.236e-02  alpha:  6.406e-03  linmin:  4.329e-02  cgtest: -2.292e-01  t[s]:    446.40
LCAOMinimize: 	Predicted alpha/alphaT>3.000000, increasing alphaT to 1.921664e-02.
	FillingsUpdate:  mu: +0.151144448  nElectrons: 355.000000  magneticMoment: [ Abs: 5.98367  Tot: +0.00000 ]
LCAOMinimize: Iter:  23  F: -2025.5126976638348424  |grad|_K:  1.751e-02  alpha:  1.378e-02  linmin:  7.108e-03  cgtest:  1.062e+00  t[s]:    466.00
	FillingsUpdate:  mu: +0.169072349  nElectrons: 355.000000  magneticMoment: [ Abs: 7.06203  Tot: -0.00000 ]
LCAOMinimize: Iter:  24  F: -2027.2586698733316553  |grad|_K:  1.442e-02  alpha:  1.811e-02  linmin:  5.597e-02  cgtest: -6.160e-01  t[s]:    480.63
LCAOMinimize: 	Bad step direction: g.d > 0.
LCAOMinimize: 	Undoing step.
LCAOMinimize: 	Step failed: resetting search direction.
	FillingsUpdate:  mu: +0.169072349  nElectrons: 355.000000  magneticMoment: [ Abs: 7.06203  Tot: -0.00000 ]
LCAOMinimize: Iter:  25  F: -2027.2586698733316553  |grad|_K:  1.442e-02  alpha:  0.000e+00
	FillingsUpdate:  mu: +0.003343020  nElectrons: 355.000000  magneticMoment: [ Abs: 7.42218  Tot: -0.00000 ]
LCAOMinimize: Iter:  26  F: -2028.2307312083901252  |grad|_K:  5.236e-03  alpha:  9.463e-03  linmin:  5.099e-02  cgtest: -2.229e-01  t[s]:    506.13
	FillingsUpdate:  mu: -0.114100968  nElectrons: 355.000000  magneticMoment: [ Abs: 7.41009  Tot: -0.00000 ]
LCAOMinimize: Iter:  27  F: -2028.5166409042940359  |grad|_K:  3.941e-03  alpha:  2.567e-02  linmin: -7.808e-03  cgtest:  3.906e-01  t[s]:    521.13
	FillingsUpdate:  mu: -0.081915711  nElectrons: 355.000000  magneticMoment: [ Abs: 7.35388  Tot: +0.00000 ]
LCAOMinimize: Iter:  28  F: -2028.6789463344180149  |grad|_K:  3.677e-03  alpha:  2.074e-02  linmin:  1.598e-03  cgtest: -5.076e-02  t[s]:    535.61
	FillingsUpdate:  mu: -0.032701847  nElectrons: 355.000000  magneticMoment: [ Abs: 7.74520  Tot: -0.00000 ]
LCAOMinimize: Iter:  29  F: -2028.8597282811842888  |grad|_K:  3.172e-03  alpha:  2.856e-02  linmin: -2.076e-03  cgtest:  2.924e-01  t[s]:    550.36
	FillingsUpdate:  mu: -0.061567241  nElectrons: 355.000000  magneticMoment: [ Abs: 8.27220  Tot: -0.00000 ]
LCAOMinimize: Iter:  30  F: -2028.9990779967579329  |grad|_K:  2.382e-03  alpha:  2.826e-02  linmin: -3.407e-03  cgtest:  7.932e-02  t[s]:    565.27
LCAOMinimize: None of the convergence criteria satisfied after 30 iterations.


---- Citations for features of the code used in this run ----

   Software package:
      R. Sundararaman, K. Letchworth-Weaver, K.A. Schwarz, D. Gunceler, Y. Ozhabes and T.A. Arias, 'JDFTx: software for joint density-functional theory', SoftwareX 6, 278 (2017)

   Simplified rotationally-invariant DFT+U:
      S. L. Dudarev et al., Phys. Rev. B 57, 1505 (1998)

   LibXC library of exchange-correlation functions:
      M. A. L. Marques, M. J. T. Oliveira and T. Burnus, Comput. Phys. Commun. 183, 2272 (2012)

   Hammer, Hansen, and Norskov exchange functional:
      B. Hammer, L. B. Hansen, and J. K. Nørskov, Phys. Rev. B 59, 7413 (1999)

   Perdew, Burke & Ernzerhof correlation functional:
      J. P. Perdew, K. Burke, and M. Ernzerhof, Phys. Rev. Lett. 77, 3865 (1996)

   Pseudopotentials:
      M Schlipf and F Gygi, Comput. Phys. Commun. 196, 36 (2015)

   Total energy minimization with Auxiliary Hamiltonian:
      C. Freysoldt, S. Boeck, and J. Neugebauer, Phys. Rev. B 79, 241103(R) (2009)

This list may not be complete. Please suggest additional citations or
report any other bugs at https://github.com/shankar1729/jdftx/issues

Initialization completed successfully at t[s]:    571.85


-------- Electronic minimization -----------
	FillingsUpdate:  mu: -0.061566802  nElectrons: 355.000000  magneticMoment: [ Abs: 8.27220  Tot: -0.00000 ]
ElecMinimize: Iter:   0  F: -2028.999077996765209  |grad|_K:  1.201e-03  alpha:  1.000e+00
	FillingsUpdate:  mu: +1.629661772  nElectrons: 355.000000  magneticMoment: [ Abs: 8.09993  Tot: +0.00000 ]
	SubspaceRotationAdjust: set factor to 0.592
ElecMinimize: Iter:   1  F: -2086.031133443782437  |grad|_K:  3.042e-03  alpha:  4.193e-01  linmin:  1.899e-02  t[s]:    662.15
ElecMinimize: 	Step increased F by 2.376398e+02, reducing alpha to 1.059827e-02.
	FillingsUpdate:  mu: +0.550266544  nElectrons: 355.000000  magneticMoment: [ Abs: 7.64094  Tot: +0.00000 ]
	SubspaceRotationAdjust: set factor to 0.741
ElecMinimize: Iter:   2  F: -2098.403184421630158  |grad|_K:  1.147e-03  alpha:  1.060e-02  linmin: -1.212e-03  t[s]:    778.08
	FillingsUpdate:  mu: +0.335140747  nElectrons: 355.000000  magneticMoment: [ Abs: 9.19424  Tot: -0.00000 ]
	SubspaceRotationAdjust: set factor to 0.685
ElecMinimize: Iter:   3  F: -2103.548278714614298  |grad|_K:  9.066e-04  alpha:  1.943e-02  linmin: -1.674e-03  t[s]:    854.04
ElecMinimize: 	Predicted alpha/alphaT>3.000000, increasing alphaT to 5.828626e-02.
	FillingsUpdate:  mu: +1.249631714  nElectrons: 355.000000  magneticMoment: [ Abs: 11.18821  Tot: +0.00000 ]
	SubspaceRotationAdjust: set factor to 0.387
ElecMinimize: Iter:   4  F: -2118.731953589624936  |grad|_K:  1.657e-03  alpha:  1.094e-01  linmin:  2.851e-03  t[s]:    955.46
	FillingsUpdate:  mu: +1.154174978  nElectrons: 355.000000  magneticMoment: [ Abs: 11.48102  Tot: -0.00000 ]
	SubspaceRotationAdjust: set factor to 0.234
ElecMinimize: Iter:   5  F: -2122.945050006981546  |grad|_K:  1.238e-03  alpha:  8.172e-03  linmin: -1.936e-03  t[s]:   1032.51
	FillingsUpdate:  mu: +0.464835185  nElectrons: 355.000000  magneticMoment: [ Abs: 12.54600  Tot: -0.00000 ]
	SubspaceRotationAdjust: set factor to 0.299
ElecMinimize: Iter:   6  F: -2131.951314947751598  |grad|_K:  6.044e-04  alpha:  2.239e-02  linmin: -1.827e-03  t[s]:   1108.95
	FillingsUpdate:  mu: +0.579481128  nElectrons: 355.000000  magneticMoment: [ Abs: 13.60589  Tot: -0.00000 ]
	SubspaceRotationAdjust: set factor to 0.232
ElecMinimize: Iter:   7  F: -2135.965803130071890  |grad|_K:  6.945e-04  alpha:  6.472e-02  linmin:  3.777e-03  t[s]:   1187.34
	FillingsUpdate:  mu: +0.645957108  nElectrons: 355.000000  magneticMoment: [ Abs: 13.55325  Tot: +0.00000 ]
	SubspaceRotationAdjust: set factor to 0.187
ElecMinimize: Iter:   8  F: -2136.039831217028222  |grad|_K:  6.641e-04  alpha:  3.251e-03  linmin: -3.734e-04  t[s]:   1267.78
ElecMinimize: 	Predicted alpha/alphaT>3.000000, increasing alphaT to 9.754222e-03.
ElecMinimize: 	Predicted alpha/alphaT>3.000000, increasing alphaT to 2.926267e-02.
	FillingsUpdate:  mu: +0.820235698  nElectrons: 355.000000  magneticMoment: [ Abs: 13.97588  Tot: +0.00000 ]
	SubspaceRotationAdjust: set factor to 0.136
ElecMinimize: Iter:   9  F: -2138.656257172940514  |grad|_K:  5.923e-04  alpha:  3.221e-02  linmin:  1.030e-03  t[s]:   1407.24
	FillingsUpdate:  mu: +0.798269519  nElectrons: 355.000000  magneticMoment: [ Abs: 14.12337  Tot: +0.00000 ]
	SubspaceRotationAdjust: set factor to 0.109
	SubspaceRotationAdjust: resetting CG because factor has changed by 0.109105
ElecMinimize: 	State modified externally: resetting search direction.
ElecMinimize: Iter:  10  F: -2139.659430213521318  |grad|_K:  4.665e-04  alpha:  2.242e-02
ElecMinimize: 	Predicted alpha/alphaT>3.000000, increasing alphaT to 6.726449e-02.
	FillingsUpdate:  mu: +0.218115296  nElectrons: 355.000000  magneticMoment: [ Abs: 13.17131  Tot: +0.00000 ]
	SubspaceRotationAdjust: set factor to 0.0443
ElecMinimize: Iter:  11  F: -2145.570692108234198  |grad|_K:  1.471e-04  alpha:  1.644e-01  linmin:  1.067e-02  t[s]:   1612.83
	FillingsUpdate:  mu: +0.154683924  nElectrons: 355.000000  magneticMoment: [ Abs: 13.17225  Tot: -0.00000 ]
	SubspaceRotationAdjust: set factor to 0.035
ElecMinimize: Iter:  12  F: -2146.495624786015924  |grad|_K:  6.879e-05  alpha:  2.706e-01  linmin: -5.098e-04  t[s]:   1692.18
	FillingsUpdate:  mu: +0.094707707  nElectrons: 355.000000  magneticMoment: [ Abs: 13.28931  Tot: -0.00000 ]
	SubspaceRotationAdjust: set factor to 0.0401
ElecMinimize: Iter:  13  F: -2146.922487179881955  |grad|_K:  6.275e-05  alpha:  5.074e-01  linmin:  1.838e-04  t[s]:   1773.61
	FillingsUpdate:  mu: +0.080238664  nElectrons: 355.000000  magneticMoment: [ Abs: 13.40273  Tot: +0.00000 ]
	SubspaceRotationAdjust: set factor to 0.0458
ElecMinimize: Iter:  14  F: -2147.166214743587261  |grad|_K:  4.253e-05  alpha:  3.641e-01  linmin: -6.137e-04  t[s]:   1853.96
	FillingsUpdate:  mu: +0.095513413  nElectrons: 355.000000  magneticMoment: [ Abs: 13.56159  Tot: -0.00000 ]
	SubspaceRotationAdjust: set factor to 0.0525
ElecMinimize: Iter:  15  F: -2147.322459340952264  |grad|_K:  4.047e-05  alpha:  4.582e-01  linmin: -1.965e-04  t[s]:   1924.09
	FillingsUpdate:  mu: +0.096512058  nElectrons: 355.000000  magneticMoment: [ Abs: 13.82354  Tot: +0.00000 ]
	SubspaceRotationAdjust: set factor to 0.0634
ElecMinimize: Iter:  16  F: -2147.441157133685010  |grad|_K:  3.637e-05  alpha:  3.985e-01  linmin: -2.055e-04  t[s]:   2003.37
	FillingsUpdate:  mu: +0.094646658  nElectrons: 355.000000  magneticMoment: [ Abs: 14.23668  Tot: +0.00000 ]
	SubspaceRotationAdjust: set factor to 0.0743
ElecMinimize: Iter:  17  F: -2147.547380250344759  |grad|_K:  3.893e-05  alpha:  4.321e-01  linmin: -1.781e-04  t[s]:   2075.24
	FillingsUpdate:  mu: +0.105486262  nElectrons: 355.000000  magneticMoment: [ Abs: 14.97618  Tot: -0.00000 ]
	SubspaceRotationAdjust: set factor to 0.0867
ElecMinimize: Iter:  18  F: -2147.684479183005351  |grad|_K:  4.459e-05  alpha:  4.748e-01  linmin: -1.585e-04  t[s]:   2151.09
	FillingsUpdate:  mu: +0.095012595  nElectrons: 355.000000  magneticMoment: [ Abs: 16.21428  Tot: -0.00000 ]
	SubspaceRotationAdjust: set factor to 0.0999
ElecMinimize: Iter:  19  F: -2147.881582026910110  |grad|_K:  5.399e-05  alpha:  5.035e-01  linmin: -1.582e-04  t[s]:   2225.01
	FillingsUpdate:  mu: +0.101520143  nElectrons: 355.000000  magneticMoment: [ Abs: 18.25764  Tot: -0.00000 ]
	SubspaceRotationAdjust: set factor to 0.113
ElecMinimize: Iter:  20  F: -2148.145570772008341  |grad|_K:  6.666e-05  alpha:  4.123e-01  linmin: -6.227e-05  t[s]:   2301.05
ElecMinimize: 	Step increased F by 2.535695e-02, reducing alpha to 2.139061e-03.
ElecMinimize: 	Step increased F by 5.722451e-02, reducing alpha to 2.139061e-04.
ElecMinimize: 	Step increased F by 6.058650e-02, reducing alpha to 2.139061e-05.
ElecMinimize: 	Step failed to reduce F after 3 attempts. Quitting step.
ElecMinimize: 	Undoing step.
ElecMinimize: 	Step failed: resetting search direction.
	FillingsUpdate:  mu: +0.097596365  nElectrons: 355.000000  magneticMoment: [ Abs: 18.25609  Tot: +0.00000 ]
	SubspaceRotationAdjust: set factor to 0.144
ElecMinimize: Iter:  21  F: -2148.084946750411746  |grad|_K:  6.808e-05  alpha:  2.139e-05
	FillingsUpdate:  mu: +0.081211024  nElectrons: 355.000000  magneticMoment: [ Abs: 18.00058  Tot: +0.00000 ]
	SubspaceRotationAdjust: set factor to 0.131
ElecMinimize: Iter:  22  F: -2148.312792795371934  |grad|_K:  5.874e-05  alpha:  2.868e-01  linmin: -3.843e-04  t[s]:   2589.47
	FillingsUpdate:  mu: +0.077168510  nElectrons: 355.000000  magneticMoment: [ Abs: 18.31242  Tot: +0.00000 ]
	SubspaceRotationAdjust: set factor to 0.0935
ElecMinimize: Iter:  23  F: -2148.428735885037440  |grad|_K:  4.866e-05  alpha:  1.884e-01  linmin: -1.633e-04  t[s]:   2669.67
	FillingsUpdate:  mu: +0.081999690  nElectrons: 355.000000  magneticMoment: [ Abs: 18.67920  Tot: -0.00000 ]
	SubspaceRotationAdjust: set factor to 0.103
ElecMinimize: Iter:  24  F: -2148.553114302112590  |grad|_K:  3.640e-05  alpha:  2.928e-01  linmin: -2.970e-04  t[s]:   2746.83
	FillingsUpdate:  mu: +0.087498569  nElectrons: 355.000000  magneticMoment: [ Abs: 19.31115  Tot: +0.00000 ]
	SubspaceRotationAdjust: set factor to 0.12
ElecMinimize: Iter:  25  F: -2148.654257750697980  |grad|_K:  4.232e-05  alpha:  4.160e-01  linmin: -4.024e-05  t[s]:   2823.87
	FillingsUpdate:  mu: +0.080839566  nElectrons: 355.000000  magneticMoment: [ Abs: 20.43098  Tot: -0.00000 ]
	SubspaceRotationAdjust: set factor to 0.126
ElecMinimize: Iter:  26  F: -2148.782831137824815  |grad|_K:  4.114e-05  alpha:  4.073e-01  linmin: -1.290e-04  t[s]:   2904.75
	FillingsUpdate:  mu: +0.108071068  nElectrons: 355.000000  magneticMoment: [ Abs: 21.10220  Tot: -0.00000 ]
	SubspaceRotationAdjust: set factor to 0.101
ElecMinimize: Iter:  27  F: -2148.868419918129348  |grad|_K:  4.875e-05  alpha:  2.520e-01  linmin: -3.792e-05  t[s]:   2983.22
	FillingsUpdate:  mu: +0.079710228  nElectrons: 355.000000  magneticMoment: [ Abs: 22.09286  Tot: -0.00000 ]
	SubspaceRotationAdjust: set factor to 0.151
ElecMinimize: Iter:  28  F: -2148.963903182473132  |grad|_K:  4.720e-05  alpha:  2.271e-01  linmin: -2.060e-05  t[s]:   3061.65
	FillingsUpdate:  mu: +0.087650697  nElectrons: 355.000000  magneticMoment: [ Abs: 22.77113  Tot: +0.00000 ]
	SubspaceRotationAdjust: set factor to 0.127
ElecMinimize: Iter:  29  F: -2149.023093891883491  |grad|_K:  5.987e-05  alpha:  1.411e-01  linmin:  2.856e-05  t[s]:   3141.70
	FillingsUpdate:  mu: +0.120283733  nElectrons: 355.000000  magneticMoment: [ Abs: 24.13483  Tot: +0.00000 ]
	SubspaceRotationAdjust: set factor to 0.0904
ElecMinimize: Iter:  30  F: -2149.110463042392439  |grad|_K:  6.941e-05  alpha:  1.426e-01  linmin:  1.160e-04  t[s]:   3220.09
	FillingsUpdate:  mu: +0.119301065  nElectrons: 355.000000  magneticMoment: [ Abs: 24.17367  Tot: +0.00000 ]
	SubspaceRotationAdjust: set factor to 0.073
ElecMinimize: Iter:  31  F: -2149.112719996870965  |grad|_K:  6.131e-05  alpha:  2.921e-03  linmin: -1.473e-03  t[s]:   3300.16
ElecMinimize: 	Predicted alpha/alphaT>3.000000, increasing alphaT to 8.763136e-03.
ElecMinimize: 	Predicted alpha/alphaT>3.000000, increasing alphaT to 2.628941e-02.
	FillingsUpdate:  mu: +0.100165423  nElectrons: 355.000000  magneticMoment: [ Abs: 24.97376  Tot: -0.00000 ]
	SubspaceRotationAdjust: set factor to 0.063
ElecMinimize: Iter:  32  F: -2149.191287669520079  |grad|_K:  3.835e-05  alpha:  7.147e-02  linmin:  1.418e-03  t[s]:   3441.59
	FillingsUpdate:  mu: +0.103171936  nElectrons: 355.000000  magneticMoment: [ Abs: 25.02340  Tot: +0.00000 ]
	SubspaceRotationAdjust: set factor to 0.0867
ElecMinimize: Iter:  33  F: -2149.192382460514182  |grad|_K:  3.779e-05  alpha:  1.118e-02  linmin: -1.175e-04  t[s]:   3519.17
ElecMinimize: 	Predicted alpha/alphaT>3.000000, increasing alphaT to 3.355417e-02.
	FillingsUpdate:  mu: +0.114220734  nElectrons: 355.000000  magneticMoment: [ Abs: 25.18529  Tot: -0.00000 ]
	SubspaceRotationAdjust: set factor to 0.0701
ElecMinimize: Iter:  34  F: -2149.202514159406746  |grad|_K:  4.046e-05  alpha:  3.920e-02  linmin:  1.751e-04  t[s]:   3627.19
	FillingsUpdate:  mu: +0.113335064  nElectrons: 355.000000  magneticMoment: [ Abs: 25.27561  Tot: -0.00000 ]
	SubspaceRotationAdjust: set factor to 0.0584
ElecMinimize: Iter:  35  F: -2149.208328514867389  |grad|_K:  3.514e-05  alpha:  2.054e-02  linmin: -9.079e-05  t[s]:   3703.42
	FillingsUpdate:  mu: +0.105707391  nElectrons: 355.000000  magneticMoment: [ Abs: 25.34046  Tot: +0.00000 ]
	SubspaceRotationAdjust: set factor to 0.0594
ElecMinimize: Iter:  36  F: -2149.213036441376516  |grad|_K:  2.888e-05  alpha:  2.125e-02  linmin:  1.015e-04  t[s]:   3780.56
	FillingsUpdate:  mu: +0.101123321  nElectrons: 355.000000  magneticMoment: [ Abs: 25.37730  Tot: -0.00000 ]
	SubspaceRotationAdjust: set factor to 0.0754
ElecMinimize: Iter:  37  F: -2149.215756174055969  |grad|_K:  2.543e-05  alpha:  1.929e-02  linmin:  4.156e-05  t[s]:   3858.44
	FillingsUpdate:  mu: +0.091952076  nElectrons: 355.000000  magneticMoment: [ Abs: 25.40285  Tot: +0.00000 ]
	SubspaceRotationAdjust: set factor to 0.104
ElecMinimize: Iter:  38  F: -2149.217799138929422  |grad|_K:  2.382e-05  alpha:  1.834e-02  linmin:  2.738e-05  t[s]:   3934.15
	FillingsUpdate:  mu: +0.089566579  nElectrons: 355.000000  magneticMoment: [ Abs: 25.42246  Tot: +0.00000 ]
	SubspaceRotationAdjust: set factor to 0.134
ElecMinimize: Iter:  39  F: -2149.219439298536599  |grad|_K:  2.359e-05  alpha:  1.671e-02  linmin:  1.025e-05  t[s]:   4010.72
	FillingsUpdate:  mu: +0.090935561  nElectrons: 355.000000  magneticMoment: [ Abs: 25.44053  Tot: +0.00000 ]
	SubspaceRotationAdjust: set factor to 0.138
ElecMinimize: Iter:  40  F: -2149.220944295362642  |grad|_K:  2.474e-05  alpha:  1.557e-02  linmin:  2.815e-06  t[s]:   4086.73
	FillingsUpdate:  mu: +0.090487165  nElectrons: 355.000000  magneticMoment: [ Abs: 25.46051  Tot: -0.00000 ]
	SubspaceRotationAdjust: set factor to 0.124
ElecMinimize: Iter:  41  F: -2149.222492346505533  |grad|_K:  2.559e-05  alpha:  1.453e-02  linmin:  4.970e-06  t[s]:   4164.87
	FillingsUpdate:  mu: +0.089811506  nElectrons: 355.000000  magneticMoment: [ Abs: 25.48345  Tot: +0.00000 ]
	SubspaceRotationAdjust: set factor to 0.108
ElecMinimize: Iter:  42  F: -2149.224066380550539  |grad|_K:  2.488e-05  alpha:  1.381e-02  linmin:  1.232e-05  t[s]:   4244.06
	FillingsUpdate:  mu: +0.088159387  nElectrons: 355.000000  magneticMoment: [ Abs: 25.50786  Tot: +0.00000 ]
	SubspaceRotationAdjust: set factor to 0.0997
ElecMinimize: Iter:  43  F: -2149.225533232851376  |grad|_K:  2.314e-05  alpha:  1.364e-02  linmin:  5.050e-06  t[s]:   4324.35
	FillingsUpdate:  mu: +0.085485638  nElectrons: 355.000000  magneticMoment: [ Abs: 25.53285  Tot: +0.00000 ]
	SubspaceRotationAdjust: set factor to 0.0998
ElecMinimize: Iter:  44  F: -2149.226845184369722  |grad|_K:  2.151e-05  alpha:  1.408e-02  linmin: -1.942e-05  t[s]:   4401.98
	FillingsUpdate:  mu: +0.082740589  nElectrons: 355.000000  magneticMoment: [ Abs: 25.55908  Tot: -0.00000 ]
	SubspaceRotationAdjust: set factor to 0.104
ElecMinimize: Iter:  45  F: -2149.228041300189034  |grad|_K:  2.053e-05  alpha:  1.480e-02  linmin: -4.746e-05  t[s]:   4480.43
	FillingsUpdate:  mu: +0.081754799  nElectrons: 355.000000  magneticMoment: [ Abs: 25.58839  Tot: -0.00000 ]
	SubspaceRotationAdjust: set factor to 0.104
ElecMinimize: Iter:  46  F: -2149.229190080714034  |grad|_K:  2.025e-05  alpha:  1.553e-02  linmin: -6.920e-05  t[s]:   4556.13
	FillingsUpdate:  mu: +0.081772557  nElectrons: 355.000000  magneticMoment: [ Abs: 25.62328  Tot: +0.00000 ]
	SubspaceRotationAdjust: set factor to 0.0947
ElecMinimize: Iter:  47  F: -2149.230367588862919  |grad|_K:  2.038e-05  alpha:  1.630e-02  linmin: -8.288e-05  t[s]:   4632.90
	FillingsUpdate:  mu: +0.083169884  nElectrons: 355.000000  magneticMoment: [ Abs: 25.66548  Tot: -0.00000 ]
	SubspaceRotationAdjust: set factor to 0.0807
ElecMinimize: Iter:  48  F: -2149.231626052143383  |grad|_K:  2.027e-05  alpha:  1.718e-02  linmin: -8.693e-05  t[s]:   4709.85
	FillingsUpdate:  mu: +0.084418955  nElectrons: 355.000000  magneticMoment: [ Abs: 25.71389  Tot: +0.00000 ]
	SubspaceRotationAdjust: set factor to 0.0671
ElecMinimize: Iter:  49  F: -2149.232942975918377  |grad|_K:  1.941e-05  alpha:  1.819e-02  linmin: -8.335e-05  t[s]:   4785.16
	FillingsUpdate:  mu: +0.084310097  nElectrons: 355.000000  magneticMoment: [ Abs: 25.76469  Tot: +0.00000 ]
	SubspaceRotationAdjust: set factor to 0.0573
ElecMinimize: Iter:  50  F: -2149.234231693654237  |grad|_K:  1.795e-05  alpha:  1.944e-02  linmin: -8.197e-05  t[s]:   4862.00
	FillingsUpdate:  mu: +0.083367971  nElectrons: 355.000000  magneticMoment: [ Abs: 25.81451  Tot: -0.00000 ]
	SubspaceRotationAdjust: set factor to 0.0518
ElecMinimize: Iter:  51  F: -2149.235422806456882  |grad|_K:  1.647e-05  alpha:  2.102e-02  linmin: -8.600e-05  t[s]:   4938.41
	FillingsUpdate:  mu: +0.081764975  nElectrons: 355.000000  magneticMoment: [ Abs: 25.86219  Tot: -0.00000 ]
	SubspaceRotationAdjust: set factor to 0.0495
ElecMinimize: Iter:  52  F: -2149.236503658194579  |grad|_K:  1.540e-05  alpha:  2.267e-02  linmin: -9.048e-05  t[s]:   5017.38
	FillingsUpdate:  mu: +0.079808123  nElectrons: 355.000000  magneticMoment: [ Abs: 25.90824  Tot: -0.00000 ]
	SubspaceRotationAdjust: set factor to 0.0481
ElecMinimize: Iter:  53  F: -2149.237500462096705  |grad|_K:  1.486e-05  alpha:  2.392e-02  linmin: -9.344e-05  t[s]:   5096.08
	FillingsUpdate:  mu: +0.079622667  nElectrons: 355.000000  magneticMoment: [ Abs: 25.95402  Tot: +0.00000 ]
	SubspaceRotationAdjust: set factor to 0.0456
ElecMinimize: Iter:  54  F: -2149.238454989469574  |grad|_K:  1.476e-05  alpha:  2.458e-02  linmin: -9.864e-05  t[s]:   5172.55
	FillingsUpdate:  mu: +0.080934500  nElectrons: 355.000000  magneticMoment: [ Abs: 26.00098  Tot: -0.00000 ]
	SubspaceRotationAdjust: set factor to 0.0416
ElecMinimize: Iter:  55  F: -2149.239410453692017  |grad|_K:  1.489e-05  alpha:  2.493e-02  linmin: -1.109e-04  t[s]:   5249.26
	FillingsUpdate:  mu: +0.082266594  nElectrons: 355.000000  magneticMoment: [ Abs: 26.05013  Tot: -0.00000 ]
	SubspaceRotationAdjust: set factor to 0.0372
ElecMinimize: Iter:  56  F: -2149.240401101397310  |grad|_K:  1.502e-05  alpha:  2.537e-02  linmin: -1.330e-04  t[s]:   5327.27
	FillingsUpdate:  mu: +0.082260860  nElectrons: 355.000000  magneticMoment: [ Abs: 26.10187  Tot: -0.00000 ]
	SubspaceRotationAdjust: set factor to 0.0338
ElecMinimize: Iter:  57  F: -2149.241446449940213  |grad|_K:  1.507e-05  alpha:  2.620e-02  linmin: -1.638e-04  t[s]:   5405.46
	FillingsUpdate:  mu: +0.081458745  nElectrons: 355.000000  magneticMoment: [ Abs: 26.15604  Tot: -0.00000 ]
	SubspaceRotationAdjust: set factor to 0.0324
ElecMinimize: Iter:  58  F: -2149.242551538473890  |grad|_K:  1.504e-05  alpha:  2.740e-02  linmin: -1.976e-04  t[s]:   5483.74
	FillingsUpdate:  mu: +0.080265865  nElectrons: 355.000000  magneticMoment: [ Abs: 26.21214  Tot: +0.00000 ]
	SubspaceRotationAdjust: set factor to 0.0337
ElecMinimize: Iter:  59  F: -2149.243709159620266  |grad|_K:  1.505e-05  alpha:  2.863e-02  linmin: -2.259e-04  t[s]:   5560.91
	FillingsUpdate:  mu: +0.078011829  nElectrons: 355.000000  magneticMoment: [ Abs: 26.26958  Tot: -0.00000 ]
	SubspaceRotationAdjust: set factor to 0.0384
ElecMinimize: Iter:  60  F: -2149.244903778336720  |grad|_K:  1.521e-05  alpha:  2.937e-02  linmin: -2.416e-04  t[s]:   5637.61
	FillingsUpdate:  mu: +0.074878751  nElectrons: 355.000000  magneticMoment: [ Abs: 26.32834  Tot: +0.00000 ]
	SubspaceRotationAdjust: set factor to 0.0475
ElecMinimize: Iter:  61  F: -2149.246122446703794  |grad|_K:  1.565e-05  alpha:  2.925e-02  linmin: -2.428e-04  t[s]:   5715.36
	FillingsUpdate:  mu: +0.072483462  nElectrons: 355.000000  magneticMoment: [ Abs: 26.38953  Tot: +0.00000 ]
	SubspaceRotationAdjust: set factor to 0.0607
ElecMinimize: Iter:  62  F: -2149.247372086567339  |grad|_K:  1.654e-05  alpha:  2.829e-02  linmin: -2.331e-04  t[s]:   5794.42
	FillingsUpdate:  mu: +0.074016236  nElectrons: 355.000000  magneticMoment: [ Abs: 26.45605  Tot: -0.00000 ]
	SubspaceRotationAdjust: set factor to 0.0748
ElecMinimize: Iter:  63  F: -2149.248693685145554  |grad|_K:  1.806e-05  alpha:  2.676e-02  linmin: -2.189e-04  t[s]:   5874.39
	FillingsUpdate:  mu: +0.077344541  nElectrons: 355.000000  magneticMoment: [ Abs: 26.53239  Tot: -0.00000 ]
	SubspaceRotationAdjust: set factor to 0.0851
ElecMinimize: Iter:  64  F: -2149.250160757346293  |grad|_K:  2.016e-05  alpha:  2.489e-02  linmin: -2.048e-04  t[s]:   5952.28
	FillingsUpdate:  mu: +0.078959047  nElectrons: 355.000000  magneticMoment: [ Abs: 26.62229  Tot: -0.00000 ]
	SubspaceRotationAdjust: set factor to 0.092
ElecMinimize: Iter:  65  F: -2149.251834859526753  |grad|_K:  2.237e-05  alpha:  2.273e-02  linmin: -1.901e-04  t[s]:   6030.02
	FillingsUpdate:  mu: +0.080832981  nElectrons: 355.000000  magneticMoment: [ Abs: 26.72464  Tot: +0.00000 ]
	SubspaceRotationAdjust: set factor to 0.0999
ElecMinimize: Iter:  66  F: -2149.253685692678118  |grad|_K:  2.403e-05  alpha:  2.038e-02  linmin: -1.753e-04  t[s]:   6108.37
	FillingsUpdate:  mu: +0.081296457  nElectrons: 355.000000  magneticMoment: [ Abs: 26.83317  Tot: +0.00000 ]
	SubspaceRotationAdjust: set factor to 0.114
ElecMinimize: Iter:  67  F: -2149.255607980566310  |grad|_K:  2.500e-05  alpha:  1.835e-02  linmin: -1.672e-04  t[s]:   6188.79
	FillingsUpdate:  mu: +0.080452107  nElectrons: 355.000000  magneticMoment: [ Abs: 26.94398  Tot: +0.00000 ]
	SubspaceRotationAdjust: set factor to 0.136
ElecMinimize: Iter:  68  F: -2149.257540221063664  |grad|_K:  2.558e-05  alpha:  1.704e-02  linmin: -1.699e-04  t[s]:   6264.67
	FillingsUpdate:  mu: +0.079254887  nElectrons: 355.000000  magneticMoment: [ Abs: 27.05692  Tot: -0.00000 ]
	SubspaceRotationAdjust: set factor to 0.169
ElecMinimize: Iter:  69  F: -2149.259494775606981  |grad|_K:  2.613e-05  alpha:  1.642e-02  linmin: -1.756e-04  t[s]:   6341.70
	FillingsUpdate:  mu: +0.078348652  nElectrons: 355.000000  magneticMoment: [ Abs: 27.17244  Tot: +0.00000 ]
	SubspaceRotationAdjust: set factor to 0.209
ElecMinimize: Iter:  70  F: -2149.261509369723171  |grad|_K:  2.698e-05  alpha:  1.616e-02  linmin: -1.687e-04  t[s]:   6419.48
	FillingsUpdate:  mu: +0.078029151  nElectrons: 355.000000  magneticMoment: [ Abs: 27.28963  Tot: +0.00000 ]
	SubspaceRotationAdjust: set factor to 0.243
ElecMinimize: Iter:  71  F: -2149.263609672026632  |grad|_K:  2.841e-05  alpha:  1.580e-02  linmin: -1.414e-04  t[s]:   6498.32
	FillingsUpdate:  mu: +0.080504925  nElectrons: 355.000000  magneticMoment: [ Abs: 27.40432  Tot: +0.00000 ]
	SubspaceRotationAdjust: set factor to 0.266
ElecMinimize: Iter:  72  F: -2149.265782250860866  |grad|_K:  3.012e-05  alpha:  1.482e-02  linmin: -1.040e-04  t[s]:   6575.08
	FillingsUpdate:  mu: +0.080264764  nElectrons: 355.000000  magneticMoment: [ Abs: 27.50977  Tot: -0.00000 ]
	SubspaceRotationAdjust: set factor to 0.287
ElecMinimize: Iter:  73  F: -2149.267942683323781  |grad|_K:  3.140e-05  alpha:  1.321e-02  linmin: -7.235e-05  t[s]:   6652.80
	FillingsUpdate:  mu: +0.079234202  nElectrons: 355.000000  magneticMoment: [ Abs: 27.60222  Tot: +0.00000 ]
	SubspaceRotationAdjust: set factor to 0.31
ElecMinimize: Iter:  74  F: -2149.269991344058326  |grad|_K:  3.228e-05  alpha:  1.161e-02  linmin: -4.870e-05  t[s]:   6730.39
	FillingsUpdate:  mu: +0.078656727  nElectrons: 355.000000  magneticMoment: [ Abs: 27.68561  Tot: +0.00000 ]
	SubspaceRotationAdjust: set factor to 0.325
ElecMinimize: Iter:  75  F: -2149.271920778840922  |grad|_K:  3.353e-05  alpha:  1.043e-02  linmin: -3.251e-05  t[s]:   6808.42
	FillingsUpdate:  mu: +0.078435485  nElectrons: 355.000000  magneticMoment: [ Abs: 27.76947  Tot: +0.00000 ]
	SubspaceRotationAdjust: set factor to 0.313
ElecMinimize: Iter:  76  F: -2149.273845266026456  |grad|_K:  3.554e-05  alpha:  9.701e-03  linmin: -2.627e-05  t[s]:   6887.06
	FillingsUpdate:  mu: +0.080422519  nElectrons: 355.000000  magneticMoment: [ Abs: 27.86449  Tot: +0.00000 ]
	SubspaceRotationAdjust: set factor to 0.282
ElecMinimize: Iter:  77  F: -2149.275935703459254  |grad|_K:  3.759e-05  alpha:  9.404e-03  linmin: -3.017e-05  t[s]:   6965.59
	FillingsUpdate:  mu: +0.080921768  nElectrons: 355.000000  magneticMoment: [ Abs: 27.97738  Tot: +0.00000 ]
	SubspaceRotationAdjust: set factor to 0.251
ElecMinimize: Iter:  78  F: -2149.278318149349616  |grad|_K:  3.842e-05  alpha:  9.564e-03  linmin: -4.362e-05  t[s]:   7046.74
	FillingsUpdate:  mu: +0.081356491  nElectrons: 355.000000  magneticMoment: [ Abs: 28.10803  Tot: -0.00000 ]
	SubspaceRotationAdjust: set factor to 0.239
ElecMinimize: Iter:  79  F: -2149.281009429106689  |grad|_K:  3.759e-05  alpha:  1.026e-02  linmin: -6.007e-05  t[s]:   7127.88
	FillingsUpdate:  mu: +0.081403532  nElectrons: 355.000000  magneticMoment: [ Abs: 28.25002  Tot: -0.00000 ]
	SubspaceRotationAdjust: set factor to 0.259
ElecMinimize: Iter:  80  F: -2149.283894031384079  |grad|_K:  3.589e-05  alpha:  1.139e-02  linmin: -6.571e-05  t[s]:   7201.50
	FillingsUpdate:  mu: +0.079694045  nElectrons: 355.000000  magneticMoment: [ Abs: 28.39666  Tot: -0.00000 ]
	SubspaceRotationAdjust: set factor to 0.325
ElecMinimize: Iter:  81  F: -2149.286800348352244  |grad|_K:  3.462e-05  alpha:  1.254e-02  linmin: -6.018e-05  t[s]:   7281.53
	FillingsUpdate:  mu: +0.080614008  nElectrons: 355.000000  magneticMoment: [ Abs: 28.54775  Tot: +0.00000 ]
	SubspaceRotationAdjust: set factor to 0.438
ElecMinimize: Iter:  82  F: -2149.289675634749983  |grad|_K:  3.441e-05  alpha:  1.338e-02  linmin: -5.108e-05  t[s]:   7360.65
	FillingsUpdate:  mu: +0.083322396  nElectrons: 355.000000  magneticMoment: [ Abs: 28.70736  Tot: -0.00000 ]
	SubspaceRotationAdjust: set factor to 0.579
ElecMinimize: Iter:  83  F: -2149.292551000282401  |grad|_K:  3.484e-05  alpha:  1.361e-02  linmin: -3.611e-05  t[s]:   7440.17
	FillingsUpdate:  mu: +0.085158380  nElectrons: 355.000000  magneticMoment: [ Abs: 28.87224  Tot: +0.00000 ]
	SubspaceRotationAdjust: set factor to 0.756
ElecMinimize: Iter:  84  F: -2149.295371915018677  |grad|_K:  3.563e-05  alpha:  1.313e-02  linmin: -1.936e-05  t[s]:   7519.81
	FillingsUpdate:  mu: +0.090357746  nElectrons: 355.000000  magneticMoment: [ Abs: 29.04722  Tot: +0.00000 ]
	SubspaceRotationAdjust: set factor to 0.772
ElecMinimize: Iter:  85  F: -2149.298326826818084  |grad|_K:  3.958e-05  alpha:  1.324e-02  linmin: -2.036e-05  t[s]:   7597.49
	FillingsUpdate:  mu: +0.095434362  nElectrons: 355.000000  magneticMoment: [ Abs: 29.25731  Tot: +0.00000 ]
	SubspaceRotationAdjust: set factor to 0.699
ElecMinimize: Iter:  86  F: -2149.302088295038175  |grad|_K:  4.280e-05  alpha:  1.364e-02  linmin: -2.290e-05  t[s]:   7676.31
	FillingsUpdate:  mu: +0.094700683  nElectrons: 355.000000  magneticMoment: [ Abs: 29.47038  Tot: -0.00000 ]
	SubspaceRotationAdjust: set factor to 0.73
ElecMinimize: Iter:  87  F: -2149.306331099625368  |grad|_K:  4.020e-05  alpha:  1.316e-02  linmin: -4.542e-06  t[s]:   7753.50
	FillingsUpdate:  mu: +0.089310267  nElectrons: 355.000000  magneticMoment: [ Abs: 29.64078  Tot: +0.00000 ]
	SubspaceRotationAdjust: set factor to 0.85
	SubspaceRotationAdjust: resetting CG because factor has changed by 7.79357
ElecMinimize: 	State modified externally: resetting search direction.
ElecMinimize: Iter:  88  F: -2149.310287675455129  |grad|_K:  4.009e-05  alpha:  1.401e-02
ElecMinimize: 	Predicted alpha/alphaT>3.000000, increasing alphaT to 4.203951e-02.
	FillingsUpdate:  mu: +0.090747312  nElectrons: 355.000000  magneticMoment: [ Abs: 29.54201  Tot: -0.00000 ]
	SubspaceRotationAdjust: set factor to 0.483
ElecMinimize: Iter:  89  F: -2149.328650810227828  |grad|_K:  6.856e-05  alpha:  7.169e-02  linmin:  5.035e-03  t[s]:   7954.18
	FillingsUpdate:  mu: +0.072699710  nElectrons: 355.000000  magneticMoment: [ Abs: 29.53738  Tot: +0.00000 ]
	SubspaceRotationAdjust: set factor to 0.289
ElecMinimize: Iter:  90  F: -2149.347046733631487  |grad|_K:  5.269e-05  alpha:  2.952e-02  linmin:  1.536e-03  t[s]:   8032.09
	FillingsUpdate:  mu: +0.100152405  nElectrons: 355.000000  magneticMoment: [ Abs: 29.81505  Tot: -0.00000 ]
	SubspaceRotationAdjust: set factor to 0.181
ElecMinimize: Iter:  91  F: -2149.382083404219884  |grad|_K:  5.231e-05  alpha:  7.374e-02  linmin: -1.554e-03  t[s]:   8110.93
	FillingsUpdate:  mu: +0.107270058  nElectrons: 355.000000  magneticMoment: [ Abs: 30.04111  Tot: -0.00000 ]
	SubspaceRotationAdjust: set factor to 0.128
ElecMinimize: Iter:  92  F: -2149.416411173846427  |grad|_K:  3.249e-05  alpha:  6.635e-02  linmin: -9.707e-05  t[s]:   8187.82
ElecMinimize: 	Predicted alpha/alphaT>3.000000, increasing alphaT to 1.990546e-01.
	FillingsUpdate:  mu: +0.100308305  nElectrons: 355.000000  magneticMoment: [ Abs: 30.07160  Tot: -0.00000 ]
	SubspaceRotationAdjust: set factor to 0.105
	SubspaceRotationAdjust: resetting CG because factor has changed by 0.123766
ElecMinimize: 	State modified externally: resetting search direction.
ElecMinimize: Iter:  93  F: -2149.461730401143086  |grad|_K:  2.901e-05  alpha:  2.434e-01
	FillingsUpdate:  mu: +0.087817001  nElectrons: 355.000000  magneticMoment: [ Abs: 30.02023  Tot: +0.00000 ]
	SubspaceRotationAdjust: set factor to 0.0679
ElecMinimize: Iter:  94  F: -2149.479698362503768  |grad|_K:  1.610e-05  alpha:  1.262e-01  linmin:  2.972e-03  t[s]:   8389.68
	FillingsUpdate:  mu: +0.087048214  nElectrons: 355.000000  magneticMoment: [ Abs: 30.00729  Tot: +0.00000 ]
	SubspaceRotationAdjust: set factor to 0.0588
ElecMinimize: Iter:  95  F: -2149.493296667561935  |grad|_K:  1.154e-05  alpha:  3.072e-01  linmin:  3.265e-04  t[s]:   8463.39
	FillingsUpdate:  mu: +0.085756297  nElectrons: 355.000000  magneticMoment: [ Abs: 29.98664  Tot: +0.00000 ]
	SubspaceRotationAdjust: set factor to 0.0638
ElecMinimize: Iter:  96  F: -2149.501678530284607  |grad|_K:  1.092e-05  alpha:  3.626e-01  linmin:  5.900e-05  t[s]:   8542.22
	FillingsUpdate:  mu: +0.086189800  nElectrons: 355.000000  magneticMoment: [ Abs: 29.98651  Tot: +0.00000 ]
	SubspaceRotationAdjust: set factor to 0.0667
ElecMinimize: Iter:  97  F: -2149.509415925643680  |grad|_K:  9.337e-06  alpha:  3.727e-01  linmin:  7.716e-05  t[s]:   8619.31
	FillingsUpdate:  mu: +0.086549639  nElectrons: 355.000000  magneticMoment: [ Abs: 30.04328  Tot: +0.00000 ]
	SubspaceRotationAdjust: set factor to 0.067
ElecMinimize: Iter:  98  F: -2149.514853426706395  |grad|_K:  7.180e-06  alpha:  3.587e-01  linmin:  5.003e-05  t[s]:   8695.24
	FillingsUpdate:  mu: +0.087092280  nElectrons: 355.000000  magneticMoment: [ Abs: 30.09759  Tot: +0.00000 ]
	SubspaceRotationAdjust: set factor to 0.0763
ElecMinimize: Iter:  99  F: -2149.518021308451807  |grad|_K:  5.600e-06  alpha:  3.532e-01  linmin:  3.528e-05  t[s]:   8771.28
	FillingsUpdate:  mu: +0.087107026  nElectrons: 355.000000  magneticMoment: [ Abs: 30.16796  Tot: -0.00000 ]
	SubspaceRotationAdjust: set factor to 0.0954
ElecMinimize: Iter: 100  F: -2149.519974076391009  |grad|_K:  4.930e-06  alpha:  3.579e-01  linmin:  4.345e-06  t[s]:   8848.82
	FillingsUpdate:  mu: +0.087267603  nElectrons: 355.000000  magneticMoment: [ Abs: 30.26839  Tot: -0.00000 ]
	SubspaceRotationAdjust: set factor to 0.108
ElecMinimize: Iter: 101  F: -2149.521827078317529  |grad|_K:  5.281e-06  alpha:  4.370e-01  linmin: -1.879e-04  t[s]:   8924.79
	FillingsUpdate:  mu: +0.088878554  nElectrons: 355.000000  magneticMoment: [ Abs: 30.37632  Tot: -0.00000 ]
	SubspaceRotationAdjust: set factor to 0.105
ElecMinimize: Iter: 102  F: -2149.523869289718277  |grad|_K:  6.294e-06  alpha:  4.172e-01  linmin:  6.835e-05  t[s]:   9003.98
	FillingsUpdate:  mu: +0.090368926  nElectrons: 355.000000  magneticMoment: [ Abs: 30.49772  Tot: -0.00000 ]
	SubspaceRotationAdjust: set factor to 0.0937
ElecMinimize: Iter: 103  F: -2149.526147073090669  |grad|_K:  5.982e-06  alpha:  3.304e-01  linmin: -2.467e-05  t[s]:   9084.24
	FillingsUpdate:  mu: +0.091809853  nElectrons: 355.000000  magneticMoment: [ Abs: 30.58515  Tot: -0.00000 ]
	SubspaceRotationAdjust: set factor to 0.104
ElecMinimize: Iter: 104  F: -2149.528417285705473  |grad|_K:  5.550e-06  alpha:  3.634e-01  linmin: -9.397e-05  t[s]:   9160.20
	FillingsUpdate:  mu: +0.092031454  nElectrons: 355.000000  magneticMoment: [ Abs: 30.65051  Tot: -0.00000 ]
	SubspaceRotationAdjust: set factor to 0.117
ElecMinimize: Iter: 105  F: -2149.530559349023861  |grad|_K:  5.590e-06  alpha:  3.964e-01  linmin: -9.155e-07  t[s]:   9238.64
	FillingsUpdate:  mu: +0.090480234  nElectrons: 355.000000  magneticMoment: [ Abs: 30.69476  Tot: -0.00000 ]
	SubspaceRotationAdjust: set factor to 0.129
ElecMinimize: Iter: 106  F: -2149.532584228131782  |grad|_K:  5.661e-06  alpha:  3.713e-01  linmin:  1.713e-04  t[s]:   9315.77
	FillingsUpdate:  mu: +0.089900281  nElectrons: 355.000000  magneticMoment: [ Abs: 30.70020  Tot: +0.00000 ]
	SubspaceRotationAdjust: set factor to 0.114
ElecMinimize: Iter: 107  F: -2149.534136305327138  |grad|_K:  5.553e-06  alpha:  2.871e-01  linmin: -1.402e-04  t[s]:   9393.96
	FillingsUpdate:  mu: +0.089468962  nElectrons: 355.000000  magneticMoment: [ Abs: 30.70152  Tot: -0.00000 ]
	SubspaceRotationAdjust: set factor to 0.095
ElecMinimize: Iter: 108  F: -2149.535449039883588  |grad|_K:  4.863e-06  alpha:  2.398e-01  linmin:  1.519e-04  t[s]:   9475.96
	FillingsUpdate:  mu: +0.089627982  nElectrons: 355.000000  magneticMoment: [ Abs: 30.68077  Tot: -0.00000 ]
	SubspaceRotationAdjust: set factor to 0.108
ElecMinimize: Iter: 109  F: -2149.536874888810416  |grad|_K:  4.042e-06  alpha:  3.470e-01  linmin: -3.323e-04  t[s]:   9555.59
	FillingsUpdate:  mu: +0.090427992  nElectrons: 355.000000  magneticMoment: [ Abs: 30.66393  Tot: -0.00000 ]
	SubspaceRotationAdjust: set factor to 0.121
ElecMinimize: Iter: 110  F: -2149.537912364956810  |grad|_K:  3.685e-06  alpha:  3.556e-01  linmin: -6.356e-05  t[s]:   9633.71
	FillingsUpdate:  mu: +0.090417458  nElectrons: 355.000000  magneticMoment: [ Abs: 30.65283  Tot: +0.00000 ]
	SubspaceRotationAdjust: set factor to 0.124
ElecMinimize: Iter: 111  F: -2149.538696771647665  |grad|_K:  3.643e-06  alpha:  3.299e-01  linmin:  1.230e-04  t[s]:   9712.44
	FillingsUpdate:  mu: +0.091390257  nElectrons: 355.000000  magneticMoment: [ Abs: 30.63510  Tot: +0.00000 ]
	SubspaceRotationAdjust: set factor to 0.111
ElecMinimize: Iter: 112  F: -2149.539336138318504  |grad|_K:  3.429e-06  alpha:  2.809e-01  linmin: -2.083e-04  t[s]:   9790.21
	FillingsUpdate:  mu: +0.090718328  nElectrons: 355.000000  magneticMoment: [ Abs: 30.62710  Tot: -0.00000 ]
	SubspaceRotationAdjust: set factor to 0.107
ElecMinimize: Iter: 113  F: -2149.539957410312127  |grad|_K:  3.161e-06  alpha:  2.998e-01  linmin:  1.836e-04  t[s]:   9867.35
	FillingsUpdate:  mu: +0.090586747  nElectrons: 355.000000  magneticMoment: [ Abs: 30.61591  Tot: -0.00000 ]
	SubspaceRotationAdjust: set factor to 0.125
ElecMinimize: Iter: 114  F: -2149.540554143859936  |grad|_K:  2.916e-06  alpha:  3.470e-01  linmin: -6.105e-05  t[s]:   9945.66
	FillingsUpdate:  mu: +0.090890699  nElectrons: 355.000000  magneticMoment: [ Abs: 30.60582  Tot: -0.00000 ]
	SubspaceRotationAdjust: set factor to 0.142
ElecMinimize: Iter: 115  F: -2149.541150217422910  |grad|_K:  2.999e-06  alpha:  4.006e-01  linmin: -4.402e-05  t[s]:  10022.97
	FillingsUpdate:  mu: +0.091241202  nElectrons: 355.000000  magneticMoment: [ Abs: 30.59872  Tot: +0.00000 ]
	SubspaceRotationAdjust: set factor to 0.144
ElecMinimize: Iter: 116  F: -2149.541719163722064  |grad|_K:  3.353e-06  alpha:  3.630e-01  linmin: -9.225e-05  t[s]:  10101.15
	FillingsUpdate:  mu: +0.091936491  nElectrons: 355.000000  magneticMoment: [ Abs: 30.58229  Tot: +0.00000 ]
	SubspaceRotationAdjust: set factor to 0.131
ElecMinimize: Iter: 117  F: -2149.542283889138616  |grad|_K:  3.407e-06  alpha:  2.884e-01  linmin: -7.489e-05  t[s]:  10176.44
	FillingsUpdate:  mu: +0.092068808  nElectrons: 355.000000  magneticMoment: [ Abs: 30.56444  Tot: -0.00000 ]
	SubspaceRotationAdjust: set factor to 0.143
ElecMinimize: Iter: 118  F: -2149.542977124337540  |grad|_K:  3.289e-06  alpha:  3.397e-01  linmin: -1.098e-04  t[s]:  10254.51
	FillingsUpdate:  mu: +0.092579717  nElectrons: 355.000000  magneticMoment: [ Abs: 30.54204  Tot: -0.00000 ]
	SubspaceRotationAdjust: set factor to 0.164
ElecMinimize: Iter: 119  F: -2149.543703860242658  |grad|_K:  3.366e-06  alpha:  3.817e-01  linmin:  3.682e-05  t[s]:  10332.32
	FillingsUpdate:  mu: +0.092759595  nElectrons: 355.000000  magneticMoment: [ Abs: 30.52008  Tot: +0.00000 ]
	SubspaceRotationAdjust: set factor to 0.182
ElecMinimize: Iter: 120  F: -2149.544415924618079  |grad|_K:  3.418e-06  alpha:  3.626e-01  linmin: -4.021e-05  t[s]:  10409.27
	FillingsUpdate:  mu: +0.093443944  nElectrons: 355.000000  magneticMoment: [ Abs: 30.50439  Tot: +0.00000 ]
	SubspaceRotationAdjust: set factor to 0.202
ElecMinimize: Iter: 121  F: -2149.545157225479670  |grad|_K:  3.442e-06  alpha:  3.629e-01  linmin: -6.320e-05  t[s]:  10486.40
	FillingsUpdate:  mu: +0.093970227  nElectrons: 355.000000  magneticMoment: [ Abs: 30.48231  Tot: +0.00000 ]
	SubspaceRotationAdjust: set factor to 0.241
ElecMinimize: Iter: 122  F: -2149.545901379228781  |grad|_K:  3.435e-06  alpha:  3.585e-01  linmin: -6.655e-05  t[s]:  10563.93
	FillingsUpdate:  mu: +0.093754144  nElectrons: 355.000000  magneticMoment: [ Abs: 30.45569  Tot: +0.00000 ]
	SubspaceRotationAdjust: set factor to 0.285
ElecMinimize: Iter: 123  F: -2149.546641450524021  |grad|_K:  3.372e-06  alpha:  3.578e-01  linmin: -9.484e-05  t[s]:  10643.07
	FillingsUpdate:  mu: +0.093546015  nElectrons: 355.000000  magneticMoment: [ Abs: 30.43264  Tot: -0.00000 ]
	SubspaceRotationAdjust: set factor to 0.327
ElecMinimize: Iter: 124  F: -2149.547362052021072  |grad|_K:  3.589e-06  alpha:  3.609e-01  linmin:  7.778e-05  t[s]:  10718.77
	FillingsUpdate:  mu: +0.093572358  nElectrons: 355.000000  magneticMoment: [ Abs: 30.40254  Tot: -0.00000 ]
	SubspaceRotationAdjust: set factor to 0.368
ElecMinimize: Iter: 125  F: -2149.548105074989508  |grad|_K:  3.637e-06  alpha:  3.344e-01  linmin: -6.234e-05  t[s]:  10796.53
	FillingsUpdate:  mu: +0.093668782  nElectrons: 355.000000  magneticMoment: [ Abs: 30.38251  Tot: +0.00000 ]
	SubspaceRotationAdjust: set factor to 0.415
ElecMinimize: Iter: 126  F: -2149.548823538309080  |grad|_K:  3.648e-06  alpha:  3.092e-01  linmin:  6.066e-05  t[s]:  10875.82
	FillingsUpdate:  mu: +0.093685616  nElectrons: 355.000000  magneticMoment: [ Abs: 30.34915  Tot: -0.00000 ]
	SubspaceRotationAdjust: set factor to 0.478
ElecMinimize: Iter: 127  F: -2149.549542668948561  |grad|_K:  3.530e-06  alpha:  3.127e-01  linmin: -5.420e-05  t[s]:  10954.32
	FillingsUpdate:  mu: +0.094012281  nElectrons: 355.000000  magneticMoment: [ Abs: 30.34223  Tot: -0.00000 ]
	SubspaceRotationAdjust: set factor to 0.526
ElecMinimize: Iter: 128  F: -2149.550177239035747  |grad|_K:  3.691e-06  alpha:  2.894e-01  linmin:  1.126e-04  t[s]:  11030.22
	FillingsUpdate:  mu: +0.094293474  nElectrons: 355.000000  magneticMoment: [ Abs: 30.32848  Tot: +0.00000 ]
	SubspaceRotationAdjust: set factor to 0.515
ElecMinimize: Iter: 129  F: -2149.550699904330031  |grad|_K:  3.605e-06  alpha:  2.277e-01  linmin: -1.041e-04  t[s]:  11106.40
	FillingsUpdate:  mu: +0.094599421  nElectrons: 355.000000  magneticMoment: [ Abs: 30.34277  Tot: -0.00000 ]
	SubspaceRotationAdjust: set factor to 0.453
ElecMinimize: Iter: 130  F: -2149.551123780256603  |grad|_K:  3.569e-06  alpha:  1.815e-01  linmin:  1.115e-04  t[s]:  11182.73
	FillingsUpdate:  mu: +0.094620173  nElectrons: 355.000000  magneticMoment: [ Abs: 30.34145  Tot: -0.00000 ]
	SubspaceRotationAdjust: set factor to 0.482
ElecMinimize: Iter: 131  F: -2149.551550732224314  |grad|_K:  2.943e-06  alpha:  1.949e-01  linmin: -1.600e-04  t[s]:  11258.11
	FillingsUpdate:  mu: +0.094609688  nElectrons: 355.000000  magneticMoment: [ Abs: 30.36593  Tot: +0.00000 ]
	SubspaceRotationAdjust: set factor to 0.574
ElecMinimize: Iter: 132  F: -2149.551967933544802  |grad|_K:  2.659e-06  alpha:  2.706e-01  linmin:  1.116e-05  t[s]:  11336.66
	FillingsUpdate:  mu: +0.094850339  nElectrons: 355.000000  magneticMoment: [ Abs: 30.40142  Tot: +0.00000 ]
	SubspaceRotationAdjust: set factor to 0.696
ElecMinimize: Iter: 133  F: -2149.552342647082241  |grad|_K:  2.566e-06  alpha:  3.048e-01  linmin: -8.694e-07  t[s]:  11416.72
	FillingsUpdate:  mu: +0.094902533  nElectrons: 355.000000  magneticMoment: [ Abs: 30.42286  Tot: +0.00000 ]
	SubspaceRotationAdjust: set factor to 0.566
ElecMinimize: Iter: 134  F: -2149.552609629138715  |grad|_K:  3.143e-06  alpha:  2.335e-01  linmin: -2.441e-05  t[s]:  11495.60
	FillingsUpdate:  mu: +0.095081818  nElectrons: 355.000000  magneticMoment: [ Abs: 30.46424  Tot: -0.00000 ]
	SubspaceRotationAdjust: set factor to 0.47
ElecMinimize: Iter: 135  F: -2149.552797026323333  |grad|_K:  2.603e-06  alpha:  1.072e-01  linmin: -5.518e-05  t[s]:  11573.30
	FillingsUpdate:  mu: +0.095291926  nElectrons: 355.000000  magneticMoment: [ Abs: 30.50911  Tot: +0.00000 ]
	SubspaceRotationAdjust: set factor to 0.626
ElecMinimize: Iter: 136  F: -2149.553070941396527  |grad|_K:  2.227e-06  alpha:  2.304e-01  linmin: -4.895e-06  t[s]:  11649.82
	FillingsUpdate:  mu: +0.095557907  nElectrons: 355.000000  magneticMoment: [ Abs: 30.54705  Tot: +0.00000 ]
	SubspaceRotationAdjust: set factor to 0.536
ElecMinimize: Iter: 137  F: -2149.553287008428470  |grad|_K:  2.686e-06  alpha:  2.498e-01  linmin: -2.115e-05  t[s]:  11727.20
	FillingsUpdate:  mu: +0.096005936  nElectrons: 355.000000  magneticMoment: [ Abs: 30.59324  Tot: -0.00000 ]
	SubspaceRotationAdjust: set factor to 0.451
ElecMinimize: Iter: 138  F: -2149.553423345524152  |grad|_K:  2.234e-06  alpha:  1.069e-01  linmin: -5.063e-05  t[s]:  11805.19
	FillingsUpdate:  mu: +0.096227973  nElectrons: 355.000000  magneticMoment: [ Abs: 30.65104  Tot: -0.00000 ]
	SubspaceRotationAdjust: set factor to 0.619
ElecMinimize: Iter: 139  F: -2149.553646879375265  |grad|_K:  2.100e-06  alpha:  2.556e-01  linmin:  1.828e-05  t[s]:  11881.83
	FillingsUpdate:  mu: +0.096012118  nElectrons: 355.000000  magneticMoment: [ Abs: 30.67970  Tot: -0.00000 ]
	SubspaceRotationAdjust: set factor to 0.532
ElecMinimize: Iter: 140  F: -2149.553793734739429  |grad|_K:  2.532e-06  alpha:  1.926e-01  linmin: -1.592e-05  t[s]:  11959.33
	FillingsUpdate:  mu: +0.096397966  nElectrons: 355.000000  magneticMoment: [ Abs: 30.73043  Tot: +0.00000 ]
	SubspaceRotationAdjust: set factor to 0.509
ElecMinimize: Iter: 141  F: -2149.553940613334362  |grad|_K:  2.048e-06  alpha:  1.296e-01  linmin: -2.857e-07  t[s]:  12036.15
	FillingsUpdate:  mu: +0.096562264  nElectrons: 355.000000  magneticMoment: [ Abs: 30.78316  Tot: +0.00000 ]
	SubspaceRotationAdjust: set factor to 0.686
ElecMinimize: Iter: 142  F: -2149.554136139110597  |grad|_K:  2.082e-06  alpha:  2.694e-01  linmin:  9.993e-05  t[s]:  12114.18
	FillingsUpdate:  mu: +0.096142577  nElectrons: 355.000000  magneticMoment: [ Abs: 30.80510  Tot: -0.00000 ]
	SubspaceRotationAdjust: set factor to 0.598
ElecMinimize: Iter: 143  F: -2149.554275110860999  |grad|_K:  2.504e-06  alpha:  1.883e-01  linmin: -1.733e-05  t[s]:  12189.10
	FillingsUpdate:  mu: +0.096521166  nElectrons: 355.000000  magneticMoment: [ Abs: 30.84272  Tot: +0.00000 ]
	SubspaceRotationAdjust: set factor to 0.606
ElecMinimize: Iter: 144  F: -2149.554409560789736  |grad|_K:  2.082e-06  alpha:  1.208e-01  linmin: -2.146e-05  t[s]:  12266.90
	FillingsUpdate:  mu: +0.096554734  nElectrons: 355.000000  magneticMoment: [ Abs: 30.86824  Tot: -0.00000 ]
	SubspaceRotationAdjust: set factor to 0.844
	SubspaceRotationAdjust: resetting CG because factor has changed by 8.01831
ElecMinimize: 	State modified externally: resetting search direction.
ElecMinimize: Iter: 145  F: -2149.554586532201483  |grad|_K:  2.163e-06  alpha:  2.323e-01
	FillingsUpdate:  mu: +0.096322990  nElectrons: 355.000000  magneticMoment: [ Abs: 30.85424  Tot: -0.00000 ]
	SubspaceRotationAdjust: set factor to 0.515
ElecMinimize: Iter: 146  F: -2149.554762078183103  |grad|_K:  3.106e-06  alpha:  2.156e-01  linmin: -3.637e-05  t[s]:  12437.20
	FillingsUpdate:  mu: +0.096932322  nElectrons: 355.000000  magneticMoment: [ Abs: 30.86265  Tot: +0.00000 ]
	SubspaceRotationAdjust: set factor to 0.382
ElecMinimize: Iter: 147  F: -2149.554909472268264  |grad|_K:  2.289e-06  alpha:  8.818e-02  linmin:  4.841e-05  t[s]:  12513.48
ElecMinimize: 	Predicted alpha/alphaT>3.000000, increasing alphaT to 2.645300e-01.
	FillingsUpdate:  mu: +0.096829504  nElectrons: 355.000000  magneticMoment: [ Abs: 30.82378  Tot: -0.00000 ]
	SubspaceRotationAdjust: set factor to 0.366
ElecMinimize: Iter: 148  F: -2149.555200344497280  |grad|_K:  2.252e-06  alpha:  3.209e-01  linmin:  7.776e-05  t[s]:  12621.27
	FillingsUpdate:  mu: +0.096329213  nElectrons: 355.000000  magneticMoment: [ Abs: 30.79422  Tot: +0.00000 ]
	SubspaceRotationAdjust: set factor to 0.27
ElecMinimize: Iter: 149  F: -2149.555336055190310  |grad|_K:  1.885e-06  alpha:  1.552e-01  linmin:  2.853e-05  t[s]:  12696.32
	FillingsUpdate:  mu: +0.096868559  nElectrons: 355.000000  magneticMoment: [ Abs: 30.79151  Tot: +0.00000 ]
	SubspaceRotationAdjust: set factor to 0.348
ElecMinimize: Iter: 150  F: -2149.555466694298048  |grad|_K:  1.312e-06  alpha:  2.114e-01  linmin: -4.497e-05  t[s]:  12771.65
	FillingsUpdate:  mu: +0.097072655  nElectrons: 355.000000  magneticMoment: [ Abs: 30.78362  Tot: -0.00000 ]
	SubspaceRotationAdjust: set factor to 0.269
ElecMinimize: Iter: 151  F: -2149.555548881724008  |grad|_K:  1.381e-06  alpha:  2.737e-01  linmin:  1.098e-04  t[s]:  12847.59
	FillingsUpdate:  mu: +0.096852624  nElectrons: 355.000000  magneticMoment: [ Abs: 30.75795  Tot: +0.00000 ]
	SubspaceRotationAdjust: set factor to 0.233
ElecMinimize: Iter: 152  F: -2149.555609550006920  |grad|_K:  1.078e-06  alpha:  1.836e-01  linmin:  4.511e-06  t[s]:  12923.86
	FillingsUpdate:  mu: +0.096529360  nElectrons: 355.000000  magneticMoment: [ Abs: 30.74489  Tot: -0.00000 ]
	SubspaceRotationAdjust: set factor to 0.298
ElecMinimize: Iter: 153  F: -2149.555675968183095  |grad|_K:  1.113e-06  alpha:  3.280e-01  linmin: -2.446e-05  t[s]:  13001.18
	FillingsUpdate:  mu: +0.096632775  nElectrons: 355.000000  magneticMoment: [ Abs: 30.74634  Tot: -0.00000 ]
	SubspaceRotationAdjust: set factor to 0.258
ElecMinimize: Iter: 154  F: -2149.555735167324201  |grad|_K:  1.119e-06  alpha:  2.741e-01  linmin:  1.123e-05  t[s]:  13075.62
	FillingsUpdate:  mu: +0.096721445  nElectrons: 355.000000  magneticMoment: [ Abs: 30.72788  Tot: +0.00000 ]
	SubspaceRotationAdjust: set factor to 0.275
ElecMinimize: Iter: 155  F: -2149.555799888818456  |grad|_K:  1.056e-06  alpha:  2.970e-01  linmin: -2.433e-05  t[s]:  13151.36
	FillingsUpdate:  mu: +0.096822313  nElectrons: 355.000000  magneticMoment: [ Abs: 30.71048  Tot: +0.00000 ]
	SubspaceRotationAdjust: set factor to 0.305
ElecMinimize: Iter: 156  F: -2149.555865584920866  |grad|_K:  1.072e-06  alpha:  3.376e-01  linmin:  7.112e-06  t[s]:  13225.81
	FillingsUpdate:  mu: +0.097023371  nElectrons: 355.000000  magneticMoment: [ Abs: 30.71364  Tot: -0.00000 ]
	SubspaceRotationAdjust: set factor to 0.255
ElecMinimize: Iter: 157  F: -2149.555921775515344  |grad|_K:  1.106e-06  alpha:  2.805e-01  linmin:  2.196e-05  t[s]:  13303.06
	FillingsUpdate:  mu: +0.096684730  nElectrons: 355.000000  magneticMoment: [ Abs: 30.70469  Tot: -0.00000 ]
	SubspaceRotationAdjust: set factor to 0.251
ElecMinimize: Iter: 158  F: -2149.555978578569011  |grad|_K:  9.107e-07  alpha:  2.672e-01  linmin: -3.906e-05  t[s]:  13380.66
	FillingsUpdate:  mu: +0.096547845  nElectrons: 355.000000  magneticMoment: [ Abs: 30.69548  Tot: -0.00000 ]
	SubspaceRotationAdjust: set factor to 0.281
ElecMinimize: Iter: 159  F: -2149.556028525347756  |grad|_K:  8.574e-07  alpha:  3.447e-01  linmin:  9.250e-06  t[s]:  13455.94
	FillingsUpdate:  mu: +0.096787963  nElectrons: 355.000000  magneticMoment: [ Abs: 30.70017  Tot: +0.00000 ]
	SubspaceRotationAdjust: set factor to 0.227
ElecMinimize: Iter: 160  F: -2149.556061835060518  |grad|_K:  7.591e-07  alpha:  2.601e-01  linmin:  9.472e-06  t[s]:  13534.31
	FillingsUpdate:  mu: +0.096732764  nElectrons: 355.000000  magneticMoment: [ Abs: 30.69890  Tot: -0.00000 ]
	SubspaceRotationAdjust: set factor to 0.237
ElecMinimize: Iter: 161  F: -2149.556089790549322  |grad|_K:  6.173e-07  alpha:  2.787e-01  linmin: -5.274e-05  t[s]:  13609.54
	FillingsUpdate:  mu: +0.096721463  nElectrons: 355.000000  magneticMoment: [ Abs: 30.69969  Tot: +0.00000 ]
	SubspaceRotationAdjust: set factor to 0.274
ElecMinimize: Iter: 162  F: -2149.556113548891972  |grad|_K:  5.973e-07  alpha:  3.567e-01  linmin: -2.154e-05  t[s]:  13684.42
	FillingsUpdate:  mu: +0.096870229  nElectrons: 355.000000  magneticMoment: [ Abs: 30.70560  Tot: +0.00000 ]
	SubspaceRotationAdjust: set factor to 0.237
ElecMinimize: Iter: 163  F: -2149.556133110739665  |grad|_K:  5.742e-07  alpha:  3.144e-01  linmin:  1.387e-05  t[s]:  13762.28
	FillingsUpdate:  mu: +0.096831112  nElectrons: 355.000000  magneticMoment: [ Abs: 30.70462  Tot: +0.00000 ]
	SubspaceRotationAdjust: set factor to 0.228
ElecMinimize: Iter: 164  F: -2149.556150269960654  |grad|_K:  5.062e-07  alpha:  2.992e-01  linmin: -8.829e-06  t[s]:  13840.30
	FillingsUpdate:  mu: +0.096853987  nElectrons: 355.000000  magneticMoment: [ Abs: 30.70944  Tot: +0.00000 ]
	SubspaceRotationAdjust: set factor to 0.269
ElecMinimize: Iter: 165  F: -2149.556166294552895  |grad|_K:  4.717e-07  alpha:  3.588e-01  linmin: -1.536e-05  t[s]:  13913.72
	FillingsUpdate:  mu: +0.096893204  nElectrons: 355.000000  magneticMoment: [ Abs: 30.71629  Tot: -0.00000 ]
	SubspaceRotationAdjust: set factor to 0.263
ElecMinimize: Iter: 166  F: -2149.556180996230978  |grad|_K:  5.091e-07  alpha:  3.790e-01  linmin: -8.094e-07  t[s]:  13989.19
	FillingsUpdate:  mu: +0.096764904  nElectrons: 355.000000  magneticMoment: [ Abs: 30.71541  Tot: +0.00000 ]
	SubspaceRotationAdjust: set factor to 0.219
ElecMinimize: Iter: 167  F: -2149.556194804259576  |grad|_K:  4.730e-07  alpha:  3.060e-01  linmin:  8.007e-07  t[s]:  14066.89
	FillingsUpdate:  mu: +0.096796249  nElectrons: 355.000000  magneticMoment: [ Abs: 30.72219  Tot: +0.00000 ]
	SubspaceRotationAdjust: set factor to 0.238
ElecMinimize: Iter: 168  F: -2149.556207745365555  |grad|_K:  4.167e-07  alpha:  3.322e-01  linmin: -4.689e-06  t[s]:  14143.34
	FillingsUpdate:  mu: +0.096855064  nElectrons: 355.000000  magneticMoment: [ Abs: 30.72912  Tot: -0.00000 ]
	SubspaceRotationAdjust: set factor to 0.258
ElecMinimize: Iter: 169  F: -2149.556219051343760  |grad|_K:  4.013e-07  alpha:  3.737e-01  linmin: -1.020e-05  t[s]:  14219.41
	FillingsUpdate:  mu: +0.096821431  nElectrons: 355.000000  magneticMoment: [ Abs: 30.73039  Tot: +0.00000 ]
	SubspaceRotationAdjust: set factor to 0.227
ElecMinimize: Iter: 170  F: -2149.556228349528283  |grad|_K:  3.846e-07  alpha:  3.313e-01  linmin:  7.180e-06  t[s]:  14297.95
	FillingsUpdate:  mu: +0.096867769  nElectrons: 355.000000  magneticMoment: [ Abs: 30.73652  Tot: +0.00000 ]
	SubspaceRotationAdjust: set factor to 0.21
ElecMinimize: Iter: 171  F: -2149.556236766963593  |grad|_K:  3.477e-07  alpha:  3.270e-01  linmin: -1.378e-05  t[s]:  14373.63
	FillingsUpdate:  mu: +0.096831869  nElectrons: 355.000000  magneticMoment: [ Abs: 30.73958  Tot: +0.00000 ]
	SubspaceRotationAdjust: set factor to 0.243
ElecMinimize: Iter: 172  F: -2149.556244659981985  |grad|_K:  3.299e-07  alpha:  3.746e-01  linmin:  1.635e-06  t[s]:  14450.72
	FillingsUpdate:  mu: +0.096797442  nElectrons: 355.000000  magneticMoment: [ Abs: 30.74072  Tot: -0.00000 ]
	SubspaceRotationAdjust: set factor to 0.25
ElecMinimize: Iter: 173  F: -2149.556251362637340  |grad|_K:  3.175e-07  alpha:  3.537e-01  linmin:  8.837e-06  t[s]:  14528.55
	FillingsUpdate:  mu: +0.096885015  nElectrons: 355.000000  magneticMoment: [ Abs: 30.74547  Tot: +0.00000 ]
	SubspaceRotationAdjust: set factor to 0.228
ElecMinimize: Iter: 174  F: -2149.556257480787281  |grad|_K:  3.109e-07  alpha:  3.487e-01  linmin: -1.519e-05  t[s]:  14606.22
	FillingsUpdate:  mu: +0.096878458  nElectrons: 355.000000  magneticMoment: [ Abs: 30.74617  Tot: -0.00000 ]
	SubspaceRotationAdjust: set factor to 0.234
ElecMinimize: Iter: 175  F: -2149.556263948032665  |grad|_K:  3.110e-07  alpha:  3.838e-01  linmin:  9.255e-06  t[s]:  14681.87
	FillingsUpdate:  mu: +0.096843525  nElectrons: 355.000000  magneticMoment: [ Abs: 30.74819  Tot: -0.00000 ]
	SubspaceRotationAdjust: set factor to 0.268
ElecMinimize: Iter: 176  F: -2149.556270349316037  |grad|_K:  3.132e-07  alpha:  3.803e-01  linmin:  4.695e-07  t[s]:  14759.86
	FillingsUpdate:  mu: +0.096824210  nElectrons: 355.000000  magneticMoment: [ Abs: 30.75232  Tot: -0.00000 ]
	SubspaceRotationAdjust: set factor to 0.268
ElecMinimize: Iter: 177  F: -2149.556277123841937  |grad|_K:  3.359e-07  alpha:  3.965e-01  linmin: -1.174e-05  t[s]:  14838.66
	FillingsUpdate:  mu: +0.096760911  nElectrons: 355.000000  magneticMoment: [ Abs: 30.75241  Tot: -0.00000 ]
	SubspaceRotationAdjust: set factor to 0.24
ElecMinimize: Iter: 178  F: -2149.556284482641786  |grad|_K:  3.704e-07  alpha:  3.743e-01  linmin:  8.910e-06  t[s]:  14917.48
	FillingsUpdate:  mu: +0.096871998  nElectrons: 355.000000  magneticMoment: [ Abs: 30.75816  Tot: +0.00000 ]
	SubspaceRotationAdjust: set factor to 0.236
ElecMinimize: Iter: 179  F: -2149.556293612783975  |grad|_K:  3.865e-07  alpha:  3.825e-01  linmin: -5.080e-06  t[s]:  14994.13
	FillingsUpdate:  mu: +0.096909909  nElectrons: 355.000000  magneticMoment: [ Abs: 30.76190  Tot: +0.00000 ]
	SubspaceRotationAdjust: set factor to 0.271
ElecMinimize: Iter: 180  F: -2149.556304352948246  |grad|_K:  3.845e-07  alpha:  4.127e-01  linmin:  2.272e-06  t[s]:  15072.61
	FillingsUpdate:  mu: +0.096805991  nElectrons: 355.000000  magneticMoment: [ Abs: 30.76141  Tot: -0.00000 ]
	SubspaceRotationAdjust: set factor to 0.267
ElecMinimize: Iter: 181  F: -2149.556314574798762  |grad|_K:  4.198e-07  alpha:  3.971e-01  linmin:  1.329e-05  t[s]:  15150.29
	FillingsUpdate:  mu: +0.096856107  nElectrons: 355.000000  magneticMoment: [ Abs: 30.76559  Tot: -0.00000 ]
	SubspaceRotationAdjust: set factor to 0.24
ElecMinimize: Iter: 182  F: -2149.556325367456793  |grad|_K:  4.461e-07  alpha:  3.524e-01  linmin: -1.423e-05  t[s]:  15228.87
	FillingsUpdate:  mu: +0.096843072  nElectrons: 355.000000  magneticMoment: [ Abs: 30.76368  Tot: +0.00000 ]
	SubspaceRotationAdjust: set factor to 0.244
ElecMinimize: Iter: 183  F: -2149.556339477303936  |grad|_K:  4.686e-07  alpha:  4.068e-01  linmin:  1.891e-05  t[s]:  15305.59
	FillingsUpdate:  mu: +0.096861076  nElectrons: 355.000000  magneticMoment: [ Abs: 30.76341  Tot: -0.00000 ]
	SubspaceRotationAdjust: set factor to 0.278
ElecMinimize: Iter: 184  F: -2149.556355498255016  |grad|_K:  4.909e-07  alpha:  4.201e-01  linmin:  6.890e-06  t[s]:  15383.25
	FillingsUpdate:  mu: +0.096825382  nElectrons: 355.000000  magneticMoment: [ Abs: 30.76562  Tot: +0.00000 ]
	SubspaceRotationAdjust: set factor to 0.278
ElecMinimize: Iter: 185  F: -2149.556372138312781  |grad|_K:  5.255e-07  alpha:  3.970e-01  linmin: -8.695e-06  t[s]:  15459.49
	FillingsUpdate:  mu: +0.096634605  nElectrons: 355.000000  magneticMoment: [ Abs: 30.76121  Tot: -0.00000 ]
	SubspaceRotationAdjust: set factor to 0.244
ElecMinimize: Iter: 186  F: -2149.556388722552128  |grad|_K:  5.640e-07  alpha:  3.441e-01  linmin:  2.349e-05  t[s]:  15534.25
	FillingsUpdate:  mu: +0.096750889  nElectrons: 355.000000  magneticMoment: [ Abs: 30.76520  Tot: -0.00000 ]
	SubspaceRotationAdjust: set factor to 0.248
ElecMinimize: Iter: 187  F: -2149.556409048369915  |grad|_K:  5.486e-07  alpha:  3.681e-01  linmin: -1.030e-05  t[s]:  15612.60
	FillingsUpdate:  mu: +0.096916706  nElectrons: 355.000000  magneticMoment: [ Abs: 30.76807  Tot: -0.00000 ]
	SubspaceRotationAdjust: set factor to 0.28
ElecMinimize: Iter: 188  F: -2149.556430998022279  |grad|_K:  5.523e-07  alpha:  4.182e-01  linmin:  6.734e-06  t[s]:  15691.95
	FillingsUpdate:  mu: +0.096891598  nElectrons: 355.000000  magneticMoment: [ Abs: 30.76779  Tot: -0.00000 ]
	SubspaceRotationAdjust: set factor to 0.272
ElecMinimize: Iter: 189  F: -2149.556450195382240  |grad|_K:  5.538e-07  alpha:  3.613e-01  linmin:  2.100e-05  t[s]:  15769.15
	FillingsUpdate:  mu: +0.096964113  nElectrons: 355.000000  magneticMoment: [ Abs: 30.77470  Tot: +0.00000 ]
[...]
	SubspaceRotationAdjust: set factor to 0.249
ElecMinimize: Iter:  14  F: -2149.679761063349360  |grad|_K:  7.116e-08  alpha:  3.089e-01  linmin:  4.852e-07  t[s]: 288864.94
	FillingsUpdate:  mu: +0.103758595  nElectrons: 355.000000  magneticMoment: [ Abs: 30.24884  Tot: +0.00000 ]
	SubspaceRotationAdjust: set factor to 0.292
ElecMinimize: Iter:  15  F: -2149.679761353797858  |grad|_K:  6.123e-08  alpha:  3.295e-01  linmin:  9.526e-06  t[s]: 288941.46
	FillingsUpdate:  mu: +0.103780969  nElectrons: 355.000000  magneticMoment: [ Abs: 30.24890  Tot: +0.00000 ]
	SubspaceRotationAdjust: set factor to 0.33
ElecMinimize: Iter:  16  F: -2149.679761578703165  |grad|_K:  5.820e-08  alpha:  3.447e-01  linmin: -1.208e-05  t[s]: 289016.73
	FillingsUpdate:  mu: +0.103751670  nElectrons: 355.000000  magneticMoment: [ Abs: 30.24891  Tot: +0.00000 ]
	SubspaceRotationAdjust: set factor to 0.349
ElecMinimize: Iter:  17  F: -2149.679761798682193  |grad|_K:  6.206e-08  alpha:  3.728e-01  linmin:  4.717e-06  t[s]: 289093.59
ElecMinimize: Converged (|Delta F|<1.000000e-06 for 5 iters).
Setting wave functions to eigenvectors of Hamiltonian

# Ionic positions in lattice coordinates:
ion Ni  -0.008752359670508  -0.186677439135559   0.184856019723751 1
ion Ni  -0.010566372783211   0.258749897031680   0.193040820229814 1
ion Ni   0.247875505533902   0.762492920838346   0.053808062428407 1
ion Ni   0.500000000000000   0.000000000000000  -0.050000000000000 0
ion Ni   0.250000000000000   0.250000000000000  -0.150000000000000 0
ion Ni   0.250000000000000   0.750000000000000  -0.150000000000000 0
ion Ni  -0.250000000000000   0.250000000000000  -0.150000000000000 0
ion Ni  -0.250000000000000   0.750000000000000  -0.150000000000000 0
ion V   0.487755136817839   0.009299738689825   0.156236055303825 1
ion V   0.243525006916877   0.247613570424680   0.054948795221668 1
ion V  -0.242856276390692   0.751852437565828   0.056955761166986 1
ion V   0.000000000000000   0.000000000000000  -0.050000000000000 0
ion V   0.000000000000000   0.500000000000000  -0.050000000000000 0
ion V   0.500000000000000   0.500000000000000  -0.050000000000000 0
ion Co   0.482921038204320   0.513725542655669   0.161822925326112 1
ion Cr  -0.248458688770314   0.252317777428638   0.055894011501452 1
ion O   0.272392133650283   0.261383867277590   0.154330821965475 1
ion O   0.271407475821149   0.766753686022211   0.150079218592576 1
ion O  -0.285543427819026   0.262553797204199   0.149173937976024 1
ion O  -0.295712423684603   0.759505847453126   0.154520717140124 1
ion O  -0.014247206393300   0.025117478069790   0.049923163862543 1
ion O   0.510683822563594   0.025255551689002   0.060533113367168 1
ion O  -0.009059748190533   0.478382752814117   0.044053085475830 1
ion O   0.506170900234801   0.478123665396344   0.043549413061990 1
ion O   0.250000000000000   0.250000000000000  -0.050000000000000 0
ion O   0.250000000000000   0.750000000000000  -0.050000000000000 0
ion O  -0.250000000000000   0.250000000000000  -0.050000000000000 0
ion O  -0.250000000000000   0.750000000000000  -0.050000000000000 0
ion O   0.000000000000000   0.000000000000000  -0.150000000000000 0
ion O   0.500000000000000   0.000000000000000  -0.150000000000000 0
ion O   0.000000000000000   0.500000000000000  -0.150000000000000 0
ion O   0.500000000000000   0.500000000000000  -0.150000000000000 0
ion O  -0.010046355629745   0.010374324779385   0.245058905235888 1

# Forces in Lattice coordinates:
force Ni  -0.004941761528481  -0.006819383055683   0.001497571839578 1
force Ni  -0.001312449437805  -0.019780577086217   0.028221359348465 1
force Ni   0.001456450851479  -0.004745654736944   0.006418998751409 1
force Ni  -0.020275314901438  -0.036865090715438  -0.585133284993715 0
force Ni   0.039474412410106  -0.055248097278229  -0.072791174261814 0
force Ni   0.038788156980683   0.050730573800224  -0.011667937683888 0
force Ni  -0.039995486710123  -0.055464387022378  -0.147107870571378 0
force Ni  -0.039222006372129   0.053963540308371  -0.066743267553948 0
force V  -0.008086478559359  -0.015774669783197   0.004023227331557 1
force V   0.004731928565785  -0.000240387636082   0.007987336840749 1
force V  -0.002892705774360  -0.004537395155620   0.000380901100298 1
force V   0.039880269924004  -0.002423489940445  -0.825084300278724 0
force V   0.017104540642744   0.058374040920778  -1.162857401720415 0
force V  -0.021882120896806   0.077442337976775  -1.223895887974622 0
force Co   0.001114814650695   0.004437254454102  -0.009670931076086 1
force Cr   0.001291608320920   0.005271850347971  -0.032561398331822 1
force O   0.006915118576541  -0.006094529953551  -0.005096424045234 1
force O  -0.002459423629871  -0.012965054140087  -0.015421075847966 1
force O  -0.003094269476973  -0.001146610859319   0.008984760751824 1
force O   0.013456938927094  -0.004695667666330   0.018204064734275 1
force O  -0.002394672879534  -0.011902262717157  -0.012506442461108 1
force O   0.001236455071208  -0.004231516676160  -0.006934826698780 1
force O  -0.003903637836785   0.000749832137190   0.003401694323893 1
force O  -0.002035207160096  -0.003446031262737   0.011233207568524 1
force O  -0.045806209835935   0.209998039703899   0.585901301555399 0
force O   0.062559583545504  -0.196035101289816   0.434913123480278 0
force O  -0.068476057712292   0.178791370132676   0.792118154265518 0
force O   0.049633986663982  -0.212016057936293   0.563349083661885 0
force O   0.010107700430812  -0.015992579903486   0.240785946447856 0
force O  -0.004993369930985  -0.008521678301305   0.178626634229862 0
force O   0.012048100144114   0.008274169257245   0.662378623210657 0
force O  -0.006300868925353  -0.001205266904817   0.738247294772888 0
force O   0.002147685467227   0.000338977477425  -0.016454642412931 1

# Energy components:
   Eewald =     5090.3481420758353124
       EH =     7024.0622389119307627
     Eloc =   -14412.6668419527341030
      Enl =     -578.1990970899305466
   Epulay =       -0.0004910691131946
      Exc =     -255.9240635468690925
       KE =      981.0667260883717518
        U =        1.6348012727994776
-------------------------------------
     Etot =    -2149.6785853097089785
       TS =        0.0011764889731361
-------------------------------------
        F =    -2149.6797617986821933

IonicMinimize: Iter:  57  F: -2149.679761798682193  |grad|_K:  5.232e-04  alpha:  1.000e+00  linmin: -1.461e-02  t[s]: 289104.80

#--- Lowdin population analysis ---
# oxidation-state Ni +3.485 +3.839 +3.309 +3.386 +3.711 +3.715 +3.711 +3.714
# magnetic-moments Ni +0.702 +0.959 -0.701 +0.854 +0.873 +0.876 +0.864 +0.877
# oxidation-state V +1.354 +1.177 +1.051 +1.013 +1.233 +1.262
# magnetic-moments V -2.044 +2.454 -2.865 -2.791 -2.143 +2.070
# oxidation-state Co +1.249
# magnetic-moments Co -2.657
# oxidation-state Cr +2.912
# magnetic-moments Cr -1.086
# oxidation-state O -0.874 -0.797 -0.814 -0.847 -0.816 -0.786 -0.811 -0.846 -0.834 -0.807 -0.823 -0.841 -0.694 -0.649 -0.714 -0.708 -0.517
# magnetic-moments O +0.074 +0.048 +0.099 +0.129 +0.011 +0.026 +0.027 -0.043 +0.126 +0.073 +0.089 +0.138 +0.228 +0.291 +0.163 +0.050 +1.041


-------- Electronic minimization -----------
	FillingsUpdate:  mu: +0.097385032  nElectrons: 355.000000  magneticMoment: [ Abs: 30.24958  Tot: -0.00000 ]
ElecMinimize: Iter:   0  F: -2149.568477077815714  |grad|_K:  5.465e-05  alpha:  1.000e+00
	FillingsUpdate:  mu: +0.104808493  nElectrons: 355.000000  magneticMoment: [ Abs: 30.26563  Tot: +0.00000 ]
	SubspaceRotationAdjust: set factor to 0.386
ElecMinimize: Iter:   1  F: -2149.668346759987344  |grad|_K:  1.243e-05  alpha:  1.934e-01  linmin:  1.787e-03  t[s]: 289205.68
	FillingsUpdate:  mu: +0.097839908  nElectrons: 355.000000  magneticMoment: [ Abs: 30.25130  Tot: -0.00000 ]
	SubspaceRotationAdjust: set factor to 0.282
ElecMinimize: Iter:   2  F: -2149.674817329979305  |grad|_K:  8.155e-06  alpha:  2.453e-01  linmin:  3.095e-03  t[s]: 289283.34
	FillingsUpdate:  mu: +0.102909750  nElectrons: 355.000000  magneticMoment: [ Abs: 30.25391  Tot: -0.00000 ]
	SubspaceRotationAdjust: set factor to 0.216
ElecMinimize: Iter:   3  F: -2149.676288580224536  |grad|_K:  5.228e-06  alpha:  1.538e-01  linmin:  3.508e-04  t[s]: 289359.18
	FillingsUpdate:  mu: +0.104469767  nElectrons: 355.000000  magneticMoment: [ Abs: 30.25208  Tot: +0.00000 ]
	SubspaceRotationAdjust: set factor to 0.297
ElecMinimize: Iter:   4  F: -2149.677820045239514  |grad|_K:  3.676e-06  alpha:  3.288e-01  linmin:  2.156e-04  t[s]: 289435.81
	FillingsUpdate:  mu: +0.101400953  nElectrons: 355.000000  magneticMoment: [ Abs: 30.24782  Tot: +0.00000 ]
	SubspaceRotationAdjust: set factor to 0.252
ElecMinimize: Iter:   5  F: -2149.678652610447898  |grad|_K:  3.440e-06  alpha:  3.592e-01  linmin:  1.546e-04  t[s]: 289513.00
	FillingsUpdate:  mu: +0.103663237  nElectrons: 355.000000  magneticMoment: [ Abs: 30.24933  Tot: +0.00000 ]
	SubspaceRotationAdjust: set factor to 0.194
ElecMinimize: Iter:   6  F: -2149.679091075508495  |grad|_K:  2.859e-06  alpha:  2.278e-01  linmin:  6.594e-05  t[s]: 289591.58
	FillingsUpdate:  mu: +0.104187445  nElectrons: 355.000000  magneticMoment: [ Abs: 30.24953  Tot: +0.00000 ]
	SubspaceRotationAdjust: set factor to 0.288
ElecMinimize: Iter:   7  F: -2149.679524518018297  |grad|_K:  1.725e-06  alpha:  3.067e-01  linmin:  1.476e-05  t[s]: 289667.98
	FillingsUpdate:  mu: +0.102816155  nElectrons: 355.000000  magneticMoment: [ Abs: 30.24825  Tot: +0.00000 ]
	SubspaceRotationAdjust: set factor to 0.235
ElecMinimize: Iter:   8  F: -2149.679677358652498  |grad|_K:  1.495e-06  alpha:  2.950e-01  linmin:  1.949e-04  t[s]: 289742.76
	FillingsUpdate:  mu: +0.103852460  nElectrons: 355.000000  magneticMoment: [ Abs: 30.24888  Tot: -0.00000 ]
	SubspaceRotationAdjust: set factor to 0.175
ElecMinimize: Iter:   9  F: -2149.679752118434862  |grad|_K:  8.480e-07  alpha:  1.972e-01  linmin: -2.022e-06  t[s]: 289821.59
	FillingsUpdate:  mu: +0.103968512  nElectrons: 355.000000  magneticMoment: [ Abs: 30.24913  Tot: -0.00000 ]
	SubspaceRotationAdjust: set factor to 0.229
ElecMinimize: Iter:  10  F: -2149.679791595590359  |grad|_K:  5.757e-07  alpha:  3.152e-01  linmin: -1.135e-06  t[s]: 289900.99
	FillingsUpdate:  mu: +0.103634394  nElectrons: 355.000000  magneticMoment: [ Abs: 30.24889  Tot: -0.00000 ]
	SubspaceRotationAdjust: set factor to 0.22
ElecMinimize: Iter:  11  F: -2149.679809108981317  |grad|_K:  4.238e-07  alpha:  3.034e-01  linmin:  3.009e-05  t[s]: 289980.37
	FillingsUpdate:  mu: +0.103810343  nElectrons: 355.000000  magneticMoment: [ Abs: 30.24912  Tot: +0.00000 ]
	SubspaceRotationAdjust: set factor to 0.206
ElecMinimize: Iter:  12  F: -2149.679818298828650  |grad|_K:  3.134e-07  alpha:  2.945e-01  linmin: -1.788e-05  t[s]: 290055.83
	FillingsUpdate:  mu: +0.103795645  nElectrons: 355.000000  magneticMoment: [ Abs: 30.24926  Tot: -0.00000 ]
	SubspaceRotationAdjust: set factor to 0.242
ElecMinimize: Iter:  13  F: -2149.679824797863603  |grad|_K:  2.514e-07  alpha:  3.795e-01  linmin:  2.162e-06  t[s]: 290131.46
	FillingsUpdate:  mu: +0.103742123  nElectrons: 355.000000  magneticMoment: [ Abs: 30.24926  Tot: +0.00000 ]
	SubspaceRotationAdjust: set factor to 0.284
ElecMinimize: Iter:  14  F: -2149.679828688619182  |grad|_K:  2.140e-07  alpha:  3.537e-01  linmin:  4.101e-09  t[s]: 290207.78
	FillingsUpdate:  mu: +0.103801627  nElectrons: 355.000000  magneticMoment: [ Abs: 30.24938  Tot: +0.00000 ]
	SubspaceRotationAdjust: set factor to 0.282
ElecMinimize: Iter:  15  F: -2149.679831400571402  |grad|_K:  1.829e-07  alpha:  3.401e-01  linmin: -7.733e-07  t[s]: 290285.17
	FillingsUpdate:  mu: +0.103737136  nElectrons: 355.000000  magneticMoment: [ Abs: 30.24943  Tot: -0.00000 ]
	SubspaceRotationAdjust: set factor to 0.232
ElecMinimize: Iter:  16  F: -2149.679833005006913  |grad|_K:  1.458e-07  alpha:  2.752e-01  linmin:  4.399e-06  t[s]: 290361.38
	FillingsUpdate:  mu: +0.103798622  nElectrons: 355.000000  magneticMoment: [ Abs: 30.24958  Tot: -0.00000 ]
	SubspaceRotationAdjust: set factor to 0.218
ElecMinimize: Iter:  17  F: -2149.679834057877997  |grad|_K:  1.080e-07  alpha:  2.846e-01  linmin: -2.143e-06  t[s]: 290437.92
	FillingsUpdate:  mu: +0.103767381  nElectrons: 355.000000  magneticMoment: [ Abs: 30.24963  Tot: +0.00000 ]
	SubspaceRotationAdjust: set factor to 0.256
ElecMinimize: Iter:  18  F: -2149.679834707800183  |grad|_K:  7.666e-08  alpha:  3.197e-01  linmin:  1.294e-06  t[s]: 290512.68
	FillingsUpdate:  mu: +0.103757438  nElectrons: 355.000000  magneticMoment: [ Abs: 30.24972  Tot: +0.00000 ]
	SubspaceRotationAdjust: set factor to 0.276
ElecMinimize: Iter:  19  F: -2149.679835055830608  |grad|_K:  6.302e-08  alpha:  3.401e-01  linmin:  3.065e-06  t[s]: 290589.26
	FillingsUpdate:  mu: +0.103790890  nElectrons: 355.000000  magneticMoment: [ Abs: 30.24983  Tot: -0.00000 ]
	SubspaceRotationAdjust: set factor to 0.26
ElecMinimize: Iter:  20  F: -2149.679835261188600  |grad|_K:  5.439e-08  alpha:  2.971e-01  linmin: -1.025e-05  t[s]: 290663.93
	FillingsUpdate:  mu: +0.103753521  nElectrons: 355.000000  magneticMoment: [ Abs: 30.24987  Tot: -0.00000 ]
	SubspaceRotationAdjust: set factor to 0.259
ElecMinimize: Iter:  21  F: -2149.679835435975292  |grad|_K:  5.049e-08  alpha:  3.392e-01  linmin:  2.297e-06  t[s]: 290741.84
	FillingsUpdate:  mu: +0.103769480  nElectrons: 355.000000  magneticMoment: [ Abs: 30.25001  Tot: -0.00000 ]
	SubspaceRotationAdjust: set factor to 0.298
ElecMinimize: Iter:  22  F: -2149.679835613226260  |grad|_K:  4.898e-08  alpha:  3.995e-01  linmin: -7.446e-07  t[s]: 290819.25
ElecMinimize: Converged (|Delta F|<1.000000e-06 for 5 iters).
Setting wave functions to eigenvectors of Hamiltonian

# Ionic positions in lattice coordinates:
ion Ni  -0.008948844961151  -0.186278207377023   0.184516980788496 1
ion Ni  -0.010525889137986   0.258775842663196   0.193044664498220 1
ion Ni   0.247842987917047   0.762143573531300   0.053828831106797 1
ion Ni   0.500000000000000   0.000000000000000  -0.050000000000000 0
ion Ni   0.250000000000000   0.250000000000000  -0.150000000000000 0
ion Ni   0.250000000000000   0.750000000000000  -0.150000000000000 0
ion Ni  -0.250000000000000   0.250000000000000  -0.150000000000000 0
ion Ni  -0.250000000000000   0.750000000000000  -0.150000000000000 0
ion V   0.487413877309096   0.007767371080191   0.156225113227625 1
ion V   0.243662838147794   0.247305239990590   0.054926644786885 1
ion V  -0.243076026291281   0.751268817692646   0.056924025568219 1
ion V   0.000000000000000   0.000000000000000  -0.050000000000000 0
ion V   0.000000000000000   0.500000000000000  -0.050000000000000 0
ion V   0.500000000000000   0.500000000000000  -0.050000000000000 0
ion Co   0.483079794052373   0.512816421454212   0.161839288487023 1
ion Cr  -0.248297058137150   0.252083215305747   0.055857658763250 1
ion O   0.272543937107773   0.260299839466929   0.154268499400440 1
ion O   0.271278481887192   0.765006178839210   0.150019907221232 1
ion O  -0.285519846131931   0.261839878409690   0.149165037675458 1
ion O  -0.295325882243420   0.758299579450007   0.154586859587965 1
ion O  -0.014339811168931   0.024038328205075   0.049745313936147 1
ion O   0.510735013431674   0.024860509758757   0.060507184078716 1
ion O  -0.009286401591511   0.478412070691457   0.044046610353424 1
ion O   0.505900858396124   0.477768295207030   0.043629233871319 1
ion O   0.250000000000000   0.250000000000000  -0.050000000000000 0
ion O   0.250000000000000   0.750000000000000  -0.050000000000000 0
ion O  -0.250000000000000   0.250000000000000  -0.050000000000000 0
ion O  -0.250000000000000   0.750000000000000  -0.050000000000000 0
ion O   0.000000000000000   0.000000000000000  -0.150000000000000 0
ion O   0.500000000000000   0.000000000000000  -0.150000000000000 0
ion O   0.000000000000000   0.500000000000000  -0.150000000000000 0
ion O   0.500000000000000   0.500000000000000  -0.150000000000000 0
ion O  -0.010016866059844   0.009972751385308   0.244846935362165 1

# Forces in Lattice coordinates:
force Ni   0.002725253299955  -0.015780411510001   0.017360086795422 1
force Ni  -0.000921035943405  -0.019235852965640   0.005927646345265 1
force Ni   0.000924181967174  -0.004319857586851  -0.003409280176552 1
force Ni  -0.020174933150547  -0.037056222955045  -0.575772323793903 0
force Ni   0.039455390087668  -0.055781678508357  -0.066184007504289 0
force Ni   0.038839536286584   0.051191894092348  -0.005026338594412 0
force Ni  -0.040037694713545  -0.055989539663711  -0.141223040440042 0
force Ni  -0.039288902191126   0.054495652158379  -0.060039864907629 0
force V  -0.003219849480954  -0.005035400335711  -0.012058251926311 1
force V  -0.000000151219614  -0.002765333444574   0.000265469099218 1
force V  -0.002448466007371  -0.002944228920319  -0.005084584441119 1
force V   0.039905892164858  -0.004266713188238  -0.840796588724332 0
force V   0.017111502510522   0.058614939340499  -1.168956747163956 0
force V  -0.023043209610554   0.077160881596188  -1.225074629822871 0
force Co   0.003455388632571  -0.010212571807247  -0.012381275514781 1
force Cr  -0.002882509619487  -0.000845872954542  -0.025150818844554 1
force O   0.005212204632186  -0.003046206383463   0.004883660248866 1
force O   0.001247598737719  -0.007735947604548  -0.009982735219580 1
force O  -0.003690456901980  -0.003176428811415   0.007226328387897 1
force O  -0.001456126021513   0.003661942985711  -0.007258802510071 1
force O  -0.001099125902095   0.001241762528354   0.015617202915276 1
force O   0.001521739891248  -0.003722699909302  -0.002733065495602 1
force O   0.000477297064256  -0.005912983119532   0.004694315207947 1
force O   0.001616608324909  -0.004003536292392  -0.000526304286876 1
force O  -0.045157307339917   0.209368753604802   0.586144441053887 0
force O   0.062943134466801  -0.196576083066607   0.435968468282738 0
force O  -0.068721678791084   0.178751771114599   0.794467244903845 0
force O   0.048262604797253  -0.212515758879515   0.564363647537535 0
force O   0.010296668371218  -0.015544021055349   0.240833609461490 0
force O  -0.005138905041614  -0.007939534310597   0.180537939552085 0
force O   0.012260992975759   0.008025174104376   0.662892398710905 0
force O  -0.006185604171199  -0.001579295263885   0.742191453380130 0
force O   0.002734602104049   0.003511274463178   0.008001842699109 1

# Energy components:
   Eewald =     5092.6944850702639087
       EH =     7026.4329352522445333
     Eloc =   -14417.3832615157898545
      Enl =     -578.1990467541859289
   Epulay =       -0.0004910691131946
      Exc =     -255.9243323300560178
       KE =      981.0664532078554885
        U =        1.6345974765150511
-------------------------------------
     Etot =    -2149.6786606622672480
       TS =        0.0011749509592088
-------------------------------------
        F =    -2149.6798356132262597

IonicMinimize: Iter:  58  F: -2149.679835613226260  |grad|_K:  4.230e-04  alpha:  1.000e+00  linmin: -6.136e-03  t[s]: 290830.60
IonicMinimize: Converged (|Delta F|<1.000000e-04 for 3 iters).

#--- Lowdin population analysis ---
# oxidation-state Ni +3.481 +3.841 +3.308 +3.386 +3.711 +3.715 +3.711 +3.714
# magnetic-moments Ni +0.700 +0.960 -0.701 +0.854 +0.873 +0.875 +0.864 +0.877
# oxidation-state V +1.354 +1.177 +1.050 +1.013 +1.233 +1.262
# magnetic-moments V -2.046 +2.455 -2.864 -2.790 -2.143 +2.070
# oxidation-state Co +1.249
# magnetic-moments Co -2.657
# oxidation-state Cr +2.913
# magnetic-moments Cr -1.088
# oxidation-state O -0.874 -0.797 -0.814 -0.847 -0.816 -0.786 -0.811 -0.846 -0.834 -0.807 -0.823 -0.840 -0.694 -0.649 -0.714 -0.708 -0.517
# magnetic-moments O +0.074 +0.047 +0.099 +0.129 +0.012 +0.026 +0.027 -0.044 +0.126 +0.073 +0.089 +0.138 +0.229 +0.291 +0.163 +0.050 +1.041


Dumping 'run.ionpos' ... done
Dumping 'run.lattice' ... done
Dumping 'run.Ecomponents' ... done
End date and time: Tue May 20 21:40:14 2025  (Duration: 3-8:47:13.75)
Done!
