/var/spool/slurmd/job44142/slurm_script: line 9: module: command not found
/var/spool/slurmd/job44142/slurm_script: line 10: module: command not found

*************** JDFTx 1.7.0  ***************

Start date and time: Thu May  8 19:49:51 2025
Executable /data2/jt577/jdftx_eat_withLibXC/build/jdftx with command-line: -i /data2/jt577/May_2025/Relax_Mag/rel11+1_6/O/runs/calc_/run.in
Running on hosts (process indices):  node3401 (0-8)
Divided in process groups (process indices):  0 (0)  1 (1)  2 (2)  3 (3)  4 (4)  5 (5)  6 (6)  7 (7)  8 (8)
Resource initialization completed at t[s]:      0.00
Run totals: 9 processes, 90 threads, 0 GPUs


Input parsed successfully to the following command list (including defaults):

add-mix 
add-U 	Ni d 0.22 \
	V d 0.12 \
	Co d 0.2 \
	Cr d 0.16
basis kpoint-dependent
coords-type Lattice
core-overlap-check vector
coulomb-interaction Periodic
davidson-band-ratio 1.1
dump End IonicPositions Lattice Ecomponents
dump-name run.$VAR
elec-cutoff 30
elec-eigen-algo Davidson
elec-ex-corr gga-x-rpbe gga-c-pbe
elec-smearing Fermi 0.001
electronic-minimize  \
	dirUpdateScheme      FletcherReeves \
	linminMethod         DirUpdateRecommended \
	nIterations          1000 \
	history              15 \
	knormThreshold       0 \
	energyDiffThreshold  1e-06 \
	nEnergyDiff          5 \
	alphaTstart          1 \
	alphaTmin            1e-10 \
	updateTestStepSize   yes \
	alphaTreduceFactor   0.1 \
	alphaTincreaseFactor 3 \
	nAlphaAdjustMax      3 \
	wolfeEnergy          0.0001 \
	wolfeGradient        0.9 \
	fdTest               no
exchange-regularization WignerSeitzTruncated
fluid None
fluid-ex-corr (null) lda-PZ
fluid-gummel-loop 10 1.000000e-05
fluid-minimize  \
	dirUpdateScheme      PolakRibiere \
	linminMethod         DirUpdateRecommended \
	nIterations          100 \
	history              15 \
	knormThreshold       0 \
	energyDiffThreshold  0 \
	nEnergyDiff          2 \
	alphaTstart          1 \
	alphaTmin            1e-10 \
	updateTestStepSize   yes \
	alphaTreduceFactor   0.1 \
	alphaTincreaseFactor 3 \
	nAlphaAdjustMax      3 \
	wolfeEnergy          0.0001 \
	wolfeGradient        0.9 \
	fdTest               no
fluid-solvent H2O 55.338 ScalarEOS \
	epsBulk 78.4 \
	pMol 0.92466 \
	epsInf 1.77 \
	Pvap 1.06736e-10 \
	sigmaBulk 4.62e-05 \
	Rvdw 2.61727 \
	Res 1.42 \
	tauNuc 343133 \
	poleEl 15 7 1
forces-output-coords Positions
initial-magnetic-moments  \
	Ni 1 1 1 1 -1 -1 1 1 \
	V -1 1 -1 -1 -1 1 \
	Co -1 \
	Cr -1
initial-state run.$VAR
ion Ni  0.000000000000000   0.000000000000000   0.150000000000000 1
ion Ni  0.000000000000000   0.500000000000000   0.150000000000000 1
ion Ni  0.250000000000000   0.750000000000000   0.050000000000000 1
ion Ni  0.500000000000000   0.000000000000000  -0.050000000000000 0
ion Ni  0.250000000000000   0.250000000000000  -0.150000000000000 0
ion Ni  0.250000000000000   0.750000000000000  -0.150000000000000 0
ion Ni -0.250000000000000   0.250000000000000  -0.150000000000000 0
ion Ni -0.250000000000000   0.750000000000000  -0.150000000000000 0
ion V  0.500000000000000   0.000000000000000   0.150000000000000 1
ion V  0.250000000000000   0.250000000000000   0.050000000000000 1
ion V -0.250000000000000   0.750000000000000   0.050000000000000 1
ion V  0.000000000000000   0.000000000000000  -0.050000000000000 0
ion V  0.000000000000000   0.500000000000000  -0.050000000000000 0
ion V  0.500000000000000   0.500000000000000  -0.050000000000000 0
ion Co  0.500000000000000   0.500000000000000   0.150000000000000 1
ion Cr -0.250000000000000   0.250000000000000   0.050000000000000 1
ion O  0.250000000000000   0.250000000000000   0.150000000000000 1
ion O  0.250000000000000   0.750000000000000   0.150000000000000 1
ion O -0.250000000000000   0.250000000000000   0.150000000000000 1
ion O -0.250000000000000   0.750000000000000   0.150000000000000 1
ion O  0.000000000000000   0.000000000000000   0.050000000000000 1
ion O  0.500000000000000   0.000000000000000   0.050000000000000 1
ion O  0.000000000000000   0.500000000000000   0.050000000000000 1
ion O  0.500000000000000   0.500000000000000   0.050000000000000 1
ion O  0.250000000000000   0.250000000000000  -0.050000000000000 0
ion O  0.250000000000000   0.750000000000000  -0.050000000000000 0
ion O -0.250000000000000   0.250000000000000  -0.050000000000000 0
ion O -0.250000000000000   0.750000000000000  -0.050000000000000 0
ion O  0.000000000000000   0.000000000000000  -0.150000000000000 0
ion O  0.500000000000000   0.000000000000000  -0.150000000000000 0
ion O  0.000000000000000   0.500000000000000  -0.150000000000000 0
ion O  0.500000000000000   0.500000000000000  -0.150000000000000 0
ion O -0.000095572322686   0.000198307128402   0.224876729873325 1
ion-species SG15/$ID_ONCV_PBE.upf
ion-width 0
ionic-minimize  \
	dirUpdateScheme      L-BFGS \
	linminMethod         DirUpdateRecommended \
	nIterations          1000 \
	history              15 \
	knormThreshold       0.0001 \
	energyDiffThreshold  0.0001 \
	nEnergyDiff          3 \
	alphaTstart          1 \
	alphaTmin            1e-10 \
	updateTestStepSize   yes \
	alphaTreduceFactor   0.1 \
	alphaTincreaseFactor 3 \
	nAlphaAdjustMax      3 \
	wolfeEnergy          0.0001 \
	wolfeGradient        0.9 \
	fdTest               no
kpoint   0.500000000000   0.500000000000   0.500000000000  1.00000000000000
kpoint-folding 3 3 1 
latt-move-scale 1 1 1
latt-scale 1 1 1 
lattice  \
	   8.140000000000001    8.140000000000001    0.000000000000000  \
	   8.140000000000001   -8.140000000000001    0.000000000000000  \
	   0.000000000000000    0.000000000000000   40.700000000000003 
lattice-minimize  \
	dirUpdateScheme      L-BFGS \
	linminMethod         DirUpdateRecommended \
	nIterations          0 \
	history              15 \
	knormThreshold       0 \
	energyDiffThreshold  1e-06 \
	nEnergyDiff          2 \
	alphaTstart          1 \
	alphaTmin            1e-10 \
	updateTestStepSize   yes \
	alphaTreduceFactor   0.1 \
	alphaTincreaseFactor 3 \
	nAlphaAdjustMax      3 \
	wolfeEnergy          0.0001 \
	wolfeGradient        0.9 \
	fdTest               no
lcao-params -1 1e-06 0.001
pcm-variant GLSSA13
spintype z-spin
subspace-rotation-factor 1 yes
symmetries none
symmetry-threshold 0.0001


Applied RMS atom displacement 0 bohrs to make symmetries exact.

---------- Initializing the Grid ----------
R = 
[         8.14         8.14            0  ]
[         8.14        -8.14            0  ]
[            0            0         40.7  ]
unit cell volume = 5393.53
G =
[   0.385945   0.385945         -0  ]
[   0.385945  -0.385945         -0  ]
[         -0         -0   0.154378  ]
Minimum fftbox size, Smin = [  60  60  204  ]
Chosen fftbox size, S = [  60  60  210  ]

---------- Exchange Correlation functional ----------
Initialized LibXC exchange functional 'Hammer, Hansen, and Norskov'
Initialized LibXC correlation functional 'Perdew, Burke & Ernzerhof'

---------- Setting up pseudopotentials ----------
Width of ionic core gaussian charges (only for fluid interactions / plotting) set to 0

Reading pseudopotential file '/data2/jt577/jdftx_eat_withLibXC/build/pseudopotentials/SG15/Ni_ONCV_PBE.upf':
  'Ni' pseudopotential, 'PBE' functional
  Generated using ONCVPSP code by D. R. Hamann
  Author: Martin Schlipf and Francois Gygi  Date: 150915.
  18 valence electrons, 4 orbitals, 6 projectors, 1292 radial grid points, with lMax = 2
  Transforming local potential to a uniform radial grid of dG=0.02 with 1419 points.
  Transforming nonlocal projectors to a uniform radial grid of dG=0.02 with 528 points.
    3S    l: 0   occupation:  2.0   eigenvalue: -4.081355
    3P    l: 1   occupation:  6.0   eigenvalue: -2.623460
    4S    l: 0   occupation:  2.0   eigenvalue: -0.207378
    3D    l: 2   occupation:  8.0   eigenvalue: -0.326118
  Transforming atomic orbitals to a uniform radial grid of dG=0.02 with 528 points.
  WARNING: large normalization error in atomic orbital 1s (integral: 0.000006).
  Core radius for overlap checks: 1.99 bohrs.
  Reading pulay file /data2/jt577/jdftx_eat_withLibXC/build/pseudopotentials/SG15/Ni_ONCV_PBE.pulay ... using dE_dnG = -7.250568e-04 computed for Ecut = 30.

Reading pseudopotential file '/data2/jt577/jdftx_eat_withLibXC/build/pseudopotentials/SG15/V_ONCV_PBE.upf':
  'V' pseudopotential, 'PBE' functional
  Generated using ONCVPSP code by D. R. Hamann
  Author: Martin Schlipf and Francois Gygi  Date: 150915.
  13 valence electrons, 4 orbitals, 6 projectors, 1536 radial grid points, with lMax = 2
  Transforming local potential to a uniform radial grid of dG=0.02 with 1419 points.
  Transforming nonlocal projectors to a uniform radial grid of dG=0.02 with 528 points.
    3S    l: 0   occupation:  2.0   eigenvalue: -2.581105
    3P    l: 1   occupation:  6.0   eigenvalue: -1.618486
    4S    l: 0   occupation:  2.0   eigenvalue: -0.172804
    3D    l: 2   occupation:  3.0   eigenvalue: -0.189795
  Transforming atomic orbitals to a uniform radial grid of dG=0.02 with 528 points.
  Core radius for overlap checks: 1.80 bohrs.
  Reading pulay file /data2/jt577/jdftx_eat_withLibXC/build/pseudopotentials/SG15/V_ONCV_PBE.pulay ... using dE_dnG = -1.698632e-04 computed for Ecut = 30.

Reading pseudopotential file '/data2/jt577/jdftx_eat_withLibXC/build/pseudopotentials/SG15/Co_ONCV_PBE.upf':
  'Co' pseudopotential, 'PBE' functional
  Generated using ONCVPSP code by D. R. Hamann
  Author: Martin Schlipf and Francois Gygi  Date: 150915.
  17 valence electrons, 4 orbitals, 6 projectors, 1388 radial grid points, with lMax = 2
  Transforming local potential to a uniform radial grid of dG=0.02 with 1419 points.
  Transforming nonlocal projectors to a uniform radial grid of dG=0.02 with 528 points.
    3S    l: 0   occupation:  2.0   eigenvalue: -3.763303
    3P    l: 1   occupation:  6.0   eigenvalue: -2.412101
    4S    l: 0   occupation:  2.0   eigenvalue: -0.201022
    3D    l: 2   occupation:  7.0   eigenvalue: -0.301498
  Transforming atomic orbitals to a uniform radial grid of dG=0.02 with 528 points.
  Core radius for overlap checks: 1.94 bohrs.
  Reading pulay file /data2/jt577/jdftx_eat_withLibXC/build/pseudopotentials/SG15/Co_ONCV_PBE.pulay ... using dE_dnG = -9.787391e-05 computed for Ecut = 30.

Reading pseudopotential file '/data2/jt577/jdftx_eat_withLibXC/build/pseudopotentials/SG15/Cr_ONCV_PBE.upf':
  'Cr' pseudopotential, 'PBE' functional
  Generated using ONCVPSP code by D. R. Hamann
  Author: Martin Schlipf and Francois Gygi  Date: 150915.
  14 valence electrons, 4 orbitals, 6 projectors, 1160 radial grid points, with lMax = 2
  Transforming local potential to a uniform radial grid of dG=0.02 with 1419 points.
  Transforming nonlocal projectors to a uniform radial grid of dG=0.02 with 528 points.
    3S    l: 0   occupation:  2.0   eigenvalue: -2.865131
    3P    l: 1   occupation:  6.0   eigenvalue: -1.810600
    4S    l: 0   occupation:  2.0   eigenvalue: -0.180525
    3D    l: 2   occupation:  4.0   eigenvalue: -0.220312
  Transforming atomic orbitals to a uniform radial grid of dG=0.02 with 528 points.
  WARNING: large normalization error in atomic orbital 1s (integral: 0.000001).
  Core radius for overlap checks: 2.10 bohrs.
  Reading pulay file /data2/jt577/jdftx_eat_withLibXC/build/pseudopotentials/SG15/Cr_ONCV_PBE.pulay ... using dE_dnG = -9.817895e-06 computed for Ecut = 30.

Reading pseudopotential file '/data2/jt577/jdftx_eat_withLibXC/build/pseudopotentials/SG15/O_ONCV_PBE.upf':
  'O' pseudopotential, 'PBE' functional
  Generated using ONCVPSP code by D. R. Hamann
  Author: Martin Schlipf and Francois Gygi  Date: 150915.
  6 valence electrons, 2 orbitals, 4 projectors, 936 radial grid points, with lMax = 1
  Transforming local potential to a uniform radial grid of dG=0.02 with 1419 points.
  Transforming nonlocal projectors to a uniform radial grid of dG=0.02 with 528 points.
    2S    l: 0   occupation:  2.0   eigenvalue: -0.880572
    2P    l: 1   occupation:  4.0   eigenvalue: -0.331869
  Transforming atomic orbitals to a uniform radial grid of dG=0.02 with 528 points.
  Core radius for overlap checks: 1.29 bohrs.
  Reading pulay file /data2/jt577/jdftx_eat_withLibXC/build/pseudopotentials/SG15/O_ONCV_PBE.pulay ... using dE_dnG = -8.209514e-03 computed for Ecut = 30.

Initialized 5 species with 33 total atoms.

Folded 1 k-points by 3x3x1 to 9 k-points.

---------- Setting up k-points, bands, fillings ----------
No reducable k-points. 
Computing the number of bands and number of electrons
Calculating initial fillings.
nElectrons: 355.000000   nBands: 228   nStates: 18

----- Setting up reduced wavefunction bases (one per k-point) -----
average nbasis = 42312.000 , ideal nbasis = 42330.081

---------- Setting up ewald sum ----------
Optimum gaussian width for ewald sums = 3.906449 bohr.
Real space sum over 605 unit cells with max indices [  5  5  2  ]
Reciprocal space sum over 5915 terms with max indices [  6  6  17  ]

---------- Allocating electronic variables ----------
Initializing wave functions:  linear combination of atomic orbitals
Ni (M=1) pseudo-atom majority spin occupations:   s ( 1 0.5 )  p ( 3 )  d ( 5 )
Ni (M=1) pseudo-atom minority spin occupations:   s ( 1 0 )  p ( 3 )  d ( 4.5 )
V (M=1) pseudo-atom majority spin occupations:   s ( 1 0 )  p ( 3 )  d ( 3 )
V (M=1) pseudo-atom minority spin occupations:   s ( 1 0 )  p ( 3 )  d ( 2 )
Co (M=1) pseudo-atom majority spin occupations:   s ( 1 0 )  p ( 3 )  d ( 5 )
Co (M=1) pseudo-atom minority spin occupations:   s ( 1 0 )  p ( 3 )  d ( 4 )
Cr (M=1) pseudo-atom majority spin occupations:   s ( 1 0 )  p ( 3 )  d ( 3.5 )
Cr (M=1) pseudo-atom minority spin occupations:   s ( 1 0 )  p ( 3 )  d ( 2.5 )
O pseudo-atom occupations:   s ( 2 )  p ( 4 )
	FillingsUpdate:  mu: +0.068549353  nElectrons: 355.000000  magneticMoment: [ Abs: 0.22087  Tot: -0.00000 ]
LCAOMinimize: Iter:   0  F: -1987.2974271954728920  |grad|_K:  6.018e-03  alpha:  1.000e+00
	FillingsUpdate:  mu: +0.052944767  nElectrons: 355.000000  magneticMoment: [ Abs: 0.22522  Tot: +0.00000 ]
LCAOMinimize: Iter:   1  F: -1988.2296921323379593  |grad|_K:  6.411e-03  alpha:  2.518e-02  linmin: -9.313e-02  cgtest:  9.021e-01  t[s]:     43.86
LCAOMinimize: 	Wrong curvature in test step, increasing alphaT to 7.552630e-02.
	FillingsUpdate:  mu: +0.033240444  nElectrons: 355.000000  magneticMoment: [ Abs: 0.22153  Tot: +0.00000 ]
LCAOMinimize: Iter:   2  F: -1989.5255981108291508  |grad|_K:  7.015e-03  alpha: -1.021e-01  linmin: -1.033e-01  cgtest:  8.680e-01  t[s]:     57.38
	FillingsUpdate:  mu: -0.038945750  nElectrons: 355.000000  magneticMoment: [ Abs: 0.26503  Tot: +0.00000 ]
LCAOMinimize: Iter:   3  F: -1992.1629453037128314  |grad|_K:  8.742e-03  alpha:  3.381e-02  linmin: -1.203e-01  cgtest:  7.326e-01  t[s]:     72.15
	FillingsUpdate:  mu: -0.071042887  nElectrons: 355.000000  magneticMoment: [ Abs: 0.30119  Tot: -0.00000 ]
LCAOMinimize: Iter:   4  F: -1993.8118635885271033  |grad|_K:  1.085e-02  alpha:  8.745e-03  linmin: -9.354e-02  cgtest:  7.709e-01  t[s]:     86.75
LCAOMinimize: 	Wrong curvature in test step, increasing alphaT to 2.623445e-02.
	FillingsUpdate:  mu: +0.828472415  nElectrons: 355.000000  magneticMoment: [ Abs: 1.03246  Tot: -0.00000 ]
LCAOMinimize: Iter:   5  F: -1998.6108036562459347  |grad|_K:  4.851e-02  alpha: -3.412e-03  linmin:  7.039e-02  cgtest: -5.772e-02  t[s]:    100.33
LCAOMinimize: 	Bad step direction: g.d > 0.
LCAOMinimize: 	Undoing step.
LCAOMinimize: 	Step failed: resetting search direction.
	FillingsUpdate:  mu: +0.828472415  nElectrons: 355.000000  magneticMoment: [ Abs: 1.03246  Tot: -0.00000 ]
LCAOMinimize: Iter:   6  F: -1998.6108036562459347  |grad|_K:  4.851e-02  alpha:  0.000e+00
LCAOMinimize: 	Step increased F by 4.446861e+02, reducing alpha to 3.896819e-02.
LCAOMinimize: 	Step increased F by 3.715075e+00, reducing alpha to 3.896819e-03.
	FillingsUpdate:  mu: +0.531978432  nElectrons: 355.000000  magneticMoment: [ Abs: 2.44535  Tot: +0.00000 ]
LCAOMinimize: Iter:   7  F: -2003.2758822536734442  |grad|_K:  2.848e-02  alpha:  3.897e-03  linmin: -9.236e-02  cgtest:  1.370e+00  t[s]:    145.90
LCAOMinimize: Encountered beta<0, resetting CG.
LCAOMinimize: 	Wrong curvature in test step, increasing alphaT to 1.169046e-02.
	FillingsUpdate:  mu: +0.194041495  nElectrons: 355.000000  magneticMoment: [ Abs: 2.27254  Tot: +0.00000 ]
LCAOMinimize: Iter:   8  F: -2008.6621450287304924  |grad|_K:  1.743e-02  alpha: -2.418e-03  linmin: -7.205e-02  cgtest:  8.799e-01  t[s]:    159.68
LCAOMinimize: Encountered beta<0, resetting CG.
LCAOMinimize: 	Step increased F by 1.599625e+02, reducing alpha to 1.910880e-02.
LCAOMinimize: 	Step increased F by 1.455185e+00, reducing alpha to 1.910880e-03.
	FillingsUpdate:  mu: +0.160149077  nElectrons: 355.000000  magneticMoment: [ Abs: 2.28358  Tot: -0.00000 ]
LCAOMinimize: Iter:   9  F: -2009.0905994740789993  |grad|_K:  1.490e-02  alpha:  1.911e-03  linmin: -7.498e-02  cgtest:  1.071e+00  t[s]:    195.05
LCAOMinimize: Encountered beta<0, resetting CG.
LCAOMinimize: 	Wrong curvature in test step, increasing alphaT to 5.732640e-03.
	FillingsUpdate:  mu: +0.112121000  nElectrons: 355.000000  magneticMoment: [ Abs: 2.72558  Tot: +0.00000 ]
LCAOMinimize: Iter:  10  F: -2009.6037513627109092  |grad|_K:  1.675e-02  alpha: -3.401e-03  linmin: -5.789e-02  cgtest:  7.625e-01  t[s]:    208.63
LCAOMinimize: 	Step increased F by 3.128189e+02, reducing alpha to 2.049872e-02.
LCAOMinimize: 	Step increased F by 6.964888e+00, reducing alpha to 2.049872e-03.
	FillingsUpdate:  mu: -0.064273191  nElectrons: 355.000000  magneticMoment: [ Abs: 3.72196  Tot: +0.00000 ]
LCAOMinimize: Iter:  11  F: -2010.4227140275620513  |grad|_K:  1.264e-02  alpha:  2.050e-03  linmin: -6.457e-02  cgtest:  7.837e-01  t[s]:    243.73
LCAOMinimize: Encountered beta<0, resetting CG.
LCAOMinimize: 	Predicted alpha/alphaT>3.000000, increasing alphaT to 6.149617e-03.
	FillingsUpdate:  mu: -0.228009295  nElectrons: 355.000000  magneticMoment: [ Abs: 4.78304  Tot: -0.00000 ]
LCAOMinimize: Iter:  12  F: -2010.9456781102437617  |grad|_K:  8.334e-03  alpha:  6.921e-03  linmin: -2.494e-03  cgtest:  1.053e-01  t[s]:    262.92
LCAOMinimize: 	Predicted alpha/alphaT>3.000000, increasing alphaT to 2.076282e-02.
LCAOMinimize: 	Predicted alpha/alphaT>3.000000, increasing alphaT to 6.228847e-02.
	FillingsUpdate:  mu: +0.313573389  nElectrons: 355.000000  magneticMoment: [ Abs: 1.24337  Tot: -0.00000 ]
LCAOMinimize: Iter:  13  F: -2011.4599657574076446  |grad|_K:  1.461e-02  alpha:  1.097e-01  linmin:  2.704e-02  cgtest:  8.777e-01  t[s]:    286.32
	FillingsUpdate:  mu: +0.384265949  nElectrons: 355.000000  magneticMoment: [ Abs: 1.64212  Tot: +0.00000 ]
LCAOMinimize: Iter:  14  F: -2012.4067220587523934  |grad|_K:  1.494e-02  alpha:  4.484e-03  linmin: -7.415e-02  cgtest:  1.007e+00  t[s]:    300.90
LCAOMinimize: 	Wrong curvature in test step, increasing alphaT to 1.345169e-02.
	FillingsUpdate:  mu: +0.328431690  nElectrons: 355.000000  magneticMoment: [ Abs: 1.74073  Tot: -0.00000 ]
LCAOMinimize: Iter:  15  F: -2013.4425856277380262  |grad|_K:  1.601e-02  alpha: -2.991e-02  linmin: -1.252e-01  cgtest:  8.852e-01  t[s]:    314.49
LCAOMinimize: 	Step increased F by 1.701039e+02, reducing alpha to 1.831526e-02.
	FillingsUpdate:  mu: +0.258527631  nElectrons: 355.000000  magneticMoment: [ Abs: 2.76873  Tot: +0.00000 ]
LCAOMinimize: Iter:  16  F: -2020.7447532321850758  |grad|_K:  1.261e-02  alpha:  1.832e-02  linmin: -1.392e-01  cgtest:  4.696e-01  t[s]:    339.60
LCAOMinimize: 	Step increased F by 3.800412e+00, reducing alpha to 5.053052e-03.
	FillingsUpdate:  mu: +0.243225561  nElectrons: 355.000000  magneticMoment: [ Abs: 2.96164  Tot: +0.00000 ]
LCAOMinimize: Iter:  17  F: -2021.7419043927714029  |grad|_K:  1.178e-02  alpha:  5.053e-03  linmin: -1.403e-01  cgtest:  9.678e-01  t[s]:    364.61
LCAOMinimize: Encountered beta<0, resetting CG.
LCAOMinimize: 	Wrong curvature in test step, increasing alphaT to 1.515916e-02.
	FillingsUpdate:  mu: +0.219794127  nElectrons: 355.000000  magneticMoment: [ Abs: 3.09784  Tot: -0.00000 ]
LCAOMinimize: Iter:  18  F: -2022.4100647958084664  |grad|_K:  1.152e-02  alpha: -2.513e-01  linmin: -1.461e-01  cgtest:  9.621e-01  t[s]:    378.29
LCAOMinimize: 	Step increased F by 4.953094e+01, reducing alpha to 2.749717e-02.
	FillingsUpdate:  mu: -0.093485955  nElectrons: 355.000000  magneticMoment: [ Abs: 4.87997  Tot: +0.00000 ]
LCAOMinimize: Iter:  19  F: -2026.4998914116358719  |grad|_K:  9.121e-03  alpha:  2.750e-02  linmin:  8.925e-03  cgtest:  4.907e-01  t[s]:    403.25
	FillingsUpdate:  mu: -0.097675793  nElectrons: 355.000000  magneticMoment: [ Abs: 7.16388  Tot: +0.00000 ]
LCAOMinimize: Iter:  20  F: -2027.6660173903405848  |grad|_K:  7.785e-03  alpha:  3.089e-02  linmin:  7.133e-03  cgtest: -2.213e-01  t[s]:    418.41
	FillingsUpdate:  mu: -0.031283590  nElectrons: 355.000000  magneticMoment: [ Abs: 7.88245  Tot: -0.00000 ]
LCAOMinimize: Iter:  21  F: -2028.1492590234056479  |grad|_K:  5.284e-03  alpha:  1.557e-02  linmin: -8.246e-03  cgtest:  4.893e-01  t[s]:    433.32
	FillingsUpdate:  mu: -0.034366359  nElectrons: 355.000000  magneticMoment: [ Abs: 7.63601  Tot: +0.00000 ]
LCAOMinimize: Iter:  22  F: -2028.5633693121696979  |grad|_K:  2.898e-03  alpha:  2.770e-02  linmin: -3.145e-02  cgtest:  5.395e-01  t[s]:    448.04
	FillingsUpdate:  mu: -0.104185882  nElectrons: 355.000000  magneticMoment: [ Abs: 7.66288  Tot: +0.00000 ]
LCAOMinimize: Iter:  23  F: -2028.6933324703800281  |grad|_K:  2.419e-03  alpha:  3.231e-02  linmin: -4.452e-03  cgtest:  1.163e-02  t[s]:    462.68
	FillingsUpdate:  mu: -0.094379023  nElectrons: 355.000000  magneticMoment: [ Abs: 7.92414  Tot: -0.00000 ]
LCAOMinimize: Iter:  24  F: -2028.8988799753658441  |grad|_K:  3.145e-03  alpha:  6.934e-02  linmin:  3.715e-04  cgtest: -1.368e-01  t[s]:    477.45
	FillingsUpdate:  mu: -0.072815089  nElectrons: 355.000000  magneticMoment: [ Abs: 8.30532  Tot: +0.00000 ]
LCAOMinimize: Iter:  25  F: -2028.9709102754070500  |grad|_K:  1.421e-03  alpha:  1.600e-02  linmin: -9.786e-04  cgtest:  4.890e-01  t[s]:    492.09
LCAOMinimize: Encountered beta<0, resetting CG.
	FillingsUpdate:  mu: -0.080549644  nElectrons: 355.000000  magneticMoment: [ Abs: 8.78546  Tot: -0.00000 ]
LCAOMinimize: Iter:  26  F: -2029.0179721012791560  |grad|_K:  7.240e-04  alpha:  4.181e-02  linmin: -3.076e-02  cgtest:  8.190e-01  t[s]:    506.84
LCAOMinimize: Encountered beta<0, resetting CG.
	FillingsUpdate:  mu: -0.058306134  nElectrons: 355.000000  magneticMoment: [ Abs: 9.41829  Tot: +0.00000 ]
LCAOMinimize: Iter:  27  F: -2029.0421161241692971  |grad|_K:  9.730e-04  alpha:  8.892e-02  linmin: -3.387e-03  cgtest:  1.268e-01  t[s]:    521.57
	FillingsUpdate:  mu: -0.058197657  nElectrons: 355.000000  magneticMoment: [ Abs: 10.15782  Tot: -0.00000 ]
LCAOMinimize: Iter:  28  F: -2029.0658175088815369  |grad|_K:  1.099e-03  alpha:  5.269e-02  linmin: -3.505e-05  cgtest:  3.930e-02  t[s]:    536.28
	FillingsUpdate:  mu: -0.070190470  nElectrons: 355.000000  magneticMoment: [ Abs: 10.88652  Tot: +0.00000 ]
LCAOMinimize: Iter:  29  F: -2029.0927907307336682  |grad|_K:  7.917e-04  alpha:  4.809e-02  linmin: -1.360e-03  cgtest: -1.737e-01  t[s]:    550.87
	FillingsUpdate:  mu: -0.040997178  nElectrons: 355.000000  magneticMoment: [ Abs: 12.27949  Tot: -0.00000 ]
LCAOMinimize: Iter:  30  F: -2029.1274783274652691  |grad|_K:  9.122e-04  alpha:  1.050e-01  linmin: -1.636e-04  cgtest: -3.478e-01  t[s]:    565.53
LCAOMinimize: None of the convergence criteria satisfied after 30 iterations.


---- Citations for features of the code used in this run ----

   Software package:
      R. Sundararaman, K. Letchworth-Weaver, K.A. Schwarz, D. Gunceler, Y. Ozhabes and T.A. Arias, 'JDFTx: software for joint density-functional theory', SoftwareX 6, 278 (2017)

   Simplified rotationally-invariant DFT+U:
      S. L. Dudarev et al., Phys. Rev. B 57, 1505 (1998)

   LibXC library of exchange-correlation functions:
      M. A. L. Marques, M. J. T. Oliveira and T. Burnus, Comput. Phys. Commun. 183, 2272 (2012)

   Hammer, Hansen, and Norskov exchange functional:
      B. Hammer, L. B. Hansen, and J. K. Nørskov, Phys. Rev. B 59, 7413 (1999)

   Perdew, Burke & Ernzerhof correlation functional:
      J. P. Perdew, K. Burke, and M. Ernzerhof, Phys. Rev. Lett. 77, 3865 (1996)

   Pseudopotentials:
      M Schlipf and F Gygi, Comput. Phys. Commun. 196, 36 (2015)

   Total energy minimization with Auxiliary Hamiltonian:
      C. Freysoldt, S. Boeck, and J. Neugebauer, Phys. Rev. B 79, 241103(R) (2009)

This list may not be complete. Please suggest additional citations or
report any other bugs at https://github.com/shankar1729/jdftx/issues

Initialization completed successfully at t[s]:    572.25


-------- Electronic minimization -----------
	FillingsUpdate:  mu: -0.040997132  nElectrons: 355.000000  magneticMoment: [ Abs: 12.27949  Tot: -0.00000 ]
ElecMinimize: Iter:   0  F: -2029.127478327463450  |grad|_K:  1.196e-03  alpha:  1.000e+00
	FillingsUpdate:  mu: +0.481438438  nElectrons: 355.000000  magneticMoment: [ Abs: 12.18376  Tot: -0.00000 ]
	SubspaceRotationAdjust: set factor to 0.993
ElecMinimize: Iter:   1  F: -2096.164840221305894  |grad|_K:  1.462e-03  alpha:  4.810e-01  linmin:  1.353e-02  t[s]:    662.89
	FillingsUpdate:  mu: +1.031240997  nElectrons: 355.000000  magneticMoment: [ Abs: 14.60471  Tot: -0.00000 ]
	SubspaceRotationAdjust: set factor to 0.65
ElecMinimize: Iter:   2  F: -2100.029354318870901  |grad|_K:  1.784e-03  alpha:  5.481e-02  linmin:  5.526e-03  t[s]:    742.75
	FillingsUpdate:  mu: +0.541430159  nElectrons: 355.000000  magneticMoment: [ Abs: 17.11392  Tot: +0.00000 ]
	SubspaceRotationAdjust: set factor to 0.753
ElecMinimize: Iter:   3  F: -2114.211626820746460  |grad|_K:  7.960e-04  alpha:  4.604e-02  linmin: -5.969e-05  t[s]:    822.26
ElecMinimize: 	Predicted alpha/alphaT>3.000000, increasing alphaT to 1.381193e-01.
	FillingsUpdate:  mu: +0.556960081  nElectrons: 355.000000  magneticMoment: [ Abs: 16.84284  Tot: +0.00000 ]
	SubspaceRotationAdjust: set factor to 0.619
ElecMinimize: Iter:   4  F: -2133.993361850551992  |grad|_K:  7.361e-04  alpha:  1.692e-01  linmin: -9.895e-04  t[s]:    931.41
	FillingsUpdate:  mu: +0.462475494  nElectrons: 355.000000  magneticMoment: [ Abs: 17.48893  Tot: -0.00000 ]
	SubspaceRotationAdjust: set factor to 1.04
ElecMinimize: Iter:   5  F: -2136.229249732417429  |grad|_K:  5.141e-04  alpha:  1.320e-02  linmin: -2.958e-03  t[s]:   1007.23
ElecMinimize: 	Predicted alpha/alphaT>3.000000, increasing alphaT to 3.960357e-02.
	FillingsUpdate:  mu: +0.561109513  nElectrons: 355.000000  magneticMoment: [ Abs: 18.47462  Tot: +0.00000 ]
	SubspaceRotationAdjust: set factor to 0.66
ElecMinimize: Iter:   6  F: -2139.244926016648606  |grad|_K:  7.906e-04  alpha:  3.900e-02  linmin:  5.609e-04  t[s]:   1119.19
	FillingsUpdate:  mu: +0.613038202  nElectrons: 355.000000  magneticMoment: [ Abs: 19.40152  Tot: -0.00000 ]
	SubspaceRotationAdjust: set factor to 0.382
ElecMinimize: Iter:   7  F: -2140.596531432238862  |grad|_K:  8.421e-04  alpha:  1.370e-02  linmin: -4.400e-04  t[s]:   1198.52
	FillingsUpdate:  mu: +0.424441654  nElectrons: 355.000000  magneticMoment: [ Abs: 21.69071  Tot: -0.00000 ]
	SubspaceRotationAdjust: set factor to 0.275
ElecMinimize: Iter:   8  F: -2142.804717198968774  |grad|_K:  4.926e-04  alpha:  1.642e-02  linmin:  7.762e-04  t[s]:   1278.13
	FillingsUpdate:  mu: +0.370524263  nElectrons: 355.000000  magneticMoment: [ Abs: 21.87221  Tot: -0.00000 ]
	SubspaceRotationAdjust: set factor to 0.265
ElecMinimize: Iter:   9  F: -2143.082216068587059  |grad|_K:  3.850e-04  alpha:  8.074e-03  linmin: -9.919e-05  t[s]:   1357.63
	FillingsUpdate:  mu: +0.320771501  nElectrons: 355.000000  magneticMoment: [ Abs: 22.11721  Tot: -0.00000 ]
	SubspaceRotationAdjust: set factor to 0.262
ElecMinimize: Iter:  10  F: -2143.414821955665957  |grad|_K:  3.593e-04  alpha:  1.223e-02  linmin: -1.095e-04  t[s]:   1439.52
	FillingsUpdate:  mu: +0.279807417  nElectrons: 355.000000  magneticMoment: [ Abs: 22.37672  Tot: -0.00000 ]
	SubspaceRotationAdjust: set factor to 0.197
ElecMinimize: Iter:  11  F: -2143.873790652215121  |grad|_K:  3.810e-04  alpha:  1.896e-02  linmin: -1.614e-04  t[s]:   1521.14
	FillingsUpdate:  mu: +0.312119805  nElectrons: 355.000000  magneticMoment: [ Abs: 22.68099  Tot: +0.00000 ]
	SubspaceRotationAdjust: set factor to 0.13
	SubspaceRotationAdjust: resetting CG because factor has changed by 0.13022
ElecMinimize: 	State modified externally: resetting search direction.
ElecMinimize: Iter:  12  F: -2144.389859122634334  |grad|_K:  3.261e-04  alpha:  1.927e-02
ElecMinimize: 	Predicted alpha/alphaT>3.000000, increasing alphaT to 5.782237e-02.
	FillingsUpdate:  mu: +0.202834120  nElectrons: 355.000000  magneticMoment: [ Abs: 22.79264  Tot: +0.00000 ]
	SubspaceRotationAdjust: set factor to 0.134
ElecMinimize: Iter:  13  F: -2146.790725878622197  |grad|_K:  1.319e-04  alpha:  1.121e-01  linmin: -2.048e-02  t[s]:   1728.89
	FillingsUpdate:  mu: +0.147048134  nElectrons: 355.000000  magneticMoment: [ Abs: 22.39040  Tot: +0.00000 ]
	SubspaceRotationAdjust: set factor to 0.14
ElecMinimize: Iter:  14  F: -2147.708191993898708  |grad|_K:  8.919e-05  alpha:  2.354e-01  linmin: -6.841e-04  t[s]:   1809.63
	FillingsUpdate:  mu: +0.144001177  nElectrons: 355.000000  magneticMoment: [ Abs: 22.31082  Tot: -0.00000 ]
	SubspaceRotationAdjust: set factor to 0.114
ElecMinimize: Iter:  15  F: -2147.986993270462790  |grad|_K:  7.469e-05  alpha:  1.889e-01  linmin:  6.413e-05  t[s]:   1888.33
	FillingsUpdate:  mu: +0.149734858  nElectrons: 355.000000  magneticMoment: [ Abs: 22.38175  Tot: -0.00000 ]
	SubspaceRotationAdjust: set factor to 0.153
ElecMinimize: Iter:  16  F: -2148.272244513751957  |grad|_K:  6.892e-05  alpha:  2.985e-01  linmin:  2.183e-05  t[s]:   1969.62
	FillingsUpdate:  mu: +0.098888953  nElectrons: 355.000000  magneticMoment: [ Abs: 22.61370  Tot: -0.00000 ]
	SubspaceRotationAdjust: set factor to 0.137
ElecMinimize: Iter:  17  F: -2148.433523913688532  |grad|_K:  5.797e-05  alpha:  1.994e-01  linmin: -1.246e-05  t[s]:   2044.84
	FillingsUpdate:  mu: +0.074166727  nElectrons: 355.000000  magneticMoment: [ Abs: 22.96983  Tot: +0.00000 ]
	SubspaceRotationAdjust: set factor to 0.155
ElecMinimize: Iter:  18  F: -2148.594176906205576  |grad|_K:  4.843e-05  alpha:  2.741e-01  linmin:  6.860e-06  t[s]:   2124.64
	FillingsUpdate:  mu: +0.091157362  nElectrons: 355.000000  magneticMoment: [ Abs: 23.26959  Tot: +0.00000 ]
	SubspaceRotationAdjust: set factor to 0.171
ElecMinimize: Iter:  19  F: -2148.741670612342659  |grad|_K:  4.833e-05  alpha:  3.820e-01  linmin:  1.826e-04  t[s]:   2203.94
	FillingsUpdate:  mu: +0.115178201  nElectrons: 355.000000  magneticMoment: [ Abs: 23.52863  Tot: -0.00000 ]
	SubspaceRotationAdjust: set factor to 0.187
ElecMinimize: Iter:  20  F: -2148.853691721254108  |grad|_K:  5.512e-05  alpha:  3.120e-01  linmin:  7.240e-06  t[s]:   2280.38
	FillingsUpdate:  mu: +0.089332198  nElectrons: 355.000000  magneticMoment: [ Abs: 23.92936  Tot: +0.00000 ]
	SubspaceRotationAdjust: set factor to 0.155
ElecMinimize: Iter:  21  F: -2148.934313730297163  |grad|_K:  5.569e-05  alpha:  1.344e-01  linmin: -1.519e-04  t[s]:   2357.09
	FillingsUpdate:  mu: +0.083433487  nElectrons: 355.000000  magneticMoment: [ Abs: 24.59700  Tot: -0.00000 ]
	SubspaceRotationAdjust: set factor to 0.183
ElecMinimize: Iter:  22  F: -2149.053749819680434  |grad|_K:  5.937e-05  alpha:  2.059e-01  linmin:  1.030e-04  t[s]:   2431.65
	FillingsUpdate:  mu: +0.087862248  nElectrons: 355.000000  magneticMoment: [ Abs: 24.91175  Tot: -0.00000 ]
	SubspaceRotationAdjust: set factor to 0.23
ElecMinimize: Iter:  23  F: -2149.144155555778980  |grad|_K:  6.260e-05  alpha:  1.315e-01  linmin: -2.048e-05  t[s]:   2507.68
	FillingsUpdate:  mu: +0.104353052  nElectrons: 355.000000  magneticMoment: [ Abs: 25.13512  Tot: +0.00000 ]
	SubspaceRotationAdjust: set factor to 0.307
ElecMinimize: Iter:  24  F: -2149.194902942032513  |grad|_K:  5.818e-05  alpha:  5.422e-02  linmin: -2.704e-04  t[s]:   2587.55
	FillingsUpdate:  mu: +0.109016861  nElectrons: 355.000000  magneticMoment: [ Abs: 25.31488  Tot: +0.00000 ]
	SubspaceRotationAdjust: set factor to 0.319
ElecMinimize: Iter:  25  F: -2149.238464397110874  |grad|_K:  5.517e-05  alpha:  5.572e-02  linmin:  2.060e-04  t[s]:   2662.54
	FillingsUpdate:  mu: +0.107915260  nElectrons: 355.000000  magneticMoment: [ Abs: 25.32632  Tot: +0.00000 ]
	SubspaceRotationAdjust: set factor to 0.362
ElecMinimize: Iter:  26  F: -2149.243070752597760  |grad|_K:  5.421e-05  alpha:  6.861e-03  linmin: -4.512e-04  t[s]:   2738.08
ElecMinimize: 	Predicted alpha/alphaT>3.000000, increasing alphaT to 2.058258e-02.
	FillingsUpdate:  mu: +0.092085747  nElectrons: 355.000000  magneticMoment: [ Abs: 25.33148  Tot: -0.00000 ]
	SubspaceRotationAdjust: set factor to 0.532
ElecMinimize: Iter:  27  F: -2149.257391460205781  |grad|_K:  4.299e-05  alpha:  1.857e-02  linmin:  1.258e-04  t[s]:   2847.09
	FillingsUpdate:  mu: +0.087313250  nElectrons: 355.000000  magneticMoment: [ Abs: 25.32632  Tot: +0.00000 ]
	SubspaceRotationAdjust: set factor to 0.695
ElecMinimize: Iter:  28  F: -2149.259952176436855  |grad|_K:  4.073e-05  alpha:  8.394e-03  linmin: -4.732e-05  t[s]:   2925.03
	FillingsUpdate:  mu: +0.081371684  nElectrons: 355.000000  magneticMoment: [ Abs: 25.31664  Tot: +0.00000 ]
	SubspaceRotationAdjust: set factor to 0.915
ElecMinimize: Iter:  29  F: -2149.262344435921932  |grad|_K:  3.835e-05  alpha:  7.957e-03  linmin:  2.009e-05  t[s]:   2999.39
	FillingsUpdate:  mu: +0.079150962  nElectrons: 355.000000  magneticMoment: [ Abs: 25.30798  Tot: -0.00000 ]
	SubspaceRotationAdjust: set factor to 0.971
	SubspaceRotationAdjust: resetting CG because factor has changed by 7.45686
ElecMinimize: 	State modified externally: resetting search direction.
ElecMinimize: Iter:  30  F: -2149.264116678458777  |grad|_K:  4.019e-05  alpha:  7.004e-03
ElecMinimize: 	Predicted alpha/alphaT>3.000000, increasing alphaT to 2.101223e-02.
ElecMinimize: 	Predicted alpha/alphaT>3.000000, increasing alphaT to 6.303669e-02.
	FillingsUpdate:  mu: +0.123349856  nElectrons: 355.000000  magneticMoment: [ Abs: 25.40105  Tot: -0.00000 ]
	SubspaceRotationAdjust: set factor to 0.515
ElecMinimize: Iter:  31  F: -2149.308816157042656  |grad|_K:  9.962e-05  alpha:  1.474e-01  linmin: -2.633e-03  t[s]:   3229.02
	FillingsUpdate:  mu: +0.118038705  nElectrons: 355.000000  magneticMoment: [ Abs: 25.64759  Tot: -0.00000 ]
	SubspaceRotationAdjust: set factor to 0.279
ElecMinimize: Iter:  32  F: -2149.362374126123541  |grad|_K:  8.714e-05  alpha:  4.681e-02  linmin:  4.922e-03  t[s]:   3306.79
	FillingsUpdate:  mu: +0.087369931  nElectrons: 355.000000  magneticMoment: [ Abs: 25.78929  Tot: +0.00000 ]
	SubspaceRotationAdjust: set factor to 0.38
ElecMinimize: Iter:  33  F: -2149.402580444967498  |grad|_K:  3.929e-05  alpha:  4.480e-02  linmin: -4.130e-04  t[s]:   3384.75
	FillingsUpdate:  mu: +0.114418221  nElectrons: 355.000000  magneticMoment: [ Abs: 25.96420  Tot: +0.00000 ]
	SubspaceRotationAdjust: set factor to 0.241
ElecMinimize: Iter:  34  F: -2149.436999277414088  |grad|_K:  4.781e-05  alpha:  1.216e-01  linmin: -6.764e-04  t[s]:   3461.31
	FillingsUpdate:  mu: +0.080361110  nElectrons: 355.000000  magneticMoment: [ Abs: 26.27103  Tot: -0.00000 ]
	SubspaceRotationAdjust: set factor to 0.367
ElecMinimize: Iter:  35  F: -2149.472769726837214  |grad|_K:  2.130e-05  alpha:  8.497e-02  linmin: -8.225e-05  t[s]:   3536.37
	FillingsUpdate:  mu: +0.090030598  nElectrons: 355.000000  magneticMoment: [ Abs: 26.47300  Tot: +0.00000 ]
	SubspaceRotationAdjust: set factor to 0.219
ElecMinimize: Iter:  36  F: -2149.486549048926918  |grad|_K:  3.201e-05  alpha:  1.764e-01  linmin:  8.306e-04  t[s]:   3612.79
	FillingsUpdate:  mu: +0.081097632  nElectrons: 355.000000  magneticMoment: [ Abs: 26.64050  Tot: +0.00000 ]
	SubspaceRotationAdjust: set factor to 0.308
ElecMinimize: Iter:  37  F: -2149.498514098100259  |grad|_K:  1.571e-05  alpha:  6.719e-02  linmin: -5.487e-04  t[s]:   3687.43
	FillingsUpdate:  mu: +0.085718672  nElectrons: 355.000000  magneticMoment: [ Abs: 26.70431  Tot: +0.00000 ]
	SubspaceRotationAdjust: set factor to 0.195
ElecMinimize: Iter:  38  F: -2149.506804182662563  |grad|_K:  2.066e-05  alpha:  1.875e-01  linmin: -5.662e-04  t[s]:   3763.93
	FillingsUpdate:  mu: +0.074174300  nElectrons: 355.000000  magneticMoment: [ Abs: 26.78031  Tot: -0.00000 ]
	SubspaceRotationAdjust: set factor to 0.198
ElecMinimize: Iter:  39  F: -2149.512365846007015  |grad|_K:  1.219e-05  alpha:  6.790e-02  linmin: -2.316e-03  t[s]:   3839.05
	FillingsUpdate:  mu: +0.080395908  nElectrons: 355.000000  magneticMoment: [ Abs: 26.97743  Tot: -0.00000 ]
	SubspaceRotationAdjust: set factor to 0.129
	SubspaceRotationAdjust: resetting CG because factor has changed by 0.132675
ElecMinimize: 	State modified externally: resetting search direction.
ElecMinimize: Iter:  40  F: -2149.517145931713912  |grad|_K:  1.280e-05  alpha:  1.802e-01
	FillingsUpdate:  mu: +0.081458686  nElectrons: 355.000000  magneticMoment: [ Abs: 26.99696  Tot: -0.00000 ]
	SubspaceRotationAdjust: set factor to 0.121
ElecMinimize: Iter:  41  F: -2149.520344512183328  |grad|_K:  5.901e-06  alpha:  1.129e-01  linmin:  2.556e-04  t[s]:   4007.57
ElecMinimize: 	Predicted alpha/alphaT>3.000000, increasing alphaT to 3.388182e-01.
	FillingsUpdate:  mu: +0.079873890  nElectrons: 355.000000  magneticMoment: [ Abs: 27.06934  Tot: +0.00000 ]
	SubspaceRotationAdjust: set factor to 0.144
ElecMinimize: Iter:  42  F: -2149.522446243975992  |grad|_K:  4.817e-06  alpha:  3.473e-01  linmin:  2.306e-04  t[s]:   4119.68
	FillingsUpdate:  mu: +0.080950469  nElectrons: 355.000000  magneticMoment: [ Abs: 27.23602  Tot: +0.00000 ]
	SubspaceRotationAdjust: set factor to 0.171
ElecMinimize: Iter:  43  F: -2149.524929435963713  |grad|_K:  6.034e-06  alpha:  6.164e-01  linmin: -5.423e-05  t[s]:   4197.95
	FillingsUpdate:  mu: +0.081050610  nElectrons: 355.000000  magneticMoment: [ Abs: 27.55513  Tot: +0.00000 ]
	SubspaceRotationAdjust: set factor to 0.184
ElecMinimize: Iter:  44  F: -2149.528868364108803  |grad|_K:  7.852e-06  alpha:  6.196e-01  linmin:  1.087e-04  t[s]:   4274.44
	FillingsUpdate:  mu: +0.085900100  nElectrons: 355.000000  magneticMoment: [ Abs: 27.99229  Tot: +0.00000 ]
	SubspaceRotationAdjust: set factor to 0.135
ElecMinimize: Iter:  45  F: -2149.533043245691260  |grad|_K:  9.740e-06  alpha:  3.955e-01  linmin: -4.486e-05  t[s]:   4348.89
	FillingsUpdate:  mu: +0.083116326  nElectrons: 355.000000  magneticMoment: [ Abs: 28.23820  Tot: +0.00000 ]
	SubspaceRotationAdjust: set factor to 0.0918
ElecMinimize: Iter:  46  F: -2149.534999043966309  |grad|_K:  6.972e-06  alpha:  1.188e-01  linmin:  2.016e-04  t[s]:   4425.30
ElecMinimize: 	Predicted alpha/alphaT>3.000000, increasing alphaT to 3.563295e-01.
	FillingsUpdate:  mu: +0.082926846  nElectrons: 355.000000  magneticMoment: [ Abs: 28.66095  Tot: +0.00000 ]
	SubspaceRotationAdjust: set factor to 0.123
ElecMinimize: Iter:  47  F: -2149.538025218546409  |grad|_K:  6.808e-06  alpha:  3.645e-01  linmin: -1.793e-05  t[s]:   4535.07
	FillingsUpdate:  mu: +0.087077961  nElectrons: 355.000000  magneticMoment: [ Abs: 29.03457  Tot: +0.00000 ]
	SubspaceRotationAdjust: set factor to 0.1
ElecMinimize: Iter:  48  F: -2149.540672767354408  |grad|_K:  8.190e-06  alpha:  3.269e-01  linmin:  3.790e-05  t[s]:   4608.17
	FillingsUpdate:  mu: +0.083593015  nElectrons: 355.000000  magneticMoment: [ Abs: 29.48445  Tot: -0.00000 ]
	SubspaceRotationAdjust: set factor to 0.103
ElecMinimize: Iter:  49  F: -2149.543597025130566  |grad|_K:  7.182e-06  alpha:  2.520e-01  linmin: -2.865e-05  t[s]:   4683.02
	FillingsUpdate:  mu: +0.085833211  nElectrons: 355.000000  magneticMoment: [ Abs: 30.07378  Tot: +0.00000 ]
	SubspaceRotationAdjust: set factor to 0.126
ElecMinimize: Iter:  50  F: -2149.547404882337560  |grad|_K:  8.478e-06  alpha:  4.285e-01  linmin:  2.393e-04  t[s]:   4761.35
	FillingsUpdate:  mu: +0.085835568  nElectrons: 355.000000  magneticMoment: [ Abs: 30.64959  Tot: +0.00000 ]
	SubspaceRotationAdjust: set factor to 0.132
ElecMinimize: Iter:  51  F: -2149.551149851562514  |grad|_K:  9.088e-06  alpha:  3.123e-01  linmin: -5.697e-05  t[s]:   4836.94
	FillingsUpdate:  mu: +0.086522867  nElectrons: 355.000000  magneticMoment: [ Abs: 31.14462  Tot: +0.00000 ]
	SubspaceRotationAdjust: set factor to 0.14
ElecMinimize: Iter:  52  F: -2149.554643570838834  |grad|_K:  8.819e-06  alpha:  2.321e-01  linmin:  1.080e-04  t[s]:   4912.37
	FillingsUpdate:  mu: +0.088490953  nElectrons: 355.000000  magneticMoment: [ Abs: 31.75006  Tot: -0.00000 ]
	SubspaceRotationAdjust: set factor to 0.148
ElecMinimize: Iter:  53  F: -2149.558528006606139  |grad|_K:  1.046e-05  alpha:  2.964e-01  linmin:  3.917e-04  t[s]:   4986.78
	FillingsUpdate:  mu: +0.090462422  nElectrons: 355.000000  magneticMoment: [ Abs: 32.18033  Tot: -0.00000 ]
	SubspaceRotationAdjust: set factor to 0.187
ElecMinimize: Iter:  54  F: -2149.561595215969646  |grad|_K:  9.822e-06  alpha:  1.757e-01  linmin: -3.922e-05  t[s]:   5062.90
	FillingsUpdate:  mu: +0.090855279  nElectrons: 355.000000  magneticMoment: [ Abs: 32.53701  Tot: +0.00000 ]
	SubspaceRotationAdjust: set factor to 0.196
ElecMinimize: Iter:  55  F: -2149.564889593362295  |grad|_K:  9.722e-06  alpha:  1.940e-01  linmin: -3.107e-04  t[s]:   5142.10
	FillingsUpdate:  mu: +0.089701392  nElectrons: 355.000000  magneticMoment: [ Abs: 32.86030  Tot: -0.00000 ]
	SubspaceRotationAdjust: set factor to 0.263
ElecMinimize: Iter:  56  F: -2149.568299778468827  |grad|_K:  9.759e-06  alpha:  1.993e-01  linmin: -1.109e-04  t[s]:   5217.19
	FillingsUpdate:  mu: +0.090356942  nElectrons: 355.000000  magneticMoment: [ Abs: 33.15033  Tot: -0.00000 ]
	SubspaceRotationAdjust: set factor to 0.335
ElecMinimize: Iter:  57  F: -2149.571782458095186  |grad|_K:  9.862e-06  alpha:  2.064e-01  linmin: -2.272e-04  t[s]:   5295.58
	FillingsUpdate:  mu: +0.092632337  nElectrons: 355.000000  magneticMoment: [ Abs: 33.38618  Tot: +0.00000 ]
	SubspaceRotationAdjust: set factor to 0.411
ElecMinimize: Iter:  58  F: -2149.575435669776653  |grad|_K:  1.053e-05  alpha:  2.088e-01  linmin: -1.982e-04  t[s]:   5373.93
	FillingsUpdate:  mu: +0.091748916  nElectrons: 355.000000  magneticMoment: [ Abs: 33.52270  Tot: -0.00000 ]
	SubspaceRotationAdjust: set factor to 0.42
ElecMinimize: Iter:  59  F: -2149.578625242059843  |grad|_K:  1.160e-05  alpha:  1.591e-01  linmin:  7.303e-07  t[s]:   5452.68
	FillingsUpdate:  mu: +0.093932065  nElectrons: 355.000000  magneticMoment: [ Abs: 33.61237  Tot: -0.00000 ]
	SubspaceRotationAdjust: set factor to 0.472
ElecMinimize: Iter:  60  F: -2149.581678989314696  |grad|_K:  1.036e-05  alpha:  1.318e-01  linmin: -8.214e-05  t[s]:   5527.83
	FillingsUpdate:  mu: +0.091768710  nElectrons: 355.000000  magneticMoment: [ Abs: 33.66581  Tot: +0.00000 ]
	SubspaceRotationAdjust: set factor to 0.544
ElecMinimize: Iter:  61  F: -2149.585017099731886  |grad|_K:  9.828e-06  alpha:  1.758e-01  linmin:  2.250e-05  t[s]:   5599.91
	FillingsUpdate:  mu: +0.091592747  nElectrons: 355.000000  magneticMoment: [ Abs: 33.69750  Tot: -0.00000 ]
	SubspaceRotationAdjust: set factor to 0.62
ElecMinimize: Iter:  62  F: -2149.588074065396540  |grad|_K:  1.036e-05  alpha:  1.827e-01  linmin: -3.385e-05  t[s]:   5677.78
	FillingsUpdate:  mu: +0.091823232  nElectrons: 355.000000  magneticMoment: [ Abs: 33.67553  Tot: +0.00000 ]
	SubspaceRotationAdjust: set factor to 0.514
ElecMinimize: Iter:  63  F: -2149.590222240785351  |grad|_K:  1.176e-05  alpha:  1.132e-01  linmin: -2.783e-06  t[s]:   5755.74
	FillingsUpdate:  mu: +0.094372329  nElectrons: 355.000000  magneticMoment: [ Abs: 33.66422  Tot: -0.00000 ]
	SubspaceRotationAdjust: set factor to 0.469
ElecMinimize: Iter:  64  F: -2149.592123434864334  |grad|_K:  9.256e-06  alpha:  7.958e-02  linmin: -1.031e-05  t[s]:   5830.95
	FillingsUpdate:  mu: +0.092758092  nElectrons: 355.000000  magneticMoment: [ Abs: 33.58032  Tot: +0.00000 ]
	SubspaceRotationAdjust: set factor to 0.538
ElecMinimize: Iter:  65  F: -2149.594554810698355  |grad|_K:  8.324e-06  alpha:  1.642e-01  linmin:  7.688e-05  t[s]:   5908.36
	FillingsUpdate:  mu: +0.091991842  nElectrons: 355.000000  magneticMoment: [ Abs: 33.48421  Tot: -0.00000 ]
	SubspaceRotationAdjust: set factor to 0.67
ElecMinimize: Iter:  66  F: -2149.596560440585563  |grad|_K:  7.905e-06  alpha:  1.705e-01  linmin:  7.371e-05  t[s]:   5983.70
	FillingsUpdate:  mu: +0.092575234  nElectrons: 355.000000  magneticMoment: [ Abs: 33.37364  Tot: -0.00000 ]
	SubspaceRotationAdjust: set factor to 0.688
ElecMinimize: Iter:  67  F: -2149.598120546724658  |grad|_K:  8.159e-06  alpha:  1.464e-01  linmin: -1.875e-05  t[s]:   6061.57
	FillingsUpdate:  mu: +0.093678487  nElectrons: 355.000000  magneticMoment: [ Abs: 33.30325  Tot: +0.00000 ]
	SubspaceRotationAdjust: set factor to 0.527
ElecMinimize: Iter:  68  F: -2149.599395578758049  |grad|_K:  9.717e-06  alpha:  1.080e-01  linmin:  2.223e-05  t[s]:   6139.37
	FillingsUpdate:  mu: +0.092276603  nElectrons: 355.000000  magneticMoment: [ Abs: 33.18022  Tot: +0.00000 ]
	SubspaceRotationAdjust: set factor to 0.629
ElecMinimize: Iter:  69  F: -2149.600550860302974  |grad|_K:  7.408e-06  alpha:  7.155e-02  linmin: -1.169e-05  t[s]:   6216.93
	FillingsUpdate:  mu: +0.092137497  nElectrons: 355.000000  magneticMoment: [ Abs: 33.03949  Tot: -0.00000 ]
	SubspaceRotationAdjust: set factor to 0.698
ElecMinimize: Iter:  70  F: -2149.601971762235735  |grad|_K:  7.404e-06  alpha:  1.524e-01  linmin:  2.825e-04  t[s]:   6293.37
	FillingsUpdate:  mu: +0.093752285  nElectrons: 355.000000  magneticMoment: [ Abs: 32.96500  Tot: +0.00000 ]
	SubspaceRotationAdjust: set factor to 0.653
ElecMinimize: Iter:  71  F: -2149.603001786814730  |grad|_K:  7.966e-06  alpha:  1.134e-01  linmin:  9.528e-06  t[s]:   6372.60
	FillingsUpdate:  mu: +0.095046912  nElectrons: 355.000000  magneticMoment: [ Abs: 32.90757  Tot: -0.00000 ]
	SubspaceRotationAdjust: set factor to 0.619
ElecMinimize: Iter:  72  F: -2149.603806185504254  |grad|_K:  7.767e-06  alpha:  7.038e-02  linmin: -6.978e-05  t[s]:   6450.20
	FillingsUpdate:  mu: +0.095271164  nElectrons: 355.000000  magneticMoment: [ Abs: 32.87484  Tot: +0.00000 ]
	SubspaceRotationAdjust: set factor to 0.685
ElecMinimize: Iter:  73  F: -2149.604791409949939  |grad|_K:  6.902e-06  alpha:  9.168e-02  linmin: -2.031e-05  t[s]:   6527.85
	FillingsUpdate:  mu: +0.093917586  nElectrons: 355.000000  magneticMoment: [ Abs: 32.84613  Tot: +0.00000 ]
	SubspaceRotationAdjust: set factor to 0.661
ElecMinimize: Iter:  74  F: -2149.605586500271784  |grad|_K:  7.100e-06  alpha:  9.506e-02  linmin: -9.141e-05  t[s]:   6605.89
	FillingsUpdate:  mu: +0.092531574  nElectrons: 355.000000  magneticMoment: [ Abs: 32.79495  Tot: -0.00000 ]
	SubspaceRotationAdjust: set factor to 0.697
ElecMinimize: Iter:  75  F: -2149.606242064870003  |grad|_K:  6.492e-06  alpha:  7.220e-02  linmin:  3.260e-06  t[s]:   6678.80
	FillingsUpdate:  mu: +0.092308995  nElectrons: 355.000000  magneticMoment: [ Abs: 32.78628  Tot: -0.00000 ]
	SubspaceRotationAdjust: set factor to 0.924
ElecMinimize: Iter:  76  F: -2149.606927972145058  |grad|_K:  5.589e-06  alpha:  9.362e-02  linmin:  6.645e-06  t[s]:   6753.94
	FillingsUpdate:  mu: +0.093038077  nElectrons: 355.000000  magneticMoment: [ Abs: 32.81234  Tot: +0.00000 ]
	SubspaceRotationAdjust: set factor to 0.794
ElecMinimize: Iter:  77  F: -2149.607521862112662  |grad|_K:  6.225e-06  alpha:  1.095e-01  linmin:  8.474e-06  t[s]:   6830.51
	FillingsUpdate:  mu: +0.092798707  nElectrons: 355.000000  magneticMoment: [ Abs: 32.82337  Tot: -0.00000 ]
	SubspaceRotationAdjust: set factor to 0.666
ElecMinimize: Iter:  78  F: -2149.607901000211314  |grad|_K:  6.095e-06  alpha:  5.400e-02  linmin: -7.932e-05  t[s]:   6903.94
	FillingsUpdate:  mu: +0.092115404  nElectrons: 355.000000  magneticMoment: [ Abs: 32.87273  Tot: -0.00000 ]
	SubspaceRotationAdjust: set factor to 0.751
ElecMinimize: Iter:  79  F: -2149.608396528968115  |grad|_K:  5.160e-06  alpha:  7.459e-02  linmin: -3.083e-05  t[s]:   6979.15
	FillingsUpdate:  mu: +0.093075048  nElectrons: 355.000000  magneticMoment: [ Abs: 32.94063  Tot: +0.00000 ]
	SubspaceRotationAdjust: set factor to 0.584
ElecMinimize: Iter:  80  F: -2149.608858420241631  |grad|_K:  6.265e-06  alpha:  9.821e-02  linmin: -6.529e-05  t[s]:   7057.38
	FillingsUpdate:  mu: +0.092873493  nElectrons: 355.000000  magneticMoment: [ Abs: 32.98865  Tot: -0.00000 ]
	SubspaceRotationAdjust: set factor to 0.683
ElecMinimize: Iter:  81  F: -2149.609232443398923  |grad|_K:  4.734e-06  alpha:  5.296e-02  linmin: -2.813e-05  t[s]:   7131.97
	FillingsUpdate:  mu: +0.093308888  nElectrons: 355.000000  magneticMoment: [ Abs: 33.06097  Tot: -0.00000 ]
	SubspaceRotationAdjust: set factor to 0.643
ElecMinimize: Iter:  82  F: -2149.609662634265078  |grad|_K:  5.153e-06  alpha:  1.090e-01  linmin: -3.838e-05  t[s]:   7208.74
	FillingsUpdate:  mu: +0.093177071  nElectrons: 355.000000  magneticMoment: [ Abs: 33.12112  Tot: +0.00000 ]
	SubspaceRotationAdjust: set factor to 0.572
ElecMinimize: Iter:  83  F: -2149.609951399661441  |grad|_K:  5.119e-06  alpha:  6.255e-02  linmin:  1.072e-05  t[s]:   7283.68
	FillingsUpdate:  mu: +0.092269467  nElectrons: 355.000000  magneticMoment: [ Abs: 33.20474  Tot: +0.00000 ]
	SubspaceRotationAdjust: set factor to 0.831
ElecMinimize: Iter:  84  F: -2149.610338196274824  |grad|_K:  4.099e-06  alpha:  8.592e-02  linmin:  1.377e-04  t[s]:   7361.21
	FillingsUpdate:  mu: +0.092949444  nElectrons: 355.000000  magneticMoment: [ Abs: 33.27911  Tot: -0.00000 ]
	SubspaceRotationAdjust: set factor to 0.614
ElecMinimize: Iter:  85  F: -2149.610610970970356  |grad|_K:  5.684e-06  alpha:  9.665e-02  linmin:  1.025e-04  t[s]:   7437.53
	FillingsUpdate:  mu: +0.093470722  nElectrons: 355.000000  magneticMoment: [ Abs: 33.35420  Tot: +0.00000 ]
	SubspaceRotationAdjust: set factor to 0.755
ElecMinimize: Iter:  86  F: -2149.610868934258178  |grad|_K:  4.230e-06  alpha:  4.731e-02  linmin:  1.175e-05  t[s]:   7510.42
	FillingsUpdate:  mu: +0.094877261  nElectrons: 355.000000  magneticMoment: [ Abs: 33.43171  Tot: -0.00000 ]
	SubspaceRotationAdjust: set factor to 0.662
ElecMinimize: Iter:  87  F: -2149.611183015937513  |grad|_K:  4.787e-06  alpha:  9.994e-02  linmin: -8.240e-05  t[s]:   7586.51
	FillingsUpdate:  mu: +0.094996516  nElectrons: 355.000000  magneticMoment: [ Abs: 33.46827  Tot: +0.00000 ]
	SubspaceRotationAdjust: set factor to 0.63
ElecMinimize: Iter:  88  F: -2149.611369216368075  |grad|_K:  4.142e-06  alpha:  4.596e-02  linmin:  1.214e-05  t[s]:   7662.87
	FillingsUpdate:  mu: +0.095257756  nElectrons: 355.000000  magneticMoment: [ Abs: 33.51816  Tot: +0.00000 ]
	SubspaceRotationAdjust: set factor to 0.71
ElecMinimize: Iter:  89  F: -2149.611670811322256  |grad|_K:  3.919e-06  alpha:  1.006e-01  linmin: -4.470e-05  t[s]:   7736.95
	FillingsUpdate:  mu: +0.095406369  nElectrons: 355.000000  magneticMoment: [ Abs: 33.55021  Tot: -0.00000 ]
	SubspaceRotationAdjust: set factor to 0.596
ElecMinimize: Iter:  90  F: -2149.611850338769273  |grad|_K:  4.360e-06  alpha:  6.650e-02  linmin: -1.083e-06  t[s]:   7812.06
	FillingsUpdate:  mu: +0.095505162  nElectrons: 355.000000  magneticMoment: [ Abs: 33.59149  Tot: +0.00000 ]
	SubspaceRotationAdjust: set factor to 0.747
ElecMinimize: Iter:  91  F: -2149.612064148896934  |grad|_K:  3.234e-06  alpha:  6.451e-02  linmin:  5.099e-05  t[s]:   7888.55
	FillingsUpdate:  mu: +0.095900263  nElectrons: 355.000000  magneticMoment: [ Abs: 33.62138  Tot: -0.00000 ]
	SubspaceRotationAdjust: set factor to 0.588
ElecMinimize: Iter:  92  F: -2149.612268716106428  |grad|_K:  4.235e-06  alpha:  1.149e-01  linmin:  6.034e-05  t[s]:   7966.28
	FillingsUpdate:  mu: +0.095839088  nElectrons: 355.000000  magneticMoment: [ Abs: 33.62887  Tot: +0.00000 ]
	SubspaceRotationAdjust: set factor to 0.63
ElecMinimize: Iter:  93  F: -2149.612400930700460  |grad|_K:  3.218e-06  alpha:  4.324e-02  linmin:  9.979e-06  t[s]:   8045.17
	FillingsUpdate:  mu: +0.096159815  nElectrons: 355.000000  magneticMoment: [ Abs: 33.62214  Tot: -0.00000 ]
	SubspaceRotationAdjust: set factor to 0.633
ElecMinimize: Iter:  94  F: -2149.612587604566670  |grad|_K:  3.387e-06  alpha:  1.038e-01  linmin: -5.948e-07  t[s]:   8120.39
	FillingsUpdate:  mu: +0.096299907  nElectrons: 355.000000  magneticMoment: [ Abs: 33.61535  Tot: +0.00000 ]
	SubspaceRotationAdjust: set factor to 0.605
ElecMinimize: Iter:  95  F: -2149.612695135560898  |grad|_K:  3.360e-06  alpha:  5.359e-02  linmin: -8.967e-06  t[s]:   8198.55
	FillingsUpdate:  mu: +0.096755811  nElectrons: 355.000000  magneticMoment: [ Abs: 33.59753  Tot: -0.00000 ]
	SubspaceRotationAdjust: set factor to 0.709
ElecMinimize: Iter:  96  F: -2149.612872485407024  |grad|_K:  2.978e-06  alpha:  9.000e-02  linmin: -4.712e-06  t[s]:   8275.45
	FillingsUpdate:  mu: +0.096725975  nElectrons: 355.000000  magneticMoment: [ Abs: 33.58393  Tot: -0.00000 ]
	SubspaceRotationAdjust: set factor to 0.598
ElecMinimize: Iter:  97  F: -2149.612968875503611  |grad|_K:  3.433e-06  alpha:  6.234e-02  linmin: -2.439e-07  t[s]:   8353.07
	FillingsUpdate:  mu: +0.096253701  nElectrons: 355.000000  magneticMoment: [ Abs: 33.56102  Tot: +0.00000 ]
	SubspaceRotationAdjust: set factor to 0.779
ElecMinimize: Iter:  98  F: -2149.613117384115867  |grad|_K:  2.721e-06  alpha:  7.241e-02  linmin:  1.121e-05  t[s]:   8431.40
	FillingsUpdate:  mu: +0.096060259  nElectrons: 355.000000  magneticMoment: [ Abs: 33.53291  Tot: +0.00000 ]
	SubspaceRotationAdjust: set factor to 0.571
ElecMinimize: Iter:  99  F: -2149.613245907312375  |grad|_K:  3.668e-06  alpha:  1.001e-01  linmin:  8.234e-06  t[s]:   8507.06
	FillingsUpdate:  mu: +0.095868666  nElectrons: 355.000000  magneticMoment: [ Abs: 33.50459  Tot: +0.00000 ]
	SubspaceRotationAdjust: set factor to 0.658
ElecMinimize: Iter: 100  F: -2149.613343358199927  |grad|_K:  2.635e-06  alpha:  4.105e-02  linmin: -3.615e-05  t[s]:   8585.76
	FillingsUpdate:  mu: +0.096347225  nElectrons: 355.000000  magneticMoment: [ Abs: 33.45993  Tot: -0.00000 ]
	SubspaceRotationAdjust: set factor to 0.537
ElecMinimize: Iter: 101  F: -2149.613481355665954  |grad|_K:  3.374e-06  alpha:  1.133e-01  linmin:  1.843e-05  t[s]:   8659.22
	FillingsUpdate:  mu: +0.096667381  nElectrons: 355.000000  magneticMoment: [ Abs: 33.43095  Tot: +0.00000 ]
	SubspaceRotationAdjust: set factor to 0.564
ElecMinimize: Iter: 102  F: -2149.613568511115773  |grad|_K:  2.717e-06  alpha:  4.506e-02  linmin:  3.806e-05  t[s]:   8732.36
	FillingsUpdate:  mu: +0.096842248  nElectrons: 355.000000  magneticMoment: [ Abs: 33.38159  Tot: +0.00000 ]
	SubspaceRotationAdjust: set factor to 0.546
ElecMinimize: Iter: 103  F: -2149.613702550323978  |grad|_K:  2.994e-06  alpha:  1.055e-01  linmin: -4.498e-06  t[s]:   8809.03
	FillingsUpdate:  mu: +0.096774877  nElectrons: 355.000000  magneticMoment: [ Abs: 33.35216  Tot: -0.00000 ]
	SubspaceRotationAdjust: set factor to 0.54
ElecMinimize: Iter: 104  F: -2149.613778333648952  |grad|_K:  2.624e-06  alpha:  4.774e-02  linmin: -3.153e-05  t[s]:   8887.58
	FillingsUpdate:  mu: +0.096428093  nElectrons: 355.000000  magneticMoment: [ Abs: 33.30824  Tot: -0.00000 ]
	SubspaceRotationAdjust: set factor to 0.463
ElecMinimize: Iter: 105  F: -2149.613905164357220  |grad|_K:  3.074e-06  alpha:  1.060e-01  linmin:  7.980e-05  t[s]:   8963.70
	FillingsUpdate:  mu: +0.096379241  nElectrons: 355.000000  magneticMoment: [ Abs: 33.28786  Tot: -0.00000 ]
	SubspaceRotationAdjust: set factor to 0.533
ElecMinimize: Iter: 106  F: -2149.613977005980360  |grad|_K:  2.427e-06  alpha:  4.475e-02  linmin:  1.908e-07  t[s]:   9040.68
	FillingsUpdate:  mu: +0.096524597  nElectrons: 355.000000  magneticMoment: [ Abs: 33.26491  Tot: +0.00000 ]
	SubspaceRotationAdjust: set factor to 0.432
ElecMinimize: Iter: 107  F: -2149.614075084798515  |grad|_K:  3.051e-06  alpha:  9.489e-02  linmin: -5.870e-05  t[s]:   9117.66
	FillingsUpdate:  mu: +0.096870384  nElectrons: 355.000000  magneticMoment: [ Abs: 33.24600  Tot: +0.00000 ]
	SubspaceRotationAdjust: set factor to 0.538
ElecMinimize: Iter: 108  F: -2149.614149899143740  |grad|_K:  2.214e-06  alpha:  4.463e-02  linmin: -5.224e-05  t[s]:   9193.76
	FillingsUpdate:  mu: +0.097040840  nElectrons: 355.000000  magneticMoment: [ Abs: 33.22688  Tot: +0.00000 ]
	SubspaceRotationAdjust: set factor to 0.398
ElecMinimize: Iter: 109  F: -2149.614228940692556  |grad|_K:  3.120e-06  alpha:  9.193e-02  linmin:  4.807e-05  t[s]:   9266.48
	FillingsUpdate:  mu: +0.097290244  nElectrons: 355.000000  magneticMoment: [ Abs: 33.21078  Tot: -0.00000 ]
	SubspaceRotationAdjust: set factor to 0.663
ElecMinimize: Iter: 110  F: -2149.614308808492751  |grad|_K:  2.130e-06  alpha:  4.759e-02  linmin: -1.559e-05  t[s]:   9345.48
	FillingsUpdate:  mu: +0.097126569  nElectrons: 355.000000  magneticMoment: [ Abs: 33.20174  Tot: -0.00000 ]
	SubspaceRotationAdjust: set factor to 0.528
ElecMinimize: Iter: 111  F: -2149.614363461800622  |grad|_K:  2.777e-06  alpha:  6.888e-02  linmin: -1.863e-05  t[s]:   9424.82
	FillingsUpdate:  mu: +0.097039348  nElectrons: 355.000000  magneticMoment: [ Abs: 33.18626  Tot: +0.00000 ]
	SubspaceRotationAdjust: set factor to 0.609
ElecMinimize: Iter: 112  F: -2149.614444605376775  |grad|_K:  2.183e-06  alpha:  5.993e-02  linmin:  5.091e-05  t[s]:   9501.77
	FillingsUpdate:  mu: +0.096928899  nElectrons: 355.000000  magneticMoment: [ Abs: 33.17974  Tot: -0.00000 ]
	SubspaceRotationAdjust: set factor to 0.47
ElecMinimize: Iter: 113  F: -2149.614500752923959  |grad|_K:  2.702e-06  alpha:  6.844e-02  linmin:  3.923e-05  t[s]:   9578.39
	FillingsUpdate:  mu: +0.097115118  nElectrons: 355.000000  magneticMoment: [ Abs: 33.18120  Tot: +0.00000 ]
	SubspaceRotationAdjust: set factor to 0.71
ElecMinimize: Iter: 114  F: -2149.614574027821163  |grad|_K:  2.009e-06  alpha:  5.828e-02  linmin: -2.489e-05  t[s]:   9656.29
	FillingsUpdate:  mu: +0.097188634  nElectrons: 355.000000  magneticMoment: [ Abs: 33.18735  Tot: -0.00000 ]
	SubspaceRotationAdjust: set factor to 0.593
ElecMinimize: Iter: 115  F: -2149.614626018963008  |grad|_K:  2.541e-06  alpha:  7.333e-02  linmin: -4.234e-05  t[s]:   9732.98
	FillingsUpdate:  mu: +0.097276483  nElectrons: 355.000000  magneticMoment: [ Abs: 33.19139  Tot: +0.00000 ]
	SubspaceRotationAdjust: set factor to 0.757
ElecMinimize: Iter: 116  F: -2149.614690932060967  |grad|_K:  1.959e-06  alpha:  5.697e-02  linmin:  5.618e-06  t[s]:   9809.74
	FillingsUpdate:  mu: +0.096934125  nElectrons: 355.000000  magneticMoment: [ Abs: 33.19581  Tot: -0.00000 ]
	SubspaceRotationAdjust: set factor to 0.631
ElecMinimize: Iter: 117  F: -2149.614760169794863  |grad|_K:  2.447e-06  alpha:  1.044e-01  linmin:  4.313e-05  t[s]:   9887.00
	FillingsUpdate:  mu: +0.096847033  nElectrons: 355.000000  magneticMoment: [ Abs: 33.20294  Tot: +0.00000 ]
	SubspaceRotationAdjust: set factor to 0.635
ElecMinimize: Iter: 118  F: -2149.614800661006029  |grad|_K:  2.004e-06  alpha:  3.991e-02  linmin:  2.976e-05  t[s]:   9963.81
	FillingsUpdate:  mu: +0.096832433  nElectrons: 355.000000  magneticMoment: [ Abs: 33.21535  Tot: -0.00000 ]
	SubspaceRotationAdjust: set factor to 0.72
ElecMinimize: Iter: 119  F: -2149.614866387739312  |grad|_K:  2.051e-06  alpha:  9.529e-02  linmin:  2.391e-05  t[s]:  10038.92
	FillingsUpdate:  mu: +0.096870629  nElectrons: 355.000000  magneticMoment: [ Abs: 33.22455  Tot: -0.00000 ]
	SubspaceRotationAdjust: set factor to 0.626
ElecMinimize: Iter: 120  F: -2149.614905815732072  |grad|_K:  2.294e-06  alpha:  5.339e-02  linmin: -1.950e-05  t[s]:  10114.89
	FillingsUpdate:  mu: +0.097166246  nElectrons: 355.000000  magneticMoment: [ Abs: 33.24833  Tot: +0.00000 ]
	SubspaceRotationAdjust: set factor to 0.951
ElecMinimize: Iter: 121  F: -2149.614966701143203  |grad|_K:  1.818e-06  alpha:  6.585e-02  linmin: -3.829e-05  t[s]:  10189.95
	FillingsUpdate:  mu: +0.097067367  nElectrons: 355.000000  magneticMoment: [ Abs: 33.26619  Tot: +0.00000 ]
	SubspaceRotationAdjust: set factor to 0.729
ElecMinimize: Iter: 122  F: -2149.615007701248487  |grad|_K:  2.466e-06  alpha:  7.033e-02  linmin: -4.111e-05  t[s]:  10266.92
	FillingsUpdate:  mu: +0.096874723  nElectrons: 355.000000  magneticMoment: [ Abs: 33.27838  Tot: -0.00000 ]
	SubspaceRotationAdjust: set factor to 0.773
ElecMinimize: Iter: 123  F: -2149.615050039314156  |grad|_K:  1.840e-06  alpha:  3.872e-02  linmin: -3.018e-05  t[s]:  10343.39
	FillingsUpdate:  mu: +0.096522405  nElectrons: 355.000000  magneticMoment: [ Abs: 33.29464  Tot: -0.00000 ]
	SubspaceRotationAdjust: set factor to 0.732
ElecMinimize: Iter: 124  F: -2149.615109570931509  |grad|_K:  2.041e-06  alpha:  1.009e-01  linmin:  5.342e-05  t[s]:  10418.02
	FillingsUpdate:  mu: +0.096621984  nElectrons: 355.000000  magneticMoment: [ Abs: 33.30536  Tot: -0.00000 ]
	SubspaceRotationAdjust: set factor to 0.702
ElecMinimize: Iter: 125  F: -2149.615140526458617  |grad|_K:  1.989e-06  alpha:  4.457e-02  linmin:  7.046e-05  t[s]:  10494.40
	FillingsUpdate:  mu: +0.096894944  nElectrons: 355.000000  magneticMoment: [ Abs: 33.31700  Tot: -0.00000 ]
	SubspaceRotationAdjust: set factor to 0.895
ElecMinimize: Iter: 126  F: -2149.615188432277137  |grad|_K:  1.708e-06  alpha:  7.122e-02  linmin:  5.887e-05  t[s]:  10572.05
	FillingsUpdate:  mu: +0.096834482  nElectrons: 355.000000  magneticMoment: [ Abs: 33.32694  Tot: +0.00000 ]
	SubspaceRotationAdjust: set factor to 0.688
ElecMinimize: Iter: 127  F: -2149.615233595810878  |grad|_K:  2.277e-06  alpha:  9.046e-02  linmin:  4.815e-05  t[s]:  10646.31
	FillingsUpdate:  mu: +0.096785511  nElectrons: 355.000000  magneticMoment: [ Abs: 33.33632  Tot: +0.00000 ]
	SubspaceRotationAdjust: set factor to 0.694
ElecMinimize: Iter: 128  F: -2149.615264002684398  |grad|_K:  1.676e-06  alpha:  3.528e-02  linmin:  8.909e-05  t[s]:  10723.01
	FillingsUpdate:  mu: +0.096505494  nElectrons: 355.000000  magneticMoment: [ Abs: 33.34659  Tot: +0.00000 ]
	SubspaceRotationAdjust: set factor to 0.832
ElecMinimize: Iter: 129  F: -2149.615308460036431  |grad|_K:  1.689e-06  alpha:  9.292e-02  linmin: -5.296e-06  t[s]:  10799.20
	FillingsUpdate:  mu: +0.096388623  nElectrons: 355.000000  magneticMoment: [ Abs: 33.35029  Tot: -0.00000 ]
	SubspaceRotationAdjust: set factor to 0.655
ElecMinimize: Iter: 130  F: -2149.615338066631011  |grad|_K:  2.056e-06  alpha:  5.886e-02  linmin: -6.153e-06  t[s]:  10875.00
	FillingsUpdate:  mu: +0.096556574  nElectrons: 355.000000  magneticMoment: [ Abs: 33.35631  Tot: -0.00000 ]
	SubspaceRotationAdjust: set factor to 0.96
	SubspaceRotationAdjust: resetting CG because factor has changed by 7.45185
ElecMinimize: 	State modified externally: resetting search direction.
ElecMinimize: Iter: 131  F: -2149.615377802658259  |grad|_K:  1.649e-06  alpha:  5.401e-02
ElecMinimize: 	Predicted alpha/alphaT>3.000000, increasing alphaT to 1.620412e-01.
	FillingsUpdate:  mu: +0.096203649  nElectrons: 355.000000  magneticMoment: [ Abs: 33.34001  Tot: +0.00000 ]
	SubspaceRotationAdjust: set factor to 0.563
ElecMinimize: Iter: 132  F: -2149.615496028203779  |grad|_K:  2.625e-06  alpha:  2.476e-01  linmin: -3.847e-04  t[s]:  11072.01
	FillingsUpdate:  mu: +0.096495930  nElectrons: 355.000000  magneticMoment: [ Abs: 33.33476  Tot: -0.00000 ]
	SubspaceRotationAdjust: set factor to 0.355
ElecMinimize: Iter: 133  F: -2149.615558760343447  |grad|_K:  2.456e-06  alpha:  5.033e-02  linmin: -1.749e-04  t[s]:  11146.17
	FillingsUpdate:  mu: +0.097587475  nElectrons: 355.000000  magneticMoment: [ Abs: 33.33673  Tot: +0.00000 ]
	SubspaceRotationAdjust: set factor to 0.326
ElecMinimize: Iter: 134  F: -2149.615659340032835  |grad|_K:  1.629e-06  alpha:  9.358e-02  linmin: -1.588e-04  t[s]:  11218.97
	FillingsUpdate:  mu: +0.096612031  nElectrons: 355.000000  magneticMoment: [ Abs: 33.32715  Tot: -0.00000 ]
	SubspaceRotationAdjust: set factor to 0.236
ElecMinimize: Iter: 135  F: -2149.615754262767950  |grad|_K:  1.637e-06  alpha:  2.018e-01  linmin: -2.590e-05  t[s]:  11294.33
	FillingsUpdate:  mu: +0.096146722  nElectrons: 355.000000  magneticMoment: [ Abs: 33.31756  Tot: +0.00000 ]
	SubspaceRotationAdjust: set factor to 0.194
ElecMinimize: Iter: 136  F: -2149.615793905772080  |grad|_K:  1.159e-06  alpha:  8.448e-02  linmin: -3.291e-05  t[s]:  11370.92
	FillingsUpdate:  mu: +0.096436137  nElectrons: 355.000000  magneticMoment: [ Abs: 33.30612  Tot: +0.00000 ]
	SubspaceRotationAdjust: set factor to 0.189
ElecMinimize: Iter: 137  F: -2149.615845179737789  |grad|_K:  9.241e-07  alpha:  2.173e-01  linmin: -1.737e-04  t[s]:  11445.99
	FillingsUpdate:  mu: +0.096755460  nElectrons: 355.000000  magneticMoment: [ Abs: 33.30386  Tot: +0.00000 ]
	SubspaceRotationAdjust: set factor to 0.141
ElecMinimize: Iter: 138  F: -2149.615863584922863  |grad|_K:  7.028e-07  alpha:  1.238e-01  linmin:  6.915e-05  t[s]:  11522.35
	FillingsUpdate:  mu: +0.097019142  nElectrons: 355.000000  magneticMoment: [ Abs: 33.29945  Tot: +0.00000 ]
	SubspaceRotationAdjust: set factor to 0.2
ElecMinimize: Iter: 139  F: -2149.615883613737878  |grad|_K:  5.558e-07  alpha:  2.337e-01  linmin: -1.180e-05  t[s]:  11601.94
	FillingsUpdate:  mu: +0.096856204  nElectrons: 355.000000  magneticMoment: [ Abs: 33.29497  Tot: -0.00000 ]
	SubspaceRotationAdjust: set factor to 0.176
ElecMinimize: Iter: 140  F: -2149.615895131214529  |grad|_K:  5.778e-07  alpha:  2.140e-01  linmin:  1.456e-05  t[s]:  11678.22
	FillingsUpdate:  mu: +0.096598816  nElectrons: 355.000000  magneticMoment: [ Abs: 33.29144  Tot: -0.00000 ]
	SubspaceRotationAdjust: set factor to 0.185
ElecMinimize: Iter: 141  F: -2149.615906663869282  |grad|_K:  4.465e-07  alpha:  1.985e-01  linmin: -1.135e-05  t[s]:  11754.27
	FillingsUpdate:  mu: +0.096655245  nElectrons: 355.000000  magneticMoment: [ Abs: 33.28853  Tot: +0.00000 ]
	SubspaceRotationAdjust: set factor to 0.194
ElecMinimize: Iter: 142  F: -2149.615918763046921  |grad|_K:  5.135e-07  alpha:  3.478e-01  linmin: -7.997e-05  t[s]:  11829.49
	FillingsUpdate:  mu: +0.096773390  nElectrons: 355.000000  magneticMoment: [ Abs: 33.28546  Tot: +0.00000 ]
	SubspaceRotationAdjust: set factor to 0.16
ElecMinimize: Iter: 143  F: -2149.615927733586432  |grad|_K:  5.191e-07  alpha:  1.942e-01  linmin: -1.571e-05  t[s]:  11903.30
	FillingsUpdate:  mu: +0.096878891  nElectrons: 355.000000  magneticMoment: [ Abs: 33.28166  Tot: +0.00000 ]
	SubspaceRotationAdjust: set factor to 0.191
ElecMinimize: Iter: 144  F: -2149.615942926327079  |grad|_K:  5.231e-07  alpha:  3.229e-01  linmin: -4.677e-05  t[s]:  11980.75
	FillingsUpdate:  mu: +0.096711494  nElectrons: 355.000000  magneticMoment: [ Abs: 33.27696  Tot: +0.00000 ]
	SubspaceRotationAdjust: set factor to 0.188
ElecMinimize: Iter: 145  F: -2149.615959583147287  |grad|_K:  6.489e-07  alpha:  3.480e-01  linmin: -5.257e-05  t[s]:  12060.63
	FillingsUpdate:  mu: +0.096584211  nElectrons: 355.000000  magneticMoment: [ Abs: 33.27143  Tot: +0.00000 ]
	SubspaceRotationAdjust: set factor to 0.152
ElecMinimize: Iter: 146  F: -2149.615974741088394  |grad|_K:  6.282e-07  alpha:  2.042e-01  linmin: -1.965e-05  t[s]:  12139.27
	FillingsUpdate:  mu: +0.096699358  nElectrons: 355.000000  magneticMoment: [ Abs: 33.26715  Tot: +0.00000 ]
	SubspaceRotationAdjust: set factor to 0.178
ElecMinimize: Iter: 147  F: -2149.615997903654716  |grad|_K:  6.311e-07  alpha:  3.355e-01  linmin: -4.265e-05  t[s]:  12214.54
	FillingsUpdate:  mu: +0.096755677  nElectrons: 355.000000  magneticMoment: [ Abs: 33.26495  Tot: +0.00000 ]
	SubspaceRotationAdjust: set factor to 0.167
ElecMinimize: Iter: 148  F: -2149.616020507503436  |grad|_K:  6.936e-07  alpha:  3.244e-01  linmin: -8.828e-05  t[s]:  12292.26
	FillingsUpdate:  mu: +0.096693798  nElectrons: 355.000000  magneticMoment: [ Abs: 33.26199  Tot: -0.00000 ]
	SubspaceRotationAdjust: set factor to 0.137
ElecMinimize: Iter: 149  F: -2149.616038508227120  |grad|_K:  6.008e-07  alpha:  2.108e-01  linmin: -4.537e-06  t[s]:  12370.16
	FillingsUpdate:  mu: +0.096709308  nElectrons: 355.000000  magneticMoment: [ Abs: 33.26119  Tot: -0.00000 ]
	SubspaceRotationAdjust: set factor to 0.165
ElecMinimize: Iter: 150  F: -2149.616059065182526  |grad|_K:  5.629e-07  alpha:  3.267e-01  linmin: -1.246e-05  t[s]:  12448.56
	FillingsUpdate:  mu: +0.096854751  nElectrons: 355.000000  magneticMoment: [ Abs: 33.26198  Tot: +0.00000 ]
	SubspaceRotationAdjust: set factor to 0.163
ElecMinimize: Iter: 151  F: -2149.616076323365633  |grad|_K:  5.711e-07  alpha:  3.126e-01  linmin: -9.091e-05  t[s]:  12526.77
	FillingsUpdate:  mu: +0.096880232  nElectrons: 355.000000  magneticMoment: [ Abs: 33.26103  Tot: +0.00000 ]
	SubspaceRotationAdjust: set factor to 0.149
ElecMinimize: Iter: 152  F: -2149.616090530538713  |grad|_K:  5.300e-07  alpha:  2.472e-01  linmin:  3.256e-05  t[s]:  12604.50
	FillingsUpdate:  mu: +0.096785818  nElectrons: 355.000000  magneticMoment: [ Abs: 33.26050  Tot: +0.00000 ]
	SubspaceRotationAdjust: set factor to 0.18
ElecMinimize: Iter: 153  F: -2149.616107985636972  |grad|_K:  5.244e-07  alpha:  3.576e-01  linmin: -2.362e-05  t[s]:  12683.13
	FillingsUpdate:  mu: +0.096782434  nElectrons: 355.000000  magneticMoment: [ Abs: 33.26100  Tot: -0.00000 ]
	SubspaceRotationAdjust: set factor to 0.19
ElecMinimize: Iter: 154  F: -2149.616125155704594  |grad|_K:  5.949e-07  alpha:  3.578e-01  linmin: -9.321e-05  t[s]:  12762.29
	FillingsUpdate:  mu: +0.096814698  nElectrons: 355.000000  magneticMoment: [ Abs: 33.26081  Tot: +0.00000 ]
	SubspaceRotationAdjust: set factor to 0.171
ElecMinimize: Iter: 155  F: -2149.616142953992949  |grad|_K:  6.691e-07  alpha:  2.842e-01  linmin:  5.752e-05  t[s]:  12840.92
	FillingsUpdate:  mu: +0.096919390  nElectrons: 355.000000  magneticMoment: [ Abs: 33.26291  Tot: -0.00000 ]
	SubspaceRotationAdjust: set factor to 0.193
ElecMinimize: Iter: 156  F: -2149.616167752066758  |grad|_K:  6.588e-07  alpha:  3.193e-01  linmin: -1.222e-04  t[s]:  12916.14
	FillingsUpdate:  mu: +0.096839767  nElectrons: 355.000000  magneticMoment: [ Abs: 33.26518  Tot: -0.00000 ]
	SubspaceRotationAdjust: set factor to 0.208
ElecMinimize: Iter: 157  F: -2149.616197721018580  |grad|_K:  7.362e-07  alpha:  3.889e-01  linmin: -5.809e-05  t[s]:  12994.05
	FillingsUpdate:  mu: +0.096739495  nElectrons: 355.000000  magneticMoment: [ Abs: 33.26731  Tot: +0.00000 ]
	SubspaceRotationAdjust: set factor to 0.193
ElecMinimize: Iter: 158  F: -2149.616224840719951  |grad|_K:  8.457e-07  alpha:  2.778e-01  linmin:  4.138e-05  t[s]:  13069.00
	FillingsUpdate:  mu: +0.096937186  nElectrons: 355.000000  magneticMoment: [ Abs: 33.27317  Tot: -0.00000 ]
	SubspaceRotationAdjust: set factor to 0.221
ElecMinimize: Iter: 159  F: -2149.616254980471695  |grad|_K:  7.503e-07  alpha:  2.453e-01  linmin: -1.160e-04  t[s]:  13146.52
	FillingsUpdate:  mu: +0.097062732  nElectrons: 355.000000  magneticMoment: [ Abs: 33.27894  Tot: +0.00000 ]
	SubspaceRotationAdjust: set factor to 0.243
ElecMinimize: Iter: 160  F: -2149.616287506875778  |grad|_K:  7.709e-07  alpha:  3.221e-01  linmin: -1.773e-04  t[s]:  13222.94
	FillingsUpdate:  mu: +0.096894360  nElectrons: 355.000000  magneticMoment: [ Abs: 33.28094  Tot: +0.00000 ]
	SubspaceRotationAdjust: set factor to 0.218
ElecMinimize: Iter: 161  F: -2149.616310780319964  |grad|_K:  7.948e-07  alpha:  2.128e-01  linmin: -2.647e-06  t[s]:  13300.24
	FillingsUpdate:  mu: +0.096891238  nElectrons: 355.000000  magneticMoment: [ Abs: 33.28484  Tot: +0.00000 ]
	SubspaceRotationAdjust: set factor to 0.283
ElecMinimize: Iter: 162  F: -2149.616336087448417  |grad|_K:  6.918e-07  alpha:  2.294e-01  linmin: -1.224e-04  t[s]:  13378.18
	FillingsUpdate:  mu: +0.097047824  nElectrons: 355.000000  magneticMoment: [ Abs: 33.28992  Tot: -0.00000 ]
	SubspaceRotationAdjust: set factor to 0.287
ElecMinimize: Iter: 163  F: -2149.616363049932261  |grad|_K:  8.183e-07  alpha:  3.136e-01  linmin: -2.215e-04  t[s]:  13457.99
	FillingsUpdate:  mu: +0.096971373  nElectrons: 355.000000  magneticMoment: [ Abs: 33.29213  Tot: +0.00000 ]
	SubspaceRotationAdjust: set factor to 0.257
ElecMinimize: Iter: 164  F: -2149.616383442678398  |grad|_K:  7.894e-07  alpha:  1.623e-01  linmin: -1.227e-04  t[s]:  13535.61
	FillingsUpdate:  mu: +0.096926384  nElectrons: 355.000000  magneticMoment: [ Abs: 33.29636  Tot: +0.00000 ]
	SubspaceRotationAdjust: set factor to 0.366
ElecMinimize: Iter: 165  F: -2149.616412317268441  |grad|_K:  7.750e-07  alpha:  2.607e-01  linmin: -1.251e-05  t[s]:  13611.30
	FillingsUpdate:  mu: +0.097051847  nElectrons: 355.000000  magneticMoment: [ Abs: 33.30080  Tot: -0.00000 ]
	SubspaceRotationAdjust: set factor to 0.319
ElecMinimize: Iter: 166  F: -2149.616438034246130  |grad|_K:  9.855e-07  alpha:  2.464e-01  linmin: -1.722e-04  t[s]:  13689.05
	FillingsUpdate:  mu: +0.096961626  nElectrons: 355.000000  magneticMoment: [ Abs: 33.30324  Tot: +0.00000 ]
	SubspaceRotationAdjust: set factor to 0.293
ElecMinimize: Iter: 167  F: -2149.616464182736308  |grad|_K:  8.466e-07  alpha:  1.426e-01  linmin: -9.219e-05  t[s]:  13763.39
	FillingsUpdate:  mu: +0.097081873  nElectrons: 355.000000  magneticMoment: [ Abs: 33.30711  Tot: +0.00000 ]
	SubspaceRotationAdjust: set factor to 0.406
ElecMinimize: Iter: 168  F: -2149.616499191383355  |grad|_K:  8.781e-07  alpha:  2.729e-01  linmin: -8.727e-05  t[s]:  13841.79
	FillingsUpdate:  mu: +0.097122939  nElectrons: 355.000000  magneticMoment: [ Abs: 33.31018  Tot: -0.00000 ]
	SubspaceRotationAdjust: set factor to 0.37
ElecMinimize: Iter: 169  F: -2149.616531233488331  |grad|_K:  1.084e-06  alpha:  2.369e-01  linmin: -1.302e-04  t[s]:  13918.64
	FillingsUpdate:  mu: +0.096911459  nElectrons: 355.000000  magneticMoment: [ Abs: 33.31179  Tot: +0.00000 ]
	SubspaceRotationAdjust: set factor to 0.325
ElecMinimize: Iter: 170  F: -2149.616560287819993  |grad|_K:  9.781e-07  alpha:  1.285e-01  linmin: -1.538e-04  t[s]:  13995.07
	FillingsUpdate:  mu: +0.097061298  nElectrons: 355.000000  magneticMoment: [ Abs: 33.31830  Tot: -0.00000 ]
	SubspaceRotationAdjust: set factor to 0.47
ElecMinimize: Iter: 171  F: -2149.616604455556171  |grad|_K:  1.010e-06  alpha:  2.542e-01  linmin: -6.384e-05  t[s]:  14072.15
	FillingsUpdate:  mu: +0.097304856  nElectrons: 355.000000  magneticMoment: [ Abs: 33.32455  Tot: -0.00000 ]
	SubspaceRotationAdjust: set factor to 0.406
ElecMinimize: Iter: 172  F: -2149.616640977009865  |grad|_K:  1.253e-06  alpha:  2.070e-01  linmin: -1.177e-04  t[s]:  14147.51
	FillingsUpdate:  mu: +0.097239558  nElectrons: 355.000000  magneticMoment: [ Abs: 33.32758  Tot: +0.00000 ]
	SubspaceRotationAdjust: set factor to 0.342
ElecMinimize: Iter: 173  F: -2149.616675656976895  |grad|_K:  1.111e-06  alpha:  1.161e-01  linmin: -1.080e-04  t[s]:  14222.28
	FillingsUpdate:  mu: +0.097145794  nElectrons: 355.000000  magneticMoment: [ Abs: 33.33235  Tot: +0.00000 ]
	SubspaceRotationAdjust: set factor to 0.472
ElecMinimize: Iter: 174  F: -2149.616731094144598  |grad|_K:  1.096e-06  alpha:  2.493e-01  linmin: -4.162e-05  t[s]:  14300.90
	FillingsUpdate:  mu: +0.097391453  nElectrons: 355.000000  magneticMoment: [ Abs: 33.33853  Tot: +0.00000 ]
	SubspaceRotationAdjust: set factor to 0.381
ElecMinimize: Iter: 175  F: -2149.616784080493744  |grad|_K:  1.454e-06  alpha:  2.505e-01  linmin: -4.910e-05  t[s]:  14377.17
	FillingsUpdate:  mu: +0.097498118  nElectrons: 355.000000  magneticMoment: [ Abs: 33.34212  Tot: -0.00000 ]
	SubspaceRotationAdjust: set factor to 0.363
ElecMinimize: Iter: 176  F: -2149.616820678305430  |grad|_K:  1.220e-06  alpha:  9.129e-02  linmin: -2.225e-04  t[s]:  14452.76
	FillingsUpdate:  mu: +0.097793184  nElectrons: 355.000000  magneticMoment: [ Abs: 33.34859  Tot: -0.00000 ]
	SubspaceRotationAdjust: set factor to 0.383
ElecMinimize: Iter: 177  F: -2149.616885796895986  |grad|_K:  1.343e-06  alpha:  2.405e-01  linmin:  9.778e-05  t[s]:  14532.02
	FillingsUpdate:  mu: +0.097649508  nElectrons: 355.000000  magneticMoment: [ Abs: 33.35107  Tot: -0.00000 ]
	SubspaceRotationAdjust: set factor to 0.364
ElecMinimize: Iter: 178  F: -2149.616921663188350  |grad|_K:  1.438e-06  alpha:  1.106e-01  linmin: -1.402e-04  t[s]:  14610.13
	FillingsUpdate:  mu: +0.097367631  nElectrons: 355.000000  magneticMoment: [ Abs: 33.35402  Tot: -0.00000 ]
	SubspaceRotationAdjust: set factor to 0.319
ElecMinimize: Iter: 179  F: -2149.616982586530412  |grad|_K:  1.462e-06  alpha:  1.680e-01  linmin:  3.298e-04  t[s]:  14690.27
	FillingsUpdate:  mu: +0.097424334  nElectrons: 355.000000  magneticMoment: [ Abs: 33.35731  Tot: +0.00000 ]
	SubspaceRotationAdjust: set factor to 0.307
ElecMinimize: Iter: 180  F: -2149.617013187437351  |grad|_K:  1.405e-06  alpha:  8.846e-02  linmin: -3.964e-05  t[s]:  14768.53
	FillingsUpdate:  mu: +0.097875917  nElectrons: 355.000000  magneticMoment: [ Abs: 33.36532  Tot: -0.00000 ]
	SubspaceRotationAdjust: set factor to 0.251
ElecMinimize: Iter: 181  F: -2149.617062548235026  |grad|_K:  1.450e-06  alpha:  1.429e-01  linmin:  6.591e-05  t[s]:  14846.60
	FillingsUpdate:  mu: +0.098057599  nElectrons: 355.000000  magneticMoment: [ Abs: 33.37049  Tot: -0.00000 ]
	SubspaceRotationAdjust: set factor to 0.248
ElecMinimize: Iter: 182  F: -2149.617094567379354  |grad|_K:  1.272e-06  alpha:  8.645e-02  linmin: -3.923e-05  t[s]:  14923.95
	FillingsUpdate:  mu: +0.098106970  nElectrons: 355.000000  magneticMoment: [ Abs: 33.37682  Tot: -0.00000 ]
	SubspaceRotationAdjust: set factor to 0.184
ElecMinimize: Iter: 183  F: -2149.617132711047816  |grad|_K:  1.485e-06  alpha:  1.351e-01  linmin:  8.397e-05  t[s]:  15002.44
	FillingsUpdate:  mu: +0.098156475  nElectrons: 355.000000  magneticMoment: [ Abs: 33.38133  Tot: -0.00000 ]
	SubspaceRotationAdjust: set factor to 0.207
ElecMinimize: Iter: 184  F: -2149.617168598828357  |grad|_K:  1.217e-06  alpha:  9.498e-02  linmin: -1.362e-05  t[s]:  15080.56
	FillingsUpdate:  mu: +0.098107248  nElectrons: 355.000000  magneticMoment: [ Abs: 33.38485  Tot: +0.00000 ]
	SubspaceRotationAdjust: set factor to 0.179
ElecMinimize: Iter: 185  F: -2149.617199445288861  |grad|_K:  1.279e-06  alpha:  1.192e-01  linmin:  7.549e-07  t[s]:  15158.98
	FillingsUpdate:  mu: +0.098104562  nElectrons: 355.000000  magneticMoment: [ Abs: 33.38935  Tot: +0.00000 ]
	SubspaceRotationAdjust: set factor to 0.15
ElecMinimize: Iter: 186  F: -2149.617236851770940  |grad|_K:  1.257e-06  alpha:  1.317e-01  linmin:  5.916e-05  t[s]:  15235.28
	FillingsUpdate:  mu: +0.098198565  nElectrons: 355.000000  magneticMoment: [ Abs: 33.39296  Tot: +0.00000 ]
	SubspaceRotationAdjust: set factor to 0.165
ElecMinimize: Iter: 187  F: -2149.617266712558830  |grad|_K:  1.124e-06  alpha:  1.095e-01  linmin:  2.635e-05  t[s]:  15313.10
	FillingsUpdate:  mu: +0.098261145  nElectrons: 355.000000  magneticMoment: [ Abs: 33.39684  Tot: -0.00000 ]
	SubspaceRotationAdjust: set factor to 0.129
	SubspaceRotationAdjust: resetting CG because factor has changed by 0.134424
ElecMinimize: 	State modified externally: resetting search direction.
ElecMinimize: Iter: 188  F: -2149.617296424297365  |grad|_K:  1.151e-06  alpha:  1.359e-01
	FillingsUpdate:  mu: +0.098333370  nElectrons: 355.000000  magneticMoment: [ Abs: 33.40129  Tot: -0.00000 ]
	SubspaceRotationAdjust: set factor to 0.088
ElecMinimize: Iter: 189  F: -2149.617356157075847  |grad|_K:  9.869e-07  alpha:  2.596e-01  linmin:  3.908e-04  t[s]:  15481.47
	FillingsUpdate:  mu: +0.098724039  nElectrons: 355.000000  magneticMoment: [ Abs: 33.41654  Tot: +0.00000 ]
	SubspaceRotationAdjust: set factor to 0.0869
ElecMinimize: Iter: 190  F: -2149.617455259804956  |grad|_K:  1.164e-06  alpha:  5.739e-01  linmin: -8.631e-04  t[s]:  15557.72
	FillingsUpdate:  mu: +0.098519285  nElectrons: 355.000000  magneticMoment: [ Abs: 33.43991  Tot: -0.00000 ]
[...]

# Ionic positions in lattice coordinates:
ion Ni  -0.000069587141385  -0.008034657756810   0.152791229118271 1
ion Ni  -0.004672416856634   0.508937550452599   0.150076005797475 1
ion Ni   0.253095622659027   0.749442712425255   0.051423547252235 1
ion Ni   0.500000000000000   0.000000000000000  -0.050000000000000 0
ion Ni   0.250000000000000   0.250000000000000  -0.150000000000000 0
ion Ni   0.250000000000000   0.750000000000000  -0.150000000000000 0
ion Ni  -0.250000000000000   0.250000000000000  -0.150000000000000 0
ion Ni  -0.250000000000000   0.750000000000000  -0.150000000000000 0
ion V   0.492613945593831   0.002102210145044   0.161286109283212 1
ion V   0.250126147621979   0.249539606462431   0.054129393823515 1
ion V  -0.256922534321772   0.748182533281702   0.053686576638646 1
ion V   0.000000000000000   0.000000000000000  -0.050000000000000 0
ion V   0.000000000000000   0.500000000000000  -0.050000000000000 0
ion V   0.500000000000000   0.500000000000000  -0.050000000000000 0
ion Co   0.496588536343308   0.507493943122880   0.156791075875221 1
ion Cr  -0.251888961052292   0.247305738329474   0.053816163739079 1
ion O   0.253940962601517   0.278791762006056   0.146062829809968 1
ion O   0.238749802161778   0.747436425863853   0.145731728348640 1
ion O  -0.245691575647681   0.257571366741643   0.147209737039173 1
ion O  -0.261670887334413   0.734494033547240   0.150667908242437 1
ion O  -0.005916890729516   0.023050372255388   0.056055236295685 1
ion O   0.505717289999032   0.020314438214502   0.055623506083237 1
ion O  -0.012091840822578   0.479109290855653   0.050986581238597 1
ion O   0.504991017594376   0.471707924449097   0.048502105610752 1
ion O   0.250000000000000   0.250000000000000  -0.050000000000000 0
ion O   0.250000000000000   0.750000000000000  -0.050000000000000 0
ion O  -0.250000000000000   0.250000000000000  -0.050000000000000 0
ion O  -0.250000000000000   0.750000000000000  -0.050000000000000 0
ion O   0.000000000000000   0.000000000000000  -0.150000000000000 0
ion O   0.500000000000000   0.000000000000000  -0.150000000000000 0
ion O   0.000000000000000   0.500000000000000  -0.150000000000000 0
ion O   0.500000000000000   0.500000000000000  -0.150000000000000 0
ion O   0.010751531796052   0.006609494855698   0.232130602205324 1

# Forces in Lattice coordinates:
force Ni   0.002150588293596   0.000679422963160   0.026031286848857 1
force Ni   0.021385899325841   0.002068427823824   0.015807924349382 1
force Ni  -0.000544082171962  -0.001293537923687   0.015233824068211 1
force Ni  -0.021077703627486  -0.049820452405682  -0.561820059362261 0
force Ni   0.023154473514207  -0.028428781960432   0.030818518495055 0
force Ni   0.024115255882013   0.027192663740092   0.093798585782825 0
force Ni  -0.041630691886614  -0.018535539685145  -0.013072877493372 0
force Ni  -0.040085785707834   0.020249319388138   0.107585325326903 0
force V  -0.012138254973312   0.005070415711119  -0.000812858826302 1
force V   0.003295131308963   0.002041462118097   0.004398331278299 1
force V  -0.003690194310672  -0.000867945915463   0.006931494781700 1
force V   0.036110562989011  -0.042782181310987  -0.547068817353511 0
force V   0.036245793811997   0.046337835501204  -0.587426638836303 0
force V  -0.036752989348560   0.052725671860042  -0.725923598540613 0
force Co  -0.022167716204648  -0.015384178051108   0.008315079052284 1
force Cr  -0.002461441133008  -0.001144187950958  -0.024860345071925 1
force O   0.007146323206751   0.003818925303735  -0.002338804375420 1
force O  -0.008484787518198   0.008119955607011  -0.007304923723007 1
force O   0.009044166639594   0.009081013669518   0.024928097564487 1
force O   0.004285036798213  -0.001142601592973   0.006127353872757 1
force O   0.002207704952034  -0.002935815919062   0.006169341525221 1
force O  -0.001686623678973   0.001770617810039  -0.008930188703994 1
force O   0.010703926291452  -0.007973683147677   0.001770826071524 1
force O   0.000697876410079   0.001161249615355   0.029878904647088 1
force O  -0.023045438344716  -0.103183180236228   0.465313349380355 0
force O  -0.023146922264005   0.103459168794840   0.160256199785524 0
force O  -0.000334801130349  -0.091379537109767   0.483232084801317 0
force O   0.004389149971483   0.097944544675455   0.141860424768643 0
force O   0.038469027445109  -0.005578579033453   0.170835946966125 0
force O  -0.002213246759612  -0.003521627843958   0.272867120626833 0
force O   0.019700524504066   0.002684198370624   0.117849654489804 0
force O   0.030335368024108   0.005152369748150   0.148745430782871 0
force O  -0.004571318301127  -0.005878604938126  -0.013284706174808 1

# Energy components:
   Eewald =     5528.8370845367671791
       EH =     7463.7830234791435942
     Eloc =   -15291.0354253516597964
      Enl =     -578.8303279818148894
   Epulay =       -0.0004910691131946
      Exc =     -256.1580180359327414
       KE =      982.1460665051570231
        U =        1.5965260841368694
-------------------------------------
     Etot =    -2149.6615618333153179
       TS =        0.0007750839455330
-------------------------------------
        F =    -2149.6623369172607454

IonicMinimize: Iter:  17  F: -2149.662336917260745  |grad|_K:  5.903e-04  alpha:  1.000e+00  linmin: -2.065e-03  t[s]:  77748.90

#--- Lowdin population analysis ---
# oxidation-state Ni +3.508 +3.875 +3.202 +3.515 +3.811 +3.808 +3.807 +3.812
# magnetic-moments Ni +0.388 +1.085 +0.645 +0.963 +1.002 +1.003 -1.005 -1.008
# oxidation-state V +1.157 +1.239 +0.999 +1.059 +1.052 +1.002
# magnetic-moments V -2.941 +2.068 -2.895 -2.702 -2.657 +2.774
# oxidation-state Co +1.257
# magnetic-moments Co -2.717
# oxidation-state Cr +2.882
# magnetic-moments Cr +3.192
# oxidation-state O -0.840 -0.767 -0.774 -0.857 -0.795 -0.816 -0.822 -0.850 -0.846 -0.802 -0.830 -0.847 -0.723 -0.662 -0.725 -0.718 -0.393
# magnetic-moments O +0.080 +0.197 +0.007 +0.187 -0.024 +0.039 +0.068 -0.074 +0.144 +0.209 +0.009 +0.025 +0.073 +0.181 +0.050 -0.085 +0.916


-------- Electronic minimization -----------
	FillingsUpdate:  mu: +0.104366871  nElectrons: 355.000000  magneticMoment: [ Abs: 34.01606  Tot: +0.00000 ]
ElecMinimize: Iter:   0  F: -2149.392891980382956  |grad|_K:  8.657e-05  alpha:  1.000e+00
	FillingsUpdate:  mu: +0.103148584  nElectrons: 355.000000  magneticMoment: [ Abs: 34.01855  Tot: -0.00000 ]
	SubspaceRotationAdjust: set factor to 0.425
ElecMinimize: Iter:   1  F: -2149.639332616863612  |grad|_K:  1.939e-05  alpha:  1.928e-01  linmin:  4.982e-03  t[s]:  77853.29
	FillingsUpdate:  mu: +0.102462265  nElectrons: 355.000000  magneticMoment: [ Abs: 34.00090  Tot: +0.00000 ]
	SubspaceRotationAdjust: set factor to 0.382
ElecMinimize: Iter:   2  F: -2149.654810112397172  |grad|_K:  9.530e-06  alpha:  2.423e-01  linmin:  1.239e-03  t[s]:  77930.40
	FillingsUpdate:  mu: +0.104887121  nElectrons: 355.000000  magneticMoment: [ Abs: 34.01708  Tot: -0.00000 ]
	SubspaceRotationAdjust: set factor to 0.291
ElecMinimize: Iter:   3  F: -2149.657637410201914  |grad|_K:  6.442e-06  alpha:  1.906e-01  linmin: -1.314e-03  t[s]:  78006.64
	FillingsUpdate:  mu: +0.104934768  nElectrons: 355.000000  magneticMoment: [ Abs: 34.00758  Tot: +0.00000 ]
	SubspaceRotationAdjust: set factor to 0.299
ElecMinimize: Iter:   4  F: -2149.659743546281788  |grad|_K:  4.263e-06  alpha:  2.799e-01  linmin:  3.197e-04  t[s]:  78084.12
	FillingsUpdate:  mu: +0.104723499  nElectrons: 355.000000  magneticMoment: [ Abs: 34.00884  Tot: +0.00000 ]
	SubspaceRotationAdjust: set factor to 0.396
ElecMinimize: Iter:   5  F: -2149.660966157462553  |grad|_K:  3.151e-06  alpha:  3.956e-01  linmin:  4.244e-06  t[s]:  78160.43
	FillingsUpdate:  mu: +0.103945888  nElectrons: 355.000000  magneticMoment: [ Abs: 34.01577  Tot: +0.00000 ]
	SubspaceRotationAdjust: set factor to 0.342
ElecMinimize: Iter:   6  F: -2149.661697222753901  |grad|_K:  2.796e-06  alpha:  4.224e-01  linmin: -1.479e-04  t[s]:  78238.82
	FillingsUpdate:  mu: +0.104649533  nElectrons: 355.000000  magneticMoment: [ Abs: 34.01013  Tot: -0.00000 ]
	SubspaceRotationAdjust: set factor to 0.241
ElecMinimize: Iter:   7  F: -2149.661990463331676  |grad|_K:  1.797e-06  alpha:  1.986e-01  linmin: -4.254e-04  t[s]:  78314.77
	FillingsUpdate:  mu: +0.104148946  nElectrons: 355.000000  magneticMoment: [ Abs: 34.01149  Tot: -0.00000 ]
	SubspaceRotationAdjust: set factor to 0.315
ElecMinimize: Iter:   8  F: -2149.662215415269202  |grad|_K:  1.188e-06  alpha:  3.828e-01  linmin: -2.216e-07  t[s]:  78392.55
	FillingsUpdate:  mu: +0.104068634  nElectrons: 355.000000  magneticMoment: [ Abs: 34.01287  Tot: -0.00000 ]
	SubspaceRotationAdjust: set factor to 0.313
ElecMinimize: Iter:   9  F: -2149.662290443014172  |grad|_K:  8.137e-07  alpha:  3.054e-01  linmin: -1.001e-05  t[s]:  78470.23
	FillingsUpdate:  mu: +0.104210162  nElectrons: 355.000000  magneticMoment: [ Abs: 34.01125  Tot: +0.00000 ]
	SubspaceRotationAdjust: set factor to 0.264
ElecMinimize: Iter:  10  F: -2149.662323647346057  |grad|_K:  5.492e-07  alpha:  2.877e-01  linmin:  2.555e-05  t[s]:  78548.85
	FillingsUpdate:  mu: +0.104091221  nElectrons: 355.000000  magneticMoment: [ Abs: 34.01183  Tot: +0.00000 ]
	SubspaceRotationAdjust: set factor to 0.272
ElecMinimize: Iter:  11  F: -2149.662340010956086  |grad|_K:  3.602e-07  alpha:  3.122e-01  linmin: -1.989e-05  t[s]:  78627.11
	FillingsUpdate:  mu: +0.104094843  nElectrons: 355.000000  magneticMoment: [ Abs: 34.01161  Tot: -0.00000 ]
	SubspaceRotationAdjust: set factor to 0.321
ElecMinimize: Iter:  12  F: -2149.662348033727994  |grad|_K:  2.692e-07  alpha:  3.545e-01  linmin: -6.913e-08  t[s]:  78704.84
	FillingsUpdate:  mu: +0.104124212  nElectrons: 355.000000  magneticMoment: [ Abs: 34.01122  Tot: -0.00000 ]
	SubspaceRotationAdjust: set factor to 0.364
ElecMinimize: Iter:  13  F: -2149.662352085275870  |grad|_K:  2.062e-07  alpha:  3.211e-01  linmin:  6.941e-07  t[s]:  78782.27
	FillingsUpdate:  mu: +0.104099257  nElectrons: 355.000000  magneticMoment: [ Abs: 34.01134  Tot: +0.00000 ]
	SubspaceRotationAdjust: set factor to 0.388
ElecMinimize: Iter:  14  F: -2149.662354824741669  |grad|_K:  1.759e-07  alpha:  3.700e-01  linmin: -1.332e-05  t[s]:  78860.85
	FillingsUpdate:  mu: +0.104132100  nElectrons: 355.000000  magneticMoment: [ Abs: 34.01086  Tot: +0.00000 ]
	SubspaceRotationAdjust: set factor to 0.405
ElecMinimize: Iter:  15  F: -2149.662356645217187  |grad|_K:  1.483e-07  alpha:  3.376e-01  linmin:  2.448e-06  t[s]:  78937.10
	FillingsUpdate:  mu: +0.104098247  nElectrons: 355.000000  magneticMoment: [ Abs: 34.01081  Tot: +0.00000 ]
	SubspaceRotationAdjust: set factor to 0.427
ElecMinimize: Iter:  16  F: -2149.662358113939263  |grad|_K:  1.378e-07  alpha:  3.836e-01  linmin: -1.930e-05  t[s]:  79005.92
	FillingsUpdate:  mu: +0.104127229  nElectrons: 355.000000  magneticMoment: [ Abs: 34.01035  Tot: +0.00000 ]
	SubspaceRotationAdjust: set factor to 0.463
ElecMinimize: Iter:  17  F: -2149.662359356152592  |grad|_K:  1.275e-07  alpha:  3.749e-01  linmin:  5.623e-06  t[s]:  79083.46
	FillingsUpdate:  mu: +0.104108057  nElectrons: 355.000000  magneticMoment: [ Abs: 34.01001  Tot: -0.00000 ]
	SubspaceRotationAdjust: set factor to 0.499
ElecMinimize: Iter:  18  F: -2149.662360624201028  |grad|_K:  1.296e-07  alpha:  4.478e-01  linmin: -3.391e-05  t[s]:  79161.40
	FillingsUpdate:  mu: +0.104146760  nElectrons: 355.000000  magneticMoment: [ Abs: 34.00926  Tot: +0.00000 ]
	SubspaceRotationAdjust: set factor to 0.493
ElecMinimize: Iter:  19  F: -2149.662361748717558  |grad|_K:  1.413e-07  alpha:  3.829e-01  linmin:  1.439e-05  t[s]:  79235.13
	FillingsUpdate:  mu: +0.104104754  nElectrons: 355.000000  magneticMoment: [ Abs: 34.00900  Tot: +0.00000 ]
	SubspaceRotationAdjust: set factor to 0.427
ElecMinimize: Iter:  20  F: -2149.662362815734923  |grad|_K:  1.381e-07  alpha:  3.085e-01  linmin: -4.297e-05  t[s]:  79310.99
	FillingsUpdate:  mu: +0.104143274  nElectrons: 355.000000  magneticMoment: [ Abs: 34.00812  Tot: +0.00000 ]
	SubspaceRotationAdjust: set factor to 0.39
ElecMinimize: Iter:  21  F: -2149.662363839616319  |grad|_K:  1.195e-07  alpha:  3.074e-01  linmin:  1.791e-05  t[s]:  79387.59
	FillingsUpdate:  mu: +0.104128568  nElectrons: 355.000000  magneticMoment: [ Abs: 34.00766  Tot: +0.00000 ]
	SubspaceRotationAdjust: set factor to 0.429
ElecMinimize: Iter:  22  F: -2149.662364724844792  |grad|_K:  9.826e-08  alpha:  3.563e-01  linmin: -1.934e-05  t[s]:  79465.87
	FillingsUpdate:  mu: +0.104136335  nElectrons: 355.000000  magneticMoment: [ Abs: 34.00723  Tot: -0.00000 ]
	SubspaceRotationAdjust: set factor to 0.507
ElecMinimize: Iter:  23  F: -2149.662365372289059  |grad|_K:  8.209e-08  alpha:  3.842e-01  linmin: -5.902e-07  t[s]:  79541.56
	FillingsUpdate:  mu: +0.104143557  nElectrons: 355.000000  magneticMoment: [ Abs: 34.00682  Tot: -0.00000 ]
	SubspaceRotationAdjust: set factor to 0.595
ElecMinimize: Iter:  24  F: -2149.662365838351434  |grad|_K:  7.914e-08  alpha:  3.973e-01  linmin:  7.689e-07  t[s]:  79619.60
	FillingsUpdate:  mu: +0.104122953  nElectrons: 355.000000  magneticMoment: [ Abs: 34.00674  Tot: +0.00000 ]
	SubspaceRotationAdjust: set factor to 0.522
ElecMinimize: Iter:  25  F: -2149.662366231129909  |grad|_K:  9.102e-08  alpha:  3.601e-01  linmin: -9.488e-06  t[s]:  79697.74
	FillingsUpdate:  mu: +0.104161159  nElectrons: 355.000000  magneticMoment: [ Abs: 34.00634  Tot: +0.00000 ]
	SubspaceRotationAdjust: set factor to 0.445
ElecMinimize: Iter:  26  F: -2149.662366584788742  |grad|_K:  9.124e-08  alpha:  2.448e-01  linmin: -2.050e-07  t[s]:  79775.28
ElecMinimize: Converged (|Delta F|<1.000000e-06 for 5 iters).
Setting wave functions to eigenvectors of Hamiltonian

# Ionic positions in lattice coordinates:
ion Ni  -0.001743258842002  -0.007719957948856   0.152879061487620 1
ion Ni  -0.005069762030977   0.509297371611836   0.150100166674552 1
ion Ni   0.253223504198503   0.749427062568818   0.051002433135626 1
ion Ni   0.500000000000000   0.000000000000000  -0.050000000000000 0
ion Ni   0.250000000000000   0.250000000000000  -0.150000000000000 0
ion Ni   0.250000000000000   0.750000000000000  -0.150000000000000 0
ion Ni  -0.250000000000000   0.250000000000000  -0.150000000000000 0
ion Ni  -0.250000000000000   0.750000000000000  -0.150000000000000 0
ion V   0.491610318225516   0.002148763256891   0.161266253614846 1
ion V   0.250059127537834   0.249429107226607   0.054276395843387 1
ion V  -0.257255674094940   0.748124053242743   0.053691961378621 1
ion V   0.000000000000000   0.000000000000000  -0.050000000000000 0
ion V   0.000000000000000   0.500000000000000  -0.050000000000000 0
ion V   0.500000000000000   0.500000000000000  -0.050000000000000 0
ion Co   0.495691479813651   0.506983164855311   0.156805635513713 1
ion Cr  -0.251907744134294   0.246971343310802   0.053770864017376 1
ion O   0.254926928444490   0.280274932551282   0.146201684669576 1
ion O   0.236684721935035   0.749364987757922   0.145209705837823 1
ion O  -0.243118309589689   0.255796065293049   0.147297400647588 1
ion O  -0.263217094335982   0.733402153733143   0.150669420718076 1
ion O  -0.006324131639064   0.022535065816445   0.056207795037408 1
ion O   0.505162061908154   0.020775803716953   0.055625606691840 1
ion O  -0.011892530616249   0.478368042558818   0.051005038656050 1
ion O   0.505086433650887   0.471703864583617   0.048560992990849 1
ion O   0.250000000000000   0.250000000000000  -0.050000000000000 0
ion O   0.250000000000000   0.750000000000000  -0.050000000000000 0
ion O  -0.250000000000000   0.250000000000000  -0.050000000000000 0
ion O  -0.250000000000000   0.750000000000000  -0.050000000000000 0
ion O   0.000000000000000   0.000000000000000  -0.150000000000000 0
ion O   0.500000000000000   0.000000000000000  -0.150000000000000 0
ion O   0.000000000000000   0.500000000000000  -0.150000000000000 0
ion O   0.500000000000000   0.500000000000000  -0.150000000000000 0
ion O   0.011022052972285   0.006466625937250   0.232078594645484 1

# Forces in Lattice coordinates:
force Ni   0.002495880999307  -0.002198513656892  -0.026093831772793 1
force Ni   0.020383355962908  -0.001303047768788   0.013586041987279 1
force Ni  -0.003327993343465   0.000883448364896   0.020011958928647 1
force Ni  -0.021387172657044  -0.050268333497700  -0.571752984286391 0
force Ni   0.021584389049428  -0.029758830665802   0.032243220904292 0
force Ni   0.022594876447411   0.028583187504659   0.088326001824123 0
force Ni  -0.039773646041452  -0.020382939022228  -0.014658641553992 0
force Ni  -0.038627510866377   0.021614774383019   0.104882484570057 0
force V  -0.021042488640545   0.001355359506783  -0.005378748819446 1
force V   0.003502611863016   0.007483115904096   0.011164014427895 1
force V  -0.005877093765512  -0.004198804577167   0.011207582797177 1
force V   0.035734364042904  -0.042393435859060  -0.546862298155366 0
force V   0.036130312560489   0.044965933502858  -0.586792890642037 0
force V  -0.035764063248796   0.050440081740390  -0.724136254682554 0
force Co  -0.010631375557352  -0.002661501911636   0.003256969162647 1
force Cr   0.000648981166697   0.001237418509614  -0.011478723063098 1
force O   0.002050094939586  -0.000539892594230  -0.000894892608679 1
force O  -0.008340560087877   0.010253932440077   0.031007307356592 1
force O  -0.003696647292087   0.010370611208846   0.022147818492385 1
force O  -0.000054738789820  -0.004840023420503   0.009027141665182 1
force O   0.003594089733409   0.000622864576368   0.005008784051339 1
force O   0.003020755123098  -0.003615799305260   0.005281321306009 1
force O   0.005943228989719  -0.002122463709765   0.003578665310432 1
force O   0.000640051546410  -0.000706487777008   0.041387061008326 1
force O  -0.024638403855738  -0.104167848397456   0.470671797726534 0
force O  -0.025862956972778   0.105328651053307   0.159592475739473 0
force O   0.001362207673123  -0.092872714479214   0.485288871384788 0
force O   0.005806702840560   0.098761053922985   0.147981026758342 0
force O   0.039373963766185  -0.004462900146764   0.172746055126096 0
force O  -0.002719129850285  -0.002729009490105   0.271114935678181 0
force O   0.019891396374787   0.002075509774001   0.117944013136313 0
force O   0.029662223509598   0.004733514039601   0.142374257897071 0
force O  -0.005387956930011  -0.005103223110115   0.023191772365557 1

# Energy components:
   Eewald =     5529.3925754483680066
       EH =     7464.3578563854907770
     Eloc =   -15292.1677537089726684
      Enl =     -578.8269513611627417
   Epulay =       -0.0004910691131946
      Exc =     -256.1585257375641049
       KE =      982.1456574596044220
        U =        1.5959817655331674
-------------------------------------
     Etot =    -2149.6616508178171898
       TS =        0.0007157669714132
-------------------------------------
        F =    -2149.6623665847887423

IonicMinimize: Iter:  18  F: -2149.662366584788742  |grad|_K:  5.474e-04  alpha:  1.000e+00  linmin: -3.713e-03  t[s]:  79786.59
IonicMinimize: Converged (|Delta F|<1.000000e-04 for 3 iters).

#--- Lowdin population analysis ---
# oxidation-state Ni +3.508 +3.875 +3.201 +3.514 +3.811 +3.809 +3.807 +3.810
# magnetic-moments Ni +0.381 +1.084 +0.643 +0.963 +1.002 +1.004 -1.005 -1.006
# oxidation-state V +1.156 +1.239 +1.000 +1.059 +1.052 +0.999
# magnetic-moments V -2.942 +2.068 -2.895 -2.702 -2.656 +2.780
# oxidation-state Co +1.255
# magnetic-moments Co -2.716
# oxidation-state Cr +2.882
# magnetic-moments Cr +3.194
# oxidation-state O -0.843 -0.763 -0.770 -0.860 -0.795 -0.816 -0.822 -0.851 -0.846 -0.802 -0.830 -0.847 -0.723 -0.662 -0.725 -0.718 -0.393
# magnetic-moments O +0.077 +0.193 +0.005 +0.188 -0.024 +0.039 +0.067 -0.074 +0.145 +0.209 +0.009 +0.026 +0.074 +0.183 +0.051 -0.084 +0.917


Dumping 'run.ionpos' ... done
Dumping 'run.lattice' ... done
Dumping 'run.Ecomponents' ... done
End date and time: Fri May  9 17:59:41 2025  (Duration: 0-22:09:49.74)
Done!
