/var/spool/slurmd/job44092/slurm_script: line 9: module: command not found
/var/spool/slurmd/job44092/slurm_script: line 10: module: command not found

*************** JDFTx 1.7.0  ***************

Start date and time: Tue May  6 14:53:13 2025
Executable /data2/jt577/jdftx_eat_withLibXC/build/jdftx with command-line: -i /data2/jt577/May_2025/Relax_Mag/rel3+1_6/O/runs/calc_/run.in
Running on hosts (process indices):  node3213 (0-8)
Divided in process groups (process indices):  0 (0)  1 (1)  2 (2)  3 (3)  4 (4)  5 (5)  6 (6)  7 (7)  8 (8)
Resource initialization completed at t[s]:      0.00
Run totals: 9 processes, 36 threads, 0 GPUs


Input parsed successfully to the following command list (including defaults):

add-mix 
add-U 	Ni d 0.22 \
	V d 0.12 \
	Co d 0.2 \
	Cr d 0.16
basis kpoint-dependent
coords-type Lattice
core-overlap-check vector
coulomb-interaction Periodic
davidson-band-ratio 1.1
dump End IonicPositions Lattice Ecomponents
dump-name run.$VAR
elec-cutoff 30
elec-eigen-algo Davidson
elec-ex-corr gga-x-rpbe gga-c-pbe
elec-smearing Fermi 0.001
electronic-minimize  \
	dirUpdateScheme      FletcherReeves \
	linminMethod         DirUpdateRecommended \
	nIterations          1000 \
	history              15 \
	knormThreshold       0 \
	energyDiffThreshold  1e-06 \
	nEnergyDiff          5 \
	alphaTstart          1 \
	alphaTmin            1e-10 \
	updateTestStepSize   yes \
	alphaTreduceFactor   0.1 \
	alphaTincreaseFactor 3 \
	nAlphaAdjustMax      3 \
	wolfeEnergy          0.0001 \
	wolfeGradient        0.9 \
	fdTest               no
exchange-regularization WignerSeitzTruncated
fluid None
fluid-ex-corr (null) lda-PZ
fluid-gummel-loop 10 1.000000e-05
fluid-minimize  \
	dirUpdateScheme      PolakRibiere \
	linminMethod         DirUpdateRecommended \
	nIterations          100 \
	history              15 \
	knormThreshold       0 \
	energyDiffThreshold  0 \
	nEnergyDiff          2 \
	alphaTstart          1 \
	alphaTmin            1e-10 \
	updateTestStepSize   yes \
	alphaTreduceFactor   0.1 \
	alphaTincreaseFactor 3 \
	nAlphaAdjustMax      3 \
	wolfeEnergy          0.0001 \
	wolfeGradient        0.9 \
	fdTest               no
fluid-solvent H2O 55.338 ScalarEOS \
	epsBulk 78.4 \
	pMol 0.92466 \
	epsInf 1.77 \
	Pvap 1.06736e-10 \
	sigmaBulk 4.62e-05 \
	Rvdw 2.61727 \
	Res 1.42 \
	tauNuc 343133 \
	poleEl 15 7 1
forces-output-coords Positions
initial-magnetic-moments  \
	Ni 1 -1 \
	V -1 1 1 \
	Co 1 1 -1 1 -1 -1 \
	Cr -1 -1 -1 1 1
initial-state run.$VAR
ion Ni  0.000000000000000   0.000000000000000   0.150000000000000 1
ion Ni  0.500000000000000   0.500000000000000   0.150000000000000 1
ion V  0.500000000000000   0.000000000000000   0.150000000000000 1
ion V  0.000000000000000   0.500000000000000   0.150000000000000 1
ion V  0.500000000000000   0.000000000000000  -0.050000000000000 0
ion Co  0.250000000000000   0.250000000000000   0.050000000000000 1
ion Co  0.250000000000000   0.750000000000000   0.050000000000000 1
ion Co  0.000000000000000   0.500000000000000  -0.050000000000000 0
ion Co  0.500000000000000   0.500000000000000  -0.050000000000000 0
ion Co  0.250000000000000   0.250000000000000  -0.150000000000000 0
ion Co  0.250000000000000   0.750000000000000  -0.150000000000000 0
ion Cr -0.250000000000000   0.250000000000000   0.050000000000000 1
ion Cr -0.250000000000000   0.750000000000000   0.050000000000000 1
ion Cr  0.000000000000000   0.000000000000000  -0.050000000000000 0
ion Cr -0.250000000000000   0.250000000000000  -0.150000000000000 0
ion Cr -0.250000000000000   0.750000000000000  -0.150000000000000 0
ion O  0.250000000000000   0.250000000000000   0.150000000000000 1
ion O  0.250000000000000   0.750000000000000   0.150000000000000 1
ion O -0.250000000000000   0.250000000000000   0.150000000000000 1
ion O -0.250000000000000   0.750000000000000   0.150000000000000 1
ion O  0.000000000000000   0.000000000000000   0.050000000000000 1
ion O  0.500000000000000   0.000000000000000   0.050000000000000 1
ion O  0.000000000000000   0.500000000000000   0.050000000000000 1
ion O  0.500000000000000   0.500000000000000   0.050000000000000 1
ion O  0.250000000000000   0.250000000000000  -0.050000000000000 0
ion O  0.250000000000000   0.750000000000000  -0.050000000000000 0
ion O -0.250000000000000   0.250000000000000  -0.050000000000000 0
ion O -0.250000000000000   0.750000000000000  -0.050000000000000 0
ion O  0.000000000000000   0.000000000000000  -0.150000000000000 0
ion O  0.500000000000000   0.000000000000000  -0.150000000000000 0
ion O  0.000000000000000   0.500000000000000  -0.150000000000000 0
ion O  0.500000000000000   0.500000000000000  -0.150000000000000 0
ion O -0.000095572322686   0.000198307128402   0.224876729873325 1
ion-species SG15/$ID_ONCV_PBE.upf
ion-width 0
ionic-minimize  \
	dirUpdateScheme      L-BFGS \
	linminMethod         DirUpdateRecommended \
	nIterations          1000 \
	history              15 \
	knormThreshold       0.0001 \
	energyDiffThreshold  0.0001 \
	nEnergyDiff          3 \
	alphaTstart          1 \
	alphaTmin            1e-10 \
	updateTestStepSize   yes \
	alphaTreduceFactor   0.1 \
	alphaTincreaseFactor 3 \
	nAlphaAdjustMax      3 \
	wolfeEnergy          0.0001 \
	wolfeGradient        0.9 \
	fdTest               no
kpoint   0.500000000000   0.500000000000   0.500000000000  1.00000000000000
kpoint-folding 3 3 1 
latt-move-scale 1 1 1
latt-scale 1 1 1 
lattice  \
	   8.140000000000001    8.140000000000001    0.000000000000000  \
	   8.140000000000001   -8.140000000000001    0.000000000000000  \
	   0.000000000000000    0.000000000000000   40.700000000000003 
lattice-minimize  \
	dirUpdateScheme      L-BFGS \
	linminMethod         DirUpdateRecommended \
	nIterations          0 \
	history              15 \
	knormThreshold       0 \
	energyDiffThreshold  1e-06 \
	nEnergyDiff          2 \
	alphaTstart          1 \
	alphaTmin            1e-10 \
	updateTestStepSize   yes \
	alphaTreduceFactor   0.1 \
	alphaTincreaseFactor 3 \
	nAlphaAdjustMax      3 \
	wolfeEnergy          0.0001 \
	wolfeGradient        0.9 \
	fdTest               no
lcao-params -1 1e-06 0.001
pcm-variant GLSSA13
spintype z-spin
subspace-rotation-factor 1 yes
symmetries none
symmetry-threshold 0.0001


Applied RMS atom displacement 0 bohrs to make symmetries exact.

---------- Initializing the Grid ----------
R = 
[         8.14         8.14            0  ]
[         8.14        -8.14            0  ]
[            0            0         40.7  ]
unit cell volume = 5393.53
G =
[   0.385945   0.385945         -0  ]
[   0.385945  -0.385945         -0  ]
[         -0         -0   0.154378  ]
Minimum fftbox size, Smin = [  60  60  204  ]
Chosen fftbox size, S = [  60  60  210  ]

---------- Exchange Correlation functional ----------
Initialized LibXC exchange functional 'Hammer, Hansen, and Norskov'
Initialized LibXC correlation functional 'Perdew, Burke & Ernzerhof'

---------- Setting up pseudopotentials ----------
Width of ionic core gaussian charges (only for fluid interactions / plotting) set to 0

Reading pseudopotential file '/data2/jt577/jdftx_eat_withLibXC/build/pseudopotentials/SG15/Ni_ONCV_PBE.upf':
  'Ni' pseudopotential, 'PBE' functional
  Generated using ONCVPSP code by D. R. Hamann
  Author: Martin Schlipf and Francois Gygi  Date: 150915.
  18 valence electrons, 4 orbitals, 6 projectors, 1292 radial grid points, with lMax = 2
  Transforming local potential to a uniform radial grid of dG=0.02 with 1419 points.
  Transforming nonlocal projectors to a uniform radial grid of dG=0.02 with 528 points.
    3S    l: 0   occupation:  2.0   eigenvalue: -4.081355
    3P    l: 1   occupation:  6.0   eigenvalue: -2.623460
    4S    l: 0   occupation:  2.0   eigenvalue: -0.207378
    3D    l: 2   occupation:  8.0   eigenvalue: -0.326118
  Transforming atomic orbitals to a uniform radial grid of dG=0.02 with 528 points.
  WARNING: large normalization error in atomic orbital 1s (integral: 0.000006).
  Core radius for overlap checks: 1.99 bohrs.
  Reading pulay file /data2/jt577/jdftx_eat_withLibXC/build/pseudopotentials/SG15/Ni_ONCV_PBE.pulay ... using dE_dnG = -7.250568e-04 computed for Ecut = 30.

Reading pseudopotential file '/data2/jt577/jdftx_eat_withLibXC/build/pseudopotentials/SG15/V_ONCV_PBE.upf':
  'V' pseudopotential, 'PBE' functional
  Generated using ONCVPSP code by D. R. Hamann
  Author: Martin Schlipf and Francois Gygi  Date: 150915.
  13 valence electrons, 4 orbitals, 6 projectors, 1536 radial grid points, with lMax = 2
  Transforming local potential to a uniform radial grid of dG=0.02 with 1419 points.
  Transforming nonlocal projectors to a uniform radial grid of dG=0.02 with 528 points.
    3S    l: 0   occupation:  2.0   eigenvalue: -2.581105
    3P    l: 1   occupation:  6.0   eigenvalue: -1.618486
    4S    l: 0   occupation:  2.0   eigenvalue: -0.172804
    3D    l: 2   occupation:  3.0   eigenvalue: -0.189795
  Transforming atomic orbitals to a uniform radial grid of dG=0.02 with 528 points.
  Core radius for overlap checks: 1.80 bohrs.
  Reading pulay file /data2/jt577/jdftx_eat_withLibXC/build/pseudopotentials/SG15/V_ONCV_PBE.pulay ... using dE_dnG = -1.698632e-04 computed for Ecut = 30.

Reading pseudopotential file '/data2/jt577/jdftx_eat_withLibXC/build/pseudopotentials/SG15/Co_ONCV_PBE.upf':
  'Co' pseudopotential, 'PBE' functional
  Generated using ONCVPSP code by D. R. Hamann
  Author: Martin Schlipf and Francois Gygi  Date: 150915.
  17 valence electrons, 4 orbitals, 6 projectors, 1388 radial grid points, with lMax = 2
  Transforming local potential to a uniform radial grid of dG=0.02 with 1419 points.
  Transforming nonlocal projectors to a uniform radial grid of dG=0.02 with 528 points.
    3S    l: 0   occupation:  2.0   eigenvalue: -3.763303
    3P    l: 1   occupation:  6.0   eigenvalue: -2.412101
    4S    l: 0   occupation:  2.0   eigenvalue: -0.201022
    3D    l: 2   occupation:  7.0   eigenvalue: -0.301498
  Transforming atomic orbitals to a uniform radial grid of dG=0.02 with 528 points.
  Core radius for overlap checks: 1.94 bohrs.
  Reading pulay file /data2/jt577/jdftx_eat_withLibXC/build/pseudopotentials/SG15/Co_ONCV_PBE.pulay ... using dE_dnG = -9.787391e-05 computed for Ecut = 30.

Reading pseudopotential file '/data2/jt577/jdftx_eat_withLibXC/build/pseudopotentials/SG15/Cr_ONCV_PBE.upf':
  'Cr' pseudopotential, 'PBE' functional
  Generated using ONCVPSP code by D. R. Hamann
  Author: Martin Schlipf and Francois Gygi  Date: 150915.
  14 valence electrons, 4 orbitals, 6 projectors, 1160 radial grid points, with lMax = 2
  Transforming local potential to a uniform radial grid of dG=0.02 with 1419 points.
  Transforming nonlocal projectors to a uniform radial grid of dG=0.02 with 528 points.
    3S    l: 0   occupation:  2.0   eigenvalue: -2.865131
    3P    l: 1   occupation:  6.0   eigenvalue: -1.810600
    4S    l: 0   occupation:  2.0   eigenvalue: -0.180525
    3D    l: 2   occupation:  4.0   eigenvalue: -0.220312
  Transforming atomic orbitals to a uniform radial grid of dG=0.02 with 528 points.
  WARNING: large normalization error in atomic orbital 1s (integral: 0.000001).
  Core radius for overlap checks: 2.10 bohrs.
  Reading pulay file /data2/jt577/jdftx_eat_withLibXC/build/pseudopotentials/SG15/Cr_ONCV_PBE.pulay ... using dE_dnG = -9.817895e-06 computed for Ecut = 30.

Reading pseudopotential file '/data2/jt577/jdftx_eat_withLibXC/build/pseudopotentials/SG15/O_ONCV_PBE.upf':
  'O' pseudopotential, 'PBE' functional
  Generated using ONCVPSP code by D. R. Hamann
  Author: Martin Schlipf and Francois Gygi  Date: 150915.
  6 valence electrons, 2 orbitals, 4 projectors, 936 radial grid points, with lMax = 1
  Transforming local potential to a uniform radial grid of dG=0.02 with 1419 points.
  Transforming nonlocal projectors to a uniform radial grid of dG=0.02 with 528 points.
    2S    l: 0   occupation:  2.0   eigenvalue: -0.880572
    2P    l: 1   occupation:  4.0   eigenvalue: -0.331869
  Transforming atomic orbitals to a uniform radial grid of dG=0.02 with 528 points.
  Core radius for overlap checks: 1.29 bohrs.
  Reading pulay file /data2/jt577/jdftx_eat_withLibXC/build/pseudopotentials/SG15/O_ONCV_PBE.pulay ... using dE_dnG = -8.209514e-03 computed for Ecut = 30.

Initialized 5 species with 33 total atoms.

Folded 1 k-points by 3x3x1 to 9 k-points.

---------- Setting up k-points, bands, fillings ----------
No reducable k-points. 
Computing the number of bands and number of electrons
Calculating initial fillings.
nElectrons: 349.000000   nBands: 228   nStates: 18

----- Setting up reduced wavefunction bases (one per k-point) -----
average nbasis = 42312.000 , ideal nbasis = 42330.081

---------- Setting up ewald sum ----------
Optimum gaussian width for ewald sums = 3.906449 bohr.
Real space sum over 605 unit cells with max indices [  5  5  2  ]
Reciprocal space sum over 5915 terms with max indices [  6  6  17  ]

---------- Allocating electronic variables ----------
Initializing wave functions:  linear combination of atomic orbitals
Ni (M=1) pseudo-atom majority spin occupations:   s ( 1 0.5 )  p ( 3 )  d ( 5 )
Ni (M=1) pseudo-atom minority spin occupations:   s ( 1 0 )  p ( 3 )  d ( 4.5 )
V (M=1) pseudo-atom majority spin occupations:   s ( 1 0 )  p ( 3 )  d ( 3 )
V (M=1) pseudo-atom minority spin occupations:   s ( 1 0 )  p ( 3 )  d ( 2 )
Co (M=1) pseudo-atom majority spin occupations:   s ( 1 0 )  p ( 3 )  d ( 5 )
Co (M=1) pseudo-atom minority spin occupations:   s ( 1 0 )  p ( 3 )  d ( 4 )
Cr (M=1) pseudo-atom majority spin occupations:   s ( 1 0 )  p ( 3 )  d ( 3.5 )
Cr (M=1) pseudo-atom minority spin occupations:   s ( 1 0 )  p ( 3 )  d ( 2.5 )
O pseudo-atom occupations:   s ( 2 )  p ( 4 )
	FillingsUpdate:  mu: +0.376423443  nElectrons: 349.000000  magneticMoment: [ Abs: 0.52100  Tot: +0.00000 ]
LCAOMinimize: Iter:   0  F: -1850.4682434556223143  |grad|_K:  1.336e-02  alpha:  1.000e+00
LCAOMinimize: 	Step increased F by 1.485215e+02, reducing alpha to 2.656005e-02.
	FillingsUpdate:  mu: +0.435286130  nElectrons: 349.000000  magneticMoment: [ Abs: 0.72997  Tot: -0.00000 ]
LCAOMinimize: Iter:   1  F: -1855.3093858624970380  |grad|_K:  1.748e-02  alpha:  2.656e-02  linmin: -5.908e-02  cgtest:  6.987e-01  t[s]:    130.58
LCAOMinimize: 	Wrong curvature in test step, increasing alphaT to 7.968015e-02.
	FillingsUpdate:  mu: +0.598644006  nElectrons: 349.000000  magneticMoment: [ Abs: 6.53773  Tot: +0.00000 ]
LCAOMinimize: Iter:   2  F: -1881.0430850882657978  |grad|_K:  2.037e-02  alpha: -1.648e-02  linmin: -4.701e-02  cgtest:  4.516e-01  t[s]:    165.56
LCAOMinimize: 	Step increased F by 8.992804e+01, reducing alpha to 4.007289e-02.
LCAOMinimize: 	Step increased F by 2.656065e+01, reducing alpha to 4.007289e-03.
	FillingsUpdate:  mu: +0.573799304  nElectrons: 349.000000  magneticMoment: [ Abs: 7.80766  Tot: -0.00000 ]
LCAOMinimize: Iter:   3  F: -1885.5034123672589885  |grad|_K:  2.755e-02  alpha:  4.007e-03  linmin: -3.585e-02  cgtest:  7.325e-01  t[s]:    255.34
LCAOMinimize: 	Wrong curvature in test step, increasing alphaT to 1.202187e-02.
	FillingsUpdate:  mu: +0.567064288  nElectrons: 349.000000  magneticMoment: [ Abs: 9.30549  Tot: +0.00000 ]
LCAOMinimize: Iter:   4  F: -1893.3918947382871920  |grad|_K:  2.562e-02  alpha: -1.707e-02  linmin: -4.559e-02  cgtest:  7.816e-01  t[s]:    287.47
LCAOMinimize: 	Step increased F by 8.568483e+01, reducing alpha to 4.170984e-02.
	FillingsUpdate:  mu: +1.318139181  nElectrons: 349.000000  magneticMoment: [ Abs: 13.36030  Tot: +0.00000 ]
LCAOMinimize: Iter:   5  F: -1929.4374045524200483  |grad|_K:  3.883e-02  alpha:  4.171e-02  linmin:  4.185e-02  cgtest: -1.606e-01  t[s]:    349.60
LCAOMinimize: 	Bad step direction: g.d > 0.
LCAOMinimize: 	Undoing step.
LCAOMinimize: 	Step failed: resetting search direction.
	FillingsUpdate:  mu: +1.318139181  nElectrons: 349.000000  magneticMoment: [ Abs: 13.36030  Tot: +0.00000 ]
LCAOMinimize: Iter:   6  F: -1929.4374045524200483  |grad|_K:  3.883e-02  alpha:  0.000e+00
	FillingsUpdate:  mu: +0.494113593  nElectrons: 349.000000  magneticMoment: [ Abs: 15.21687  Tot: -0.00000 ]
LCAOMinimize: Iter:   7  F: -1943.3489523098492100  |grad|_K:  3.184e-02  alpha:  2.845e-02  linmin: -1.620e-02  cgtest: -7.207e-01  t[s]:    411.19
	FillingsUpdate:  mu: +0.251317590  nElectrons: 349.000000  magneticMoment: [ Abs: 11.81833  Tot: -0.00000 ]
LCAOMinimize: Iter:   8  F: -1949.6664668891685324  |grad|_K:  1.831e-02  alpha:  1.607e-02  linmin:  9.903e-03  cgtest: -2.561e-01  t[s]:    446.21
LCAOMinimize: 	Predicted alpha/alphaT>3.000000, increasing alphaT to 4.821566e-02.
	FillingsUpdate:  mu: +0.278248620  nElectrons: 349.000000  magneticMoment: [ Abs: 6.17729  Tot: +0.00000 ]
LCAOMinimize: Iter:   9  F: -1954.6444058111778759  |grad|_K:  1.321e-02  alpha:  3.074e-02  linmin:  6.091e-03  cgtest:  2.820e-01  t[s]:    490.38
	FillingsUpdate:  mu: +0.092018594  nElectrons: 349.000000  magneticMoment: [ Abs: 7.87545  Tot: +0.00000 ]
LCAOMinimize: Iter:  10  F: -1959.1906479428071179  |grad|_K:  1.399e-02  alpha:  5.945e-02  linmin:  1.149e-02  cgtest:  2.682e-01  t[s]:    524.91
	FillingsUpdate:  mu: +0.102675152  nElectrons: 349.000000  magneticMoment: [ Abs: 8.33308  Tot: -0.00000 ]
LCAOMinimize: Iter:  11  F: -1959.9695375223211613  |grad|_K:  1.230e-02  alpha:  5.015e-03  linmin: -6.680e-02  cgtest:  9.806e-01  t[s]:    558.82
LCAOMinimize: Encountered beta<0, resetting CG.
LCAOMinimize: 	Predicted alpha/alphaT>3.000000, increasing alphaT to 1.504382e-02.
	FillingsUpdate:  mu: +0.195279643  nElectrons: 349.000000  magneticMoment: [ Abs: 10.10738  Tot: -0.00000 ]
LCAOMinimize: Iter:  12  F: -1962.2560436835453856  |grad|_K:  1.258e-02  alpha:  3.017e-02  linmin:  7.781e-03  cgtest: -1.209e-01  t[s]:    602.47
	FillingsUpdate:  mu: +0.374200372  nElectrons: 349.000000  magneticMoment: [ Abs: 11.05782  Tot: +0.00000 ]
LCAOMinimize: Iter:  13  F: -1963.0553287354875920  |grad|_K:  1.295e-02  alpha:  1.288e-02  linmin:  4.384e-02  cgtest:  1.724e-01  t[s]:    636.96
LCAOMinimize: 	Step increased F by 7.100782e-01, reducing alpha to 1.884386e-03.
	FillingsUpdate:  mu: +0.374178596  nElectrons: 349.000000  magneticMoment: [ Abs: 11.19782  Tot: +0.00000 ]
LCAOMinimize: Iter:  14  F: -1963.1981671367043418  |grad|_K:  1.275e-02  alpha:  1.884e-03  linmin: -3.242e-02  cgtest:  1.004e+00  t[s]:    695.90
LCAOMinimize: Encountered beta<0, resetting CG.
LCAOMinimize: 	Predicted alpha/alphaT>3.000000, increasing alphaT to 5.653158e-03.
	FillingsUpdate:  mu: +0.048492291  nElectrons: 349.000000  magneticMoment: [ Abs: 11.29027  Tot: +0.00000 ]
LCAOMinimize: Iter:  15  F: -1964.1367940291590912  |grad|_K:  6.962e-03  alpha:  1.457e-02  linmin:  2.940e-02  cgtest: -3.518e-01  t[s]:    739.62
	FillingsUpdate:  mu: -0.047047817  nElectrons: 349.000000  magneticMoment: [ Abs: 11.81329  Tot: -0.00000 ]
LCAOMinimize: Iter:  16  F: -1964.5365475050148234  |grad|_K:  7.396e-03  alpha:  2.151e-02  linmin:  2.591e-02  cgtest:  3.302e-01  t[s]:    774.03
	FillingsUpdate:  mu: +0.034293066  nElectrons: 349.000000  magneticMoment: [ Abs: 12.33190  Tot: +0.00000 ]
LCAOMinimize: Iter:  17  F: -1964.8630495025383880  |grad|_K:  4.809e-03  alpha:  1.323e-02  linmin:  7.818e-04  cgtest:  5.529e-01  t[s]:    808.20
	FillingsUpdate:  mu: +0.037342305  nElectrons: 349.000000  magneticMoment: [ Abs: 12.52528  Tot: -0.00000 ]
LCAOMinimize: Iter:  18  F: -1964.9885908734702298  |grad|_K:  2.452e-03  alpha:  1.145e-02  linmin:  3.463e-03  cgtest:  2.581e-02  t[s]:    842.67
	FillingsUpdate:  mu: +0.065881662  nElectrons: 349.000000  magneticMoment: [ Abs: 12.38555  Tot: +0.00000 ]
LCAOMinimize: Iter:  19  F: -1965.0598823806913060  |grad|_K:  2.325e-03  alpha:  2.492e-02  linmin: -1.170e-03  cgtest: -9.973e-02  t[s]:    877.35
	FillingsUpdate:  mu: +0.050366561  nElectrons: 349.000000  magneticMoment: [ Abs: 12.42122  Tot: +0.00000 ]
LCAOMinimize: Iter:  20  F: -1965.1200999210902864  |grad|_K:  1.783e-03  alpha:  2.330e-02  linmin: -1.709e-03  cgtest:  4.134e-01  t[s]:    911.66
	FillingsUpdate:  mu: +0.036660793  nElectrons: 349.000000  magneticMoment: [ Abs: 12.87622  Tot: -0.00000 ]
LCAOMinimize: Iter:  21  F: -1965.1788826456784136  |grad|_K:  2.169e-03  alpha:  3.739e-02  linmin: -2.573e-03  cgtest: -1.343e-02  t[s]:    945.66
	FillingsUpdate:  mu: +0.047858676  nElectrons: 349.000000  magneticMoment: [ Abs: 13.17999  Tot: +0.00000 ]
LCAOMinimize: Iter:  22  F: -1965.2197301721316762  |grad|_K:  1.337e-03  alpha:  1.927e-02  linmin:  2.037e-03  cgtest: -2.036e-01  t[s]:    980.32
LCAOMinimize: 	Predicted alpha/alphaT>3.000000, increasing alphaT to 5.781445e-02.
	FillingsUpdate:  mu: +0.070239001  nElectrons: 349.000000  magneticMoment: [ Abs: 14.10737  Tot: -0.00000 ]
LCAOMinimize: Iter:  23  F: -1965.2784424933026912  |grad|_K:  1.351e-03  alpha:  7.155e-02  linmin: -3.046e-03  cgtest:  5.827e-01  t[s]:   1024.05
	FillingsUpdate:  mu: +0.040119948  nElectrons: 349.000000  magneticMoment: [ Abs: 14.49090  Tot: +0.00000 ]
LCAOMinimize: Iter:  24  F: -1965.3300008272944979  |grad|_K:  1.314e-03  alpha:  5.929e-02  linmin: -1.992e-03  cgtest: -7.213e-02  t[s]:   1058.37
	FillingsUpdate:  mu: +0.072551076  nElectrons: 349.000000  magneticMoment: [ Abs: 15.68885  Tot: +0.00000 ]
LCAOMinimize: Iter:  25  F: -1965.4019701022666595  |grad|_K:  1.241e-03  alpha:  8.297e-02  linmin: -1.257e-03  cgtest: -2.219e-01  t[s]:   1093.74
	FillingsUpdate:  mu: +0.065239757  nElectrons: 349.000000  magneticMoment: [ Abs: 16.36790  Tot: +0.00000 ]
LCAOMinimize: Iter:  26  F: -1965.4260562443953404  |grad|_K:  1.268e-03  alpha:  3.207e-02  linmin: -8.342e-06  cgtest: -1.562e-05  t[s]:   1128.10
	FillingsUpdate:  mu: +0.052156587  nElectrons: 349.000000  magneticMoment: [ Abs: 17.25113  Tot: +0.00000 ]
LCAOMinimize: Iter:  27  F: -1965.4568158591566771  |grad|_K:  7.083e-04  alpha:  3.987e-02  linmin: -2.819e-03  cgtest:  1.222e-01  t[s]:   1162.89
	FillingsUpdate:  mu: +0.065067686  nElectrons: 349.000000  magneticMoment: [ Abs: 17.89226  Tot: +0.00000 ]
LCAOMinimize: Iter:  28  F: -1965.4867554917857433  |grad|_K:  6.841e-04  alpha:  1.138e-01  linmin: -3.563e-03  cgtest: -4.966e-02  t[s]:   1196.95
	FillingsUpdate:  mu: +0.067928125  nElectrons: 349.000000  magneticMoment: [ Abs: 18.85941  Tot: -0.00000 ]
LCAOMinimize: Iter:  29  F: -1965.5073938224318226  |grad|_K:  6.808e-04  alpha:  8.969e-02  linmin: -2.328e-03  cgtest: -1.446e-01  t[s]:   1232.36
	FillingsUpdate:  mu: +0.059394021  nElectrons: 349.000000  magneticMoment: [ Abs: 19.36842  Tot: -0.00000 ]
LCAOMinimize: Iter:  30  F: -1965.5138003813494834  |grad|_K:  6.848e-04  alpha:  3.610e-02  linmin:  5.207e-03  cgtest: -2.316e-01  t[s]:   1266.81
LCAOMinimize: None of the convergence criteria satisfied after 30 iterations.


---- Citations for features of the code used in this run ----

   Software package:
      R. Sundararaman, K. Letchworth-Weaver, K.A. Schwarz, D. Gunceler, Y. Ozhabes and T.A. Arias, 'JDFTx: software for joint density-functional theory', SoftwareX 6, 278 (2017)

   Simplified rotationally-invariant DFT+U:
      S. L. Dudarev et al., Phys. Rev. B 57, 1505 (1998)

   LibXC library of exchange-correlation functions:
      M. A. L. Marques, M. J. T. Oliveira and T. Burnus, Comput. Phys. Commun. 183, 2272 (2012)

   Hammer, Hansen, and Norskov exchange functional:
      B. Hammer, L. B. Hansen, and J. K. Nørskov, Phys. Rev. B 59, 7413 (1999)

   Perdew, Burke & Ernzerhof correlation functional:
      J. P. Perdew, K. Burke, and M. Ernzerhof, Phys. Rev. Lett. 77, 3865 (1996)

   Pseudopotentials:
      M Schlipf and F Gygi, Comput. Phys. Commun. 196, 36 (2015)

   Total energy minimization with Auxiliary Hamiltonian:
      C. Freysoldt, S. Boeck, and J. Neugebauer, Phys. Rev. B 79, 241103(R) (2009)

This list may not be complete. Please suggest additional citations or
report any other bugs at https://github.com/shankar1729/jdftx/issues

Initialization completed successfully at t[s]:   1278.53


-------- Electronic minimization -----------
	FillingsUpdate:  mu: +0.059394022  nElectrons: 349.000000  magneticMoment: [ Abs: 19.36842  Tot: -0.00000 ]
ElecMinimize: Iter:   0  F: -1965.513800381345845  |grad|_K:  6.784e-04  alpha:  1.000e+00
	FillingsUpdate:  mu: +0.499151911  nElectrons: 349.000000  magneticMoment: [ Abs: 19.48056  Tot: -0.00000 ]
	SubspaceRotationAdjust: set factor to 0.992
ElecMinimize: Iter:   1  F: -1987.844582974200193  |grad|_K:  9.693e-04  alpha:  4.677e-01  linmin:  5.392e-03  t[s]:   1390.69
ElecMinimize: 	Step increased F by 6.089235e+00, reducing alpha to 6.034216e-03.
	FillingsUpdate:  mu: +0.431048123  nElectrons: 349.000000  magneticMoment: [ Abs: 19.61999  Tot: +0.00000 ]
	SubspaceRotationAdjust: set factor to 1.09
ElecMinimize: Iter:   2  F: -1989.760684616564959  |grad|_K:  7.678e-04  alpha:  6.034e-03  linmin: -4.857e-03  t[s]:   1519.51
ElecMinimize: 	Predicted alpha/alphaT>3.000000, increasing alphaT to 1.810265e-02.
	FillingsUpdate:  mu: +0.455186485  nElectrons: 349.000000  magneticMoment: [ Abs: 20.63074  Tot: -0.00000 ]
	SubspaceRotationAdjust: set factor to 0.772
ElecMinimize: Iter:   3  F: -1992.540436938047606  |grad|_K:  9.910e-04  alpha:  1.836e-02  linmin:  2.271e-03  t[s]:   1613.58
	FillingsUpdate:  mu: +0.507457629  nElectrons: 349.000000  magneticMoment: [ Abs: 20.93524  Tot: +0.00000 ]
	SubspaceRotationAdjust: set factor to 0.464
ElecMinimize: Iter:   4  F: -1992.823024814747214  |grad|_K:  1.295e-03  alpha:  5.595e-03  linmin:  9.239e-04  t[s]:   1687.34
	FillingsUpdate:  mu: +0.592298248  nElectrons: 349.000000  magneticMoment: [ Abs: 21.91479  Tot: -0.00000 ]
	SubspaceRotationAdjust: set factor to 0.281
ElecMinimize: Iter:   5  F: -1994.485432373404819  |grad|_K:  1.201e-03  alpha:  6.738e-03  linmin: -1.402e-03  t[s]:   1761.03
	FillingsUpdate:  mu: +0.287331658  nElectrons: 349.000000  magneticMoment: [ Abs: 22.70435  Tot: +0.00000 ]
	SubspaceRotationAdjust: set factor to 0.165
ElecMinimize: Iter:   6  F: -2000.012180672617887  |grad|_K:  1.127e-03  alpha:  1.874e-02  linmin:  3.761e-04  t[s]:   1834.22
	FillingsUpdate:  mu: +0.122485348  nElectrons: 349.000000  magneticMoment: [ Abs: 22.70979  Tot: -0.00000 ]
	SubspaceRotationAdjust: set factor to 0.15
ElecMinimize: Iter:   7  F: -2003.628853823531699  |grad|_K:  6.761e-04  alpha:  1.777e-02  linmin:  1.042e-03  t[s]:   1908.00
	FillingsUpdate:  mu: +0.168961635  nElectrons: 349.000000  magneticMoment: [ Abs: 22.73665  Tot: +0.00000 ]
	SubspaceRotationAdjust: set factor to 0.163
ElecMinimize: Iter:   8  F: -2004.587977972935050  |grad|_K:  6.206e-04  alpha:  1.896e-02  linmin: -3.657e-05  t[s]:   1981.74
	FillingsUpdate:  mu: +0.416614314  nElectrons: 349.000000  magneticMoment: [ Abs: 22.89709  Tot: -0.00000 ]
	SubspaceRotationAdjust: set factor to 0.162
ElecMinimize: Iter:   9  F: -2005.622218516135263  |grad|_K:  6.321e-04  alpha:  1.541e-02  linmin:  4.670e-05  t[s]:   2055.78
	FillingsUpdate:  mu: +0.477939556  nElectrons: 349.000000  magneticMoment: [ Abs: 22.72975  Tot: -0.00000 ]
	SubspaceRotationAdjust: set factor to 0.136
ElecMinimize: Iter:  10  F: -2006.552749587924382  |grad|_K:  6.714e-04  alpha:  1.299e-02  linmin:  4.985e-04  t[s]:   2130.55
	FillingsUpdate:  mu: +0.615887296  nElectrons: 349.000000  magneticMoment: [ Abs: 22.35117  Tot: -0.00000 ]
	SubspaceRotationAdjust: set factor to 0.103
	SubspaceRotationAdjust: resetting CG because factor has changed by 0.103437
ElecMinimize: 	State modified externally: resetting search direction.
ElecMinimize: Iter:  11  F: -2007.289246348779216  |grad|_K:  6.382e-04  alpha:  9.153e-03
ElecMinimize: 	Predicted alpha/alphaT>3.000000, increasing alphaT to 2.745782e-02.
ElecMinimize: 	Predicted alpha/alphaT>3.000000, increasing alphaT to 8.237345e-02.
	FillingsUpdate:  mu: +0.445140846  nElectrons: 349.000000  magneticMoment: [ Abs: 24.74991  Tot: +0.00000 ]
	SubspaceRotationAdjust: set factor to 0.0628
ElecMinimize: Iter:  12  F: -2016.129114367301781  |grad|_K:  3.833e-04  alpha:  1.314e-01  linmin:  8.012e-03  t[s]:   2353.36
	FillingsUpdate:  mu: +0.208835399  nElectrons: 349.000000  magneticMoment: [ Abs: 25.57044  Tot: -0.00000 ]
	SubspaceRotationAdjust: set factor to 0.124
ElecMinimize: Iter:  13  F: -2019.631709242705256  |grad|_K:  1.395e-04  alpha:  1.439e-01  linmin: -5.264e-03  t[s]:   2427.23
	FillingsUpdate:  mu: +0.187541324  nElectrons: 349.000000  magneticMoment: [ Abs: 25.33822  Tot: -0.00000 ]
	SubspaceRotationAdjust: set factor to 0.0807
ElecMinimize: Iter:  14  F: -2020.644380780753863  |grad|_K:  1.423e-04  alpha:  2.679e-01  linmin: -2.396e-03  t[s]:   2501.30
	FillingsUpdate:  mu: +0.200600023  nElectrons: 349.000000  magneticMoment: [ Abs: 25.47159  Tot: -0.00000 ]
	SubspaceRotationAdjust: set factor to 0.069
ElecMinimize: Iter:  15  F: -2021.142515482161571  |grad|_K:  9.451e-05  alpha:  1.241e-01  linmin: -2.862e-04  t[s]:   2574.97
	FillingsUpdate:  mu: +0.191298606  nElectrons: 349.000000  magneticMoment: [ Abs: 25.50701  Tot: -0.00000 ]
	SubspaceRotationAdjust: set factor to 0.0519
ElecMinimize: Iter:  16  F: -2021.558416866248763  |grad|_K:  9.699e-05  alpha:  2.690e-01  linmin:  6.819e-04  t[s]:   2649.18
	FillingsUpdate:  mu: +0.106188826  nElectrons: 349.000000  magneticMoment: [ Abs: 25.35984  Tot: -0.00000 ]
	SubspaceRotationAdjust: set factor to 0.0709
ElecMinimize: Iter:  17  F: -2021.805901032001657  |grad|_K:  7.425e-05  alpha:  1.668e-01  linmin: -1.127e-04  t[s]:   2723.14
	FillingsUpdate:  mu: +0.101424359  nElectrons: 349.000000  magneticMoment: [ Abs: 25.34141  Tot: -0.00000 ]
	SubspaceRotationAdjust: set factor to 0.0602
ElecMinimize: Iter:  18  F: -2021.988065784455330  |grad|_K:  7.551e-05  alpha:  1.851e-01  linmin: -4.641e-05  t[s]:   2796.64
	FillingsUpdate:  mu: +0.129881196  nElectrons: 349.000000  magneticMoment: [ Abs: 25.81038  Tot: -0.00000 ]
	SubspaceRotationAdjust: set factor to 0.0878
ElecMinimize: Iter:  19  F: -2022.165574221368388  |grad|_K:  6.167e-05  alpha:  1.769e-01  linmin: -6.809e-05  t[s]:   2870.91
	FillingsUpdate:  mu: +0.154024619  nElectrons: 349.000000  magneticMoment: [ Abs: 26.41265  Tot: -0.00000 ]
	SubspaceRotationAdjust: set factor to 0.0885
ElecMinimize: Iter:  20  F: -2022.292787596041080  |grad|_K:  6.221e-05  alpha:  1.874e-01  linmin: -2.216e-04  t[s]:   2944.23
	FillingsUpdate:  mu: +0.139218257  nElectrons: 349.000000  magneticMoment: [ Abs: 27.08999  Tot: +0.00000 ]
	SubspaceRotationAdjust: set factor to 0.127
ElecMinimize: Iter:  21  F: -2022.442887446437680  |grad|_K:  5.415e-05  alpha:  2.064e-01  linmin: -1.686e-04  t[s]:   3018.80
	FillingsUpdate:  mu: +0.110594745  nElectrons: 349.000000  magneticMoment: [ Abs: 27.65877  Tot: +0.00000 ]
	SubspaceRotationAdjust: set factor to 0.114
ElecMinimize: Iter:  22  F: -2022.552549259134594  |grad|_K:  6.654e-05  alpha:  2.006e-01  linmin: -8.531e-05  t[s]:   3092.46
	FillingsUpdate:  mu: +0.119796419  nElectrons: 349.000000  magneticMoment: [ Abs: 28.89286  Tot: +0.00000 ]
	SubspaceRotationAdjust: set factor to 0.147
ElecMinimize: Iter:  23  F: -2022.720638969683250  |grad|_K:  6.025e-05  alpha:  2.077e-01  linmin: -1.088e-04  t[s]:   3166.84
	FillingsUpdate:  mu: +0.128858043  nElectrons: 349.000000  magneticMoment: [ Abs: 30.69712  Tot: +0.00000 ]
	SubspaceRotationAdjust: set factor to 0.168
ElecMinimize: Iter:  24  F: -2022.954723124267957  |grad|_K:  6.778e-05  alpha:  3.227e-01  linmin: -1.258e-04  t[s]:   3241.36
	FillingsUpdate:  mu: +0.093929188  nElectrons: 349.000000  magneticMoment: [ Abs: 32.46262  Tot: +0.00000 ]
	SubspaceRotationAdjust: set factor to 0.117
ElecMinimize: Iter:  25  F: -2023.054417897184067  |grad|_K:  1.082e-04  alpha:  1.621e-01  linmin:  1.648e-04  t[s]:   3315.40
	FillingsUpdate:  mu: +0.085790899  nElectrons: 349.000000  magneticMoment: [ Abs: 34.12764  Tot: +0.00000 ]
	SubspaceRotationAdjust: set factor to 0.122
ElecMinimize: Iter:  26  F: -2023.234539173836538  |grad|_K:  1.072e-04  alpha:  1.043e-01  linmin: -1.227e-04  t[s]:   3388.83
	FillingsUpdate:  mu: +0.086156680  nElectrons: 349.000000  magneticMoment: [ Abs: 34.16188  Tot: +0.00000 ]
	SubspaceRotationAdjust: set factor to 0.125
ElecMinimize: Iter:  27  F: -2023.236404173370602  |grad|_K:  1.080e-04  alpha:  3.047e-03  linmin: -7.797e-04  t[s]:   3462.73
ElecMinimize: 	Predicted alpha/alphaT>3.000000, increasing alphaT to 9.141917e-03.
ElecMinimize: 	Predicted alpha/alphaT>3.000000, increasing alphaT to 2.742575e-02.
ElecMinimize: 	Predicted alpha/alphaT>3.000000, increasing alphaT to 8.227725e-02.
ElecMinimize: 	Step increased F by 4.551261e+00, reducing alpha to 8.934103e-03.
	FillingsUpdate:  mu: +0.096213045  nElectrons: 349.000000  magneticMoment: [ Abs: 34.26805  Tot: +0.00000 ]
	SubspaceRotationAdjust: set factor to 0.134
ElecMinimize: Iter:  28  F: -2023.309499107445390  |grad|_K:  1.012e-04  alpha:  8.934e-03  linmin: -1.413e-03  t[s]:   3625.92
ElecMinimize: 	Predicted alpha/alphaT>3.000000, increasing alphaT to 2.680231e-02.
	FillingsUpdate:  mu: +0.144335322  nElectrons: 349.000000  magneticMoment: [ Abs: 34.73990  Tot: -0.00000 ]
	SubspaceRotationAdjust: set factor to 0.138
ElecMinimize: Iter:  29  F: -2023.581628173851641  |grad|_K:  7.525e-05  alpha:  4.717e-02  linmin: -2.960e-04  t[s]:   3721.70
	FillingsUpdate:  mu: +0.161943332  nElectrons: 349.000000  magneticMoment: [ Abs: 34.85192  Tot: -0.00000 ]
	SubspaceRotationAdjust: set factor to 0.193
ElecMinimize: Iter:  30  F: -2023.621910510660200  |grad|_K:  6.903e-05  alpha:  2.342e-02  linmin: -3.362e-04  t[s]:   3797.80
	FillingsUpdate:  mu: +0.153426747  nElectrons: 349.000000  magneticMoment: [ Abs: 34.93022  Tot: -0.00000 ]
	SubspaceRotationAdjust: set factor to 0.256
ElecMinimize: Iter:  31  F: -2023.643241628905116  |grad|_K:  6.512e-05  alpha:  1.729e-02  linmin: -1.175e-06  t[s]:   3873.87
	FillingsUpdate:  mu: +0.152371772  nElectrons: 349.000000  magneticMoment: [ Abs: 34.93491  Tot: -0.00000 ]
	SubspaceRotationAdjust: set factor to 0.293
ElecMinimize: Iter:  32  F: -2023.644646435846198  |grad|_K:  6.811e-05  alpha:  1.013e-03  linmin: -9.713e-04  t[s]:   3949.57
ElecMinimize: 	Predicted alpha/alphaT>3.000000, increasing alphaT to 3.038239e-03.
ElecMinimize: 	Predicted alpha/alphaT>3.000000, increasing alphaT to 9.114718e-03.
	FillingsUpdate:  mu: +0.144928320  nElectrons: 349.000000  magneticMoment: [ Abs: 34.97220  Tot: -0.00000 ]
	SubspaceRotationAdjust: set factor to 0.377
ElecMinimize: Iter:  33  F: -2023.656441951344050  |grad|_K:  6.079e-05  alpha:  6.671e-03  linmin: -3.950e-05  t[s]:   4065.44
	FillingsUpdate:  mu: +0.143754192  nElectrons: 349.000000  magneticMoment: [ Abs: 34.97727  Tot: -0.00000 ]
	SubspaceRotationAdjust: set factor to 0.43
ElecMinimize: Iter:  34  F: -2023.657469934114033  |grad|_K:  6.270e-05  alpha:  9.928e-04  linmin: -6.940e-04  t[s]:   4139.35
	FillingsUpdate:  mu: +0.137446980  nElectrons: 349.000000  magneticMoment: [ Abs: 34.99138  Tot: -0.00000 ]
	SubspaceRotationAdjust: set factor to 0.483
ElecMinimize: Iter:  35  F: -2023.659543349674777  |grad|_K:  6.076e-05  alpha:  2.277e-03  linmin:  6.200e-04  t[s]:   4213.27
	FillingsUpdate:  mu: +0.136824294  nElectrons: 349.000000  magneticMoment: [ Abs: 34.99340  Tot: +0.00000 ]
	SubspaceRotationAdjust: set factor to 0.512
ElecMinimize: Iter:  36  F: -2023.659670826409638  |grad|_K:  6.194e-05  alpha:  2.985e-04  linmin: -1.744e-04  t[s]:   4287.57
	FillingsUpdate:  mu: +0.135137772  nElectrons: 349.000000  magneticMoment: [ Abs: 34.99918  Tot: -0.00000 ]
	SubspaceRotationAdjust: set factor to 0.529
ElecMinimize: Iter:  37  F: -2023.660188239513900  |grad|_K:  6.160e-05  alpha:  7.277e-04  linmin:  1.748e-04  t[s]:   4360.84
	FillingsUpdate:  mu: +0.134078947  nElectrons: 349.000000  magneticMoment: [ Abs: 35.00287  Tot: +0.00000 ]
	SubspaceRotationAdjust: set factor to 0.535
ElecMinimize: Iter:  38  F: -2023.660426190625685  |grad|_K:  6.154e-05  alpha:  3.935e-04  linmin: -2.685e-05  t[s]:   4435.09
	FillingsUpdate:  mu: +0.131944608  nElectrons: 349.000000  magneticMoment: [ Abs: 35.00742  Tot: +0.00000 ]
	SubspaceRotationAdjust: set factor to 0.533
ElecMinimize: Iter:  39  F: -2023.660700131447129  |grad|_K:  6.128e-05  alpha:  4.086e-04  linmin:  4.775e-05  t[s]:   4508.74
	FillingsUpdate:  mu: +0.129801249  nElectrons: 349.000000  magneticMoment: [ Abs: 35.01176  Tot: +0.00000 ]
	SubspaceRotationAdjust: set factor to 0.525
ElecMinimize: Iter:  40  F: -2023.660910459475645  |grad|_K:  6.101e-05  alpha:  3.287e-04  linmin:  1.747e-05  t[s]:   4583.64
	FillingsUpdate:  mu: +0.127338372  nElectrons: 349.000000  magneticMoment: [ Abs: 35.01644  Tot: +0.00000 ]
	SubspaceRotationAdjust: set factor to 0.511
ElecMinimize: Iter:  41  F: -2023.661104005558173  |grad|_K:  6.072e-05  alpha:  3.009e-04  linmin:  2.717e-05  t[s]:   4657.11
	FillingsUpdate:  mu: +0.124658721  nElectrons: 349.000000  magneticMoment: [ Abs: 35.02134  Tot: +0.00000 ]
	SubspaceRotationAdjust: set factor to 0.493
ElecMinimize: Iter:  42  F: -2023.661275476315950  |grad|_K:  6.040e-05  alpha:  2.708e-04  linmin:  2.353e-05  t[s]:   4731.03
	FillingsUpdate:  mu: +0.122044946  nElectrons: 349.000000  magneticMoment: [ Abs: 35.02653  Tot: +0.00000 ]
	SubspaceRotationAdjust: set factor to 0.472
ElecMinimize: Iter:  43  F: -2023.661432839929375  |grad|_K:  6.008e-05  alpha:  2.508e-04  linmin:  2.398e-05  t[s]:   4805.53
	FillingsUpdate:  mu: +0.119267771  nElectrons: 349.000000  magneticMoment: [ Abs: 35.03201  Tot: +0.00000 ]
	SubspaceRotationAdjust: set factor to 0.448
ElecMinimize: Iter:  44  F: -2023.661578352429160  |grad|_K:  5.974e-05  alpha:  2.346e-04  linmin:  2.326e-05  t[s]:   4879.42
	FillingsUpdate:  mu: +0.116582307  nElectrons: 349.000000  magneticMoment: [ Abs: 35.03777  Tot: -0.00000 ]
	SubspaceRotationAdjust: set factor to 0.423
ElecMinimize: Iter:  45  F: -2023.661714569585229  |grad|_K:  5.938e-05  alpha:  2.221e-04  linmin:  2.291e-05  t[s]:   4953.87
	FillingsUpdate:  mu: +0.114165459  nElectrons: 349.000000  magneticMoment: [ Abs: 35.04381  Tot: +0.00000 ]
	SubspaceRotationAdjust: set factor to 0.397
ElecMinimize: Iter:  46  F: -2023.661843128839109  |grad|_K:  5.901e-05  alpha:  2.121e-04  linmin:  2.254e-05  t[s]:   5028.10
	FillingsUpdate:  mu: +0.111836394  nElectrons: 349.000000  magneticMoment: [ Abs: 35.05011  Tot: +0.00000 ]
	SubspaceRotationAdjust: set factor to 0.371
ElecMinimize: Iter:  47  F: -2023.661965322062088  |grad|_K:  5.862e-05  alpha:  2.041e-04  linmin:  2.223e-05  t[s]:   5101.71
	FillingsUpdate:  mu: +0.109336143  nElectrons: 349.000000  magneticMoment: [ Abs: 35.05665  Tot: +0.00000 ]
	SubspaceRotationAdjust: set factor to 0.345
ElecMinimize: Iter:  48  F: -2023.662082127334088  |grad|_K:  5.822e-05  alpha:  1.977e-04  linmin:  2.191e-05  t[s]:   5174.79
	FillingsUpdate:  mu: +0.106740409  nElectrons: 349.000000  magneticMoment: [ Abs: 35.06342  Tot: +0.00000 ]
	SubspaceRotationAdjust: set factor to 0.32
ElecMinimize: Iter:  49  F: -2023.662194329224803  |grad|_K:  5.780e-05  alpha:  1.925e-04  linmin:  2.157e-05  t[s]:   5248.85
	FillingsUpdate:  mu: +0.104089382  nElectrons: 349.000000  magneticMoment: [ Abs: 35.07039  Tot: -0.00000 ]
	SubspaceRotationAdjust: set factor to 0.296
ElecMinimize: Iter:  50  F: -2023.662302574721025  |grad|_K:  5.737e-05  alpha:  1.884e-04  linmin:  2.115e-05  t[s]:   5322.67
	FillingsUpdate:  mu: +0.101390976  nElectrons: 349.000000  magneticMoment: [ Abs: 35.07756  Tot: +0.00000 ]
	SubspaceRotationAdjust: set factor to 0.273
ElecMinimize: Iter:  51  F: -2023.662407424010098  |grad|_K:  5.692e-05  alpha:  1.852e-04  linmin:  2.061e-05  t[s]:   5396.52
	FillingsUpdate:  mu: +0.098676870  nElectrons: 349.000000  magneticMoment: [ Abs: 35.08492  Tot: -0.00000 ]
	SubspaceRotationAdjust: set factor to 0.252
ElecMinimize: Iter:  52  F: -2023.662509387130740  |grad|_K:  5.646e-05  alpha:  1.829e-04  linmin:  1.993e-05  t[s]:   5470.57
	FillingsUpdate:  mu: +0.096093200  nElectrons: 349.000000  magneticMoment: [ Abs: 35.09247  Tot: -0.00000 ]
	SubspaceRotationAdjust: set factor to 0.232
ElecMinimize: Iter:  53  F: -2023.662608941325288  |grad|_K:  5.599e-05  alpha:  1.814e-04  linmin:  1.909e-05  t[s]:   5545.52
	FillingsUpdate:  mu: +0.094021799  nElectrons: 349.000000  magneticMoment: [ Abs: 35.10023  Tot: -0.00000 ]
	SubspaceRotationAdjust: set factor to 0.213
ElecMinimize: Iter:  54  F: -2023.662706548448341  |grad|_K:  5.552e-05  alpha:  1.808e-04  linmin:  1.808e-05  t[s]:   5620.68
	FillingsUpdate:  mu: +0.091754848  nElectrons: 349.000000  magneticMoment: [ Abs: 35.10819  Tot: -0.00000 ]
	SubspaceRotationAdjust: set factor to 0.196
ElecMinimize: Iter:  55  F: -2023.662802666255175  |grad|_K:  5.503e-05  alpha:  1.810e-04  linmin:  1.689e-05  t[s]:   5695.07
	FillingsUpdate:  mu: +0.089053768  nElectrons: 349.000000  magneticMoment: [ Abs: 35.11638  Tot: +0.00000 ]
	SubspaceRotationAdjust: set factor to 0.181
ElecMinimize: Iter:  56  F: -2023.662897751490618  |grad|_K:  5.454e-05  alpha:  1.821e-04  linmin:  1.555e-05  t[s]:   5769.40
	FillingsUpdate:  mu: +0.086206492  nElectrons: 349.000000  magneticMoment: [ Abs: 35.12481  Tot: +0.00000 ]
	SubspaceRotationAdjust: set factor to 0.166
ElecMinimize: Iter:  57  F: -2023.662992264131162  |grad|_K:  5.405e-05  alpha:  1.842e-04  linmin:  1.404e-05  t[s]:   5844.19
	FillingsUpdate:  mu: +0.083800725  nElectrons: 349.000000  magneticMoment: [ Abs: 35.13351  Tot: +0.00000 ]
	SubspaceRotationAdjust: set factor to 0.153
ElecMinimize: Iter:  58  F: -2023.663086674996975  |grad|_K:  5.354e-05  alpha:  1.872e-04  linmin:  1.238e-05  t[s]:   5917.97
	FillingsUpdate:  mu: +0.081512125  nElectrons: 349.000000  magneticMoment: [ Abs: 35.14251  Tot: +0.00000 ]
	SubspaceRotationAdjust: set factor to 0.141
ElecMinimize: Iter:  59  F: -2023.663181470989230  |grad|_K:  5.304e-05  alpha:  1.913e-04  linmin:  1.057e-05  t[s]:   5991.99
	FillingsUpdate:  mu: +0.079890441  nElectrons: 349.000000  magneticMoment: [ Abs: 35.15185  Tot: -0.00000 ]
	SubspaceRotationAdjust: set factor to 0.13
ElecMinimize: Iter:  60  F: -2023.663277160235793  |grad|_K:  5.252e-05  alpha:  1.966e-04  linmin:  8.613e-06  t[s]:   6066.09
	FillingsUpdate:  mu: +0.078177688  nElectrons: 349.000000  magneticMoment: [ Abs: 35.16156  Tot: -0.00000 ]
	SubspaceRotationAdjust: set factor to 0.12
ElecMinimize: Iter:  61  F: -2023.663374285156351  |grad|_K:  5.200e-05  alpha:  2.033e-04  linmin:  6.492e-06  t[s]:   6140.15
	FillingsUpdate:  mu: +0.076081741  nElectrons: 349.000000  magneticMoment: [ Abs: 35.17168  Tot: -0.00000 ]
	SubspaceRotationAdjust: set factor to 0.11
ElecMinimize: Iter:  62  F: -2023.663473434926345  |grad|_K:  5.147e-05  alpha:  2.114e-04  linmin:  4.215e-06  t[s]:   6214.13
	FillingsUpdate:  mu: +0.073927929  nElectrons: 349.000000  magneticMoment: [ Abs: 35.18228  Tot: +0.00000 ]
	SubspaceRotationAdjust: set factor to 0.102
ElecMinimize: Iter:  63  F: -2023.663575261139840  |grad|_K:  5.094e-05  alpha:  2.213e-04  linmin:  1.749e-06  t[s]:   6287.88
	FillingsUpdate:  mu: +0.071777152  nElectrons: 349.000000  magneticMoment: [ Abs: 35.19340  Tot: -0.00000 ]
	SubspaceRotationAdjust: set factor to 0.0939
ElecMinimize: Iter:  64  F: -2023.663680500643295  |grad|_K:  5.039e-05  alpha:  2.332e-04  linmin: -9.632e-07  t[s]:   6362.31
	FillingsUpdate:  mu: +0.069673209  nElectrons: 349.000000  magneticMoment: [ Abs: 35.20513  Tot: +0.00000 ]
	SubspaceRotationAdjust: set factor to 0.0866
ElecMinimize: Iter:  65  F: -2023.663790012973323  |grad|_K:  4.983e-05  alpha:  2.475e-04  linmin: -3.948e-06  t[s]:   6437.08
	FillingsUpdate:  mu: +0.067450323  nElectrons: 349.000000  magneticMoment: [ Abs: 35.21755  Tot: -0.00000 ]
	SubspaceRotationAdjust: set factor to 0.08
ElecMinimize: Iter:  66  F: -2023.663904816722834  |grad|_K:  4.925e-05  alpha:  2.649e-04  linmin: -7.283e-06  t[s]:   6511.52
	FillingsUpdate:  mu: +0.065093360  nElectrons: 349.000000  magneticMoment: [ Abs: 35.23075  Tot: -0.00000 ]
	SubspaceRotationAdjust: set factor to 0.0738
ElecMinimize: Iter:  67  F: -2023.664026154353905  |grad|_K:  4.866e-05  alpha:  2.859e-04  linmin: -1.108e-05  t[s]:   6585.57
	FillingsUpdate:  mu: +0.062643773  nElectrons: 349.000000  magneticMoment: [ Abs: 35.24487  Tot: -0.00000 ]
	SubspaceRotationAdjust: set factor to 0.0681
ElecMinimize: Iter:  68  F: -2023.664155583099500  |grad|_K:  4.804e-05  alpha:  3.116e-04  linmin: -1.548e-05  t[s]:   6659.57
	FillingsUpdate:  mu: +0.060121281  nElectrons: 349.000000  magneticMoment: [ Abs: 35.26006  Tot: -0.00000 ]
	SubspaceRotationAdjust: set factor to 0.0628
ElecMinimize: Iter:  69  F: -2023.664295112969057  |grad|_K:  4.741e-05  alpha:  3.436e-04  linmin: -2.070e-05  t[s]:   6734.15
	FillingsUpdate:  mu: +0.058190220  nElectrons: 349.000000  magneticMoment: [ Abs: 35.27652  Tot: -0.00000 ]
	SubspaceRotationAdjust: set factor to 0.058
ElecMinimize: Iter:  70  F: -2023.664447407481475  |grad|_K:  4.674e-05  alpha:  3.837e-04  linmin: -2.702e-05  t[s]:   6808.10
	FillingsUpdate:  mu: +0.056501530  nElectrons: 349.000000  magneticMoment: [ Abs: 35.29451  Tot: -0.00000 ]
	SubspaceRotationAdjust: set factor to 0.0534
ElecMinimize: Iter:  71  F: -2023.664616109036160  |grad|_K:  4.605e-05  alpha:  4.352e-04  linmin: -3.485e-05  t[s]:   6882.15
	FillingsUpdate:  mu: +0.054676130  nElectrons: 349.000000  magneticMoment: [ Abs: 35.31435  Tot: +0.00000 ]
	SubspaceRotationAdjust: set factor to 0.0493
ElecMinimize: Iter:  72  F: -2023.664806329656130  |grad|_K:  4.532e-05  alpha:  5.026e-04  linmin: -4.463e-05  t[s]:   6955.40
	FillingsUpdate:  mu: +0.052377556  nElectrons: 349.000000  magneticMoment: [ Abs: 35.33649  Tot: +0.00000 ]
	SubspaceRotationAdjust: set factor to 0.0454
ElecMinimize: Iter:  73  F: -2023.665025341894989  |grad|_K:  4.455e-05  alpha:  5.931e-04  linmin: -5.665e-05  t[s]:   7029.37
	FillingsUpdate:  mu: +0.049491384  nElectrons: 349.000000  magneticMoment: [ Abs: 35.36142  Tot: -0.00000 ]
	SubspaceRotationAdjust: set factor to 0.0418
ElecMinimize: Iter:  74  F: -2023.665283230009209  |grad|_K:  4.375e-05  alpha:  7.163e-04  linmin: -6.995e-05  t[s]:   7102.56
	FillingsUpdate:  mu: +0.045665130  nElectrons: 349.000000  magneticMoment: [ Abs: 35.38953  Tot: -0.00000 ]
	SubspaceRotationAdjust: set factor to 0.0387
ElecMinimize: Iter:  75  F: -2023.665591857260551  |grad|_K:  4.292e-05  alpha:  8.813e-04  linmin: -7.900e-05  t[s]:   7176.41
	FillingsUpdate:  mu: +0.042215174  nElectrons: 349.000000  magneticMoment: [ Abs: 35.42044  Tot: +0.00000 ]
	SubspaceRotationAdjust: set factor to 0.0359
ElecMinimize: Iter:  76  F: -2023.665956297034427  |grad|_K:  4.212e-05  alpha:  1.078e-03  linmin: -6.888e-05  t[s]:   7250.01
	FillingsUpdate:  mu: +0.038023754  nElectrons: 349.000000  magneticMoment: [ Abs: 35.45178  Tot: +0.00000 ]
	SubspaceRotationAdjust: set factor to 0.0337
ElecMinimize: Iter:  77  F: -2023.666353534765904  |grad|_K:  4.144e-05  alpha:  1.236e-03  linmin: -3.034e-05  t[s]:   7324.22
	FillingsUpdate:  mu: +0.034743800  nElectrons: 349.000000  magneticMoment: [ Abs: 35.47993  Tot: +0.00000 ]
	SubspaceRotationAdjust: set factor to 0.0321
ElecMinimize: Iter:  78  F: -2023.666735005184819  |grad|_K:  4.098e-05  alpha:  1.255e-03  linmin:  1.103e-06  t[s]:   7397.69
	FillingsUpdate:  mu: +0.032234637  nElectrons: 349.000000  magneticMoment: [ Abs: 35.50385  Tot: +0.00000 ]
	SubspaceRotationAdjust: set factor to 0.031
ElecMinimize: Iter:  79  F: -2023.667081497412482  |grad|_K:  4.079e-05  alpha:  1.184e-03  linmin:  7.492e-06  t[s]:   7471.18
	FillingsUpdate:  mu: +0.030153732  nElectrons: 349.000000  magneticMoment: [ Abs: 35.52453  Tot: +0.00000 ]
	SubspaceRotationAdjust: set factor to 0.0303
ElecMinimize: Iter:  80  F: -2023.667401783008927  |grad|_K:  4.083e-05  alpha:  1.108e-03  linmin:  6.677e-06  t[s]:   7544.87
	FillingsUpdate:  mu: +0.029995552  nElectrons: 349.000000  magneticMoment: [ Abs: 35.54296  Tot: +0.00000 ]
	SubspaceRotationAdjust: set factor to 0.0299
ElecMinimize: Iter:  81  F: -2023.667704165894065  |grad|_K:  4.105e-05  alpha:  1.044e-03  linmin:  4.000e-06  t[s]:   7618.06
	FillingsUpdate:  mu: +0.030210202  nElectrons: 349.000000  magneticMoment: [ Abs: 35.55986  Tot: +0.00000 ]
	SubspaceRotationAdjust: set factor to 0.0296
ElecMinimize: Iter:  82  F: -2023.667995173215786  |grad|_K:  4.140e-05  alpha:  9.932e-04  linmin:  1.232e-06  t[s]:   7691.50
	FillingsUpdate:  mu: +0.029720859  nElectrons: 349.000000  magneticMoment: [ Abs: 35.57568  Tot: +0.00000 ]
	SubspaceRotationAdjust: set factor to 0.0296
ElecMinimize: Iter:  83  F: -2023.668279423979357  |grad|_K:  4.185e-05  alpha:  9.525e-04  linmin: -1.124e-06  t[s]:   7766.61
	FillingsUpdate:  mu: +0.029043910  nElectrons: 349.000000  magneticMoment: [ Abs: 35.59075  Tot: -0.00000 ]
	SubspaceRotationAdjust: set factor to 0.0296
ElecMinimize: Iter:  84  F: -2023.668560065432985  |grad|_K:  4.235e-05  alpha:  9.195e-04  linmin: -2.954e-06  t[s]:   7841.05
	FillingsUpdate:  mu: +0.028299199  nElectrons: 349.000000  magneticMoment: [ Abs: 35.60529  Tot: +0.00000 ]
	SubspaceRotationAdjust: set factor to 0.0297
ElecMinimize: Iter:  85  F: -2023.668839150935582  |grad|_K:  4.290e-05  alpha:  8.918e-04  linmin: -4.283e-06  t[s]:   7914.51
	FillingsUpdate:  mu: +0.027923886  nElectrons: 349.000000  magneticMoment: [ Abs: 35.61944  Tot: -0.00000 ]
	SubspaceRotationAdjust: set factor to 0.0299
ElecMinimize: Iter:  86  F: -2023.669117925430783  |grad|_K:  4.347e-05  alpha:  8.675e-04  linmin: -5.183e-06  t[s]:   7988.01
	FillingsUpdate:  mu: +0.028119431  nElectrons: 349.000000  magneticMoment: [ Abs: 35.63328  Tot: +0.00000 ]
	SubspaceRotationAdjust: set factor to 0.0302
ElecMinimize: Iter:  87  F: -2023.669397028256071  |grad|_K:  4.405e-05  alpha:  8.452e-04  linmin: -5.737e-06  t[s]:   8062.13
	FillingsUpdate:  mu: +0.028111436  nElectrons: 349.000000  magneticMoment: [ Abs: 35.64688  Tot: -0.00000 ]
	SubspaceRotationAdjust: set factor to 0.0304
ElecMinimize: Iter:  88  F: -2023.669676656896854  |grad|_K:  4.464e-05  alpha:  8.241e-04  linmin: -6.033e-06  t[s]:   8135.49
	FillingsUpdate:  mu: +0.027508528  nElectrons: 349.000000  magneticMoment: [ Abs: 35.66026  Tot: -0.00000 ]
	SubspaceRotationAdjust: set factor to 0.0307
ElecMinimize: Iter:  89  F: -2023.669956712604971  |grad|_K:  4.522e-05  alpha:  8.036e-04  linmin: -6.153e-06  t[s]:   8209.04
	FillingsUpdate:  mu: +0.026772058  nElectrons: 349.000000  magneticMoment: [ Abs: 35.67344  Tot: -0.00000 ]
	SubspaceRotationAdjust: set factor to 0.0309
ElecMinimize: Iter:  90  F: -2023.670236930718374  |grad|_K:  4.578e-05  alpha:  7.836e-04  linmin: -6.173e-06  t[s]:   8283.18
	FillingsUpdate:  mu: +0.026696594  nElectrons: 349.000000  magneticMoment: [ Abs: 35.68644  Tot: -0.00000 ]
	SubspaceRotationAdjust: set factor to 0.0311
ElecMinimize: Iter:  91  F: -2023.670516995501885  |grad|_K:  4.631e-05  alpha:  7.640e-04  linmin: -6.167e-06  t[s]:   8357.83
	FillingsUpdate:  mu: +0.026917445  nElectrons: 349.000000  magneticMoment: [ Abs: 35.69927  Tot: +0.00000 ]
	SubspaceRotationAdjust: set factor to 0.0314
ElecMinimize: Iter:  92  F: -2023.670796640742537  |grad|_K:  4.682e-05  alpha:  7.452e-04  linmin: -6.185e-06  t[s]:   8431.71
	FillingsUpdate:  mu: +0.027155324  nElectrons: 349.000000  magneticMoment: [ Abs: 35.71193  Tot: -0.00000 ]
	SubspaceRotationAdjust: set factor to 0.0315
ElecMinimize: Iter:  93  F: -2023.671075707841055  |grad|_K:  4.729e-05  alpha:  7.275e-04  linmin: -6.262e-06  t[s]:   8505.24
	FillingsUpdate:  mu: +0.027324913  nElectrons: 349.000000  magneticMoment: [ Abs: 35.72443  Tot: -0.00000 ]
	SubspaceRotationAdjust: set factor to 0.0316
ElecMinimize: Iter:  94  F: -2023.671354181039533  |grad|_K:  4.773e-05  alpha:  7.115e-04  linmin: -6.423e-06  t[s]:   8579.05
	FillingsUpdate:  mu: +0.027343160  nElectrons: 349.000000  magneticMoment: [ Abs: 35.73681  Tot: +0.00000 ]
	SubspaceRotationAdjust: set factor to 0.0317
ElecMinimize: Iter:  95  F: -2023.671632192486186  |grad|_K:  4.812e-05  alpha:  6.974e-04  linmin: -6.668e-06  t[s]:   8653.25
	FillingsUpdate:  mu: +0.027117951  nElectrons: 349.000000  magneticMoment: [ Abs: 35.74909  Tot: -0.00000 ]
	SubspaceRotationAdjust: set factor to 0.0317
ElecMinimize: Iter:  96  F: -2023.671909996345448  |grad|_K:  4.846e-05  alpha:  6.854e-04  linmin: -6.995e-06  t[s]:   8728.95
	FillingsUpdate:  mu: +0.026749065  nElectrons: 349.000000  magneticMoment: [ Abs: 35.76131  Tot: -0.00000 ]
	SubspaceRotationAdjust: set factor to 0.0317
ElecMinimize: Iter:  97  F: -2023.672187942120445  |grad|_K:  4.876e-05  alpha:  6.758e-04  linmin: -7.385e-06  t[s]:   8806.28
	FillingsUpdate:  mu: +0.026509918  nElectrons: 349.000000  magneticMoment: [ Abs: 35.77349  Tot: -0.00000 ]
	SubspaceRotationAdjust: set factor to 0.0316
ElecMinimize: Iter:  98  F: -2023.672466427110294  |grad|_K:  4.902e-05  alpha:  6.686e-04  linmin: -7.822e-06  t[s]:   8882.05
	FillingsUpdate:  mu: +0.026497532  nElectrons: 349.000000  magneticMoment: [ Abs: 35.78566  Tot: +0.00000 ]
	SubspaceRotationAdjust: set factor to 0.0315
ElecMinimize: Iter:  99  F: -2023.672745859872521  |grad|_K:  4.922e-05  alpha:  6.637e-04  linmin: -8.284e-06  t[s]:   8956.45
	FillingsUpdate:  mu: +0.026674440  nElectrons: 349.000000  magneticMoment: [ Abs: 35.79784  Tot: -0.00000 ]
	SubspaceRotationAdjust: set factor to 0.0314
ElecMinimize: Iter: 100  F: -2023.673026617711685  |grad|_K:  4.938e-05  alpha:  6.611e-04  linmin: -8.743e-06  t[s]:   9030.77
	FillingsUpdate:  mu: +0.026981914  nElectrons: 349.000000  magneticMoment: [ Abs: 35.81007  Tot: -0.00000 ]
	SubspaceRotationAdjust: set factor to 0.0312
ElecMinimize: Iter: 101  F: -2023.673309011988522  |grad|_K:  4.949e-05  alpha:  6.604e-04  linmin: -9.183e-06  t[s]:   9105.24
	FillingsUpdate:  mu: +0.027336029  nElectrons: 349.000000  magneticMoment: [ Abs: 35.82233  Tot: +0.00000 ]
	SubspaceRotationAdjust: set factor to 0.0311
ElecMinimize: Iter: 102  F: -2023.673593264836200  |grad|_K:  4.956e-05  alpha:  6.614e-04  linmin: -9.583e-06  t[s]:   9179.13
	FillingsUpdate:  mu: +0.027646032  nElectrons: 349.000000  magneticMoment: [ Abs: 35.83464  Tot: +0.00000 ]
	SubspaceRotationAdjust: set factor to 0.0309
ElecMinimize: Iter: 103  F: -2023.673879486821306  |grad|_K:  4.959e-05  alpha:  6.638e-04  linmin: -9.929e-06  t[s]:   9253.71
	FillingsUpdate:  mu: +0.027866627  nElectrons: 349.000000  magneticMoment: [ Abs: 35.84700  Tot: +0.00000 ]
	SubspaceRotationAdjust: set factor to 0.0307
ElecMinimize: Iter: 104  F: -2023.674167669247254  |grad|_K:  4.959e-05  alpha:  6.673e-04  linmin: -1.021e-05  t[s]:   9328.01
	FillingsUpdate:  mu: +0.028113622  nElectrons: 349.000000  magneticMoment: [ Abs: 35.85942  Tot: -0.00000 ]
	SubspaceRotationAdjust: set factor to 0.0306
ElecMinimize: Iter: 105  F: -2023.674457685026482  |grad|_K:  4.955e-05  alpha:  6.716e-04  linmin: -1.043e-05  t[s]:   9402.78
	FillingsUpdate:  mu: +0.028483339  nElectrons: 349.000000  magneticMoment: [ Abs: 35.87187  Tot: -0.00000 ]
	SubspaceRotationAdjust: set factor to 0.0305
ElecMinimize: Iter: 106  F: -2023.674749296640812  |grad|_K:  4.948e-05  alpha:  6.762e-04  linmin: -1.058e-05  t[s]:   9476.80
	FillingsUpdate:  mu: +0.028982118  nElectrons: 349.000000  magneticMoment: [ Abs: 35.88438  Tot: -0.00000 ]
	SubspaceRotationAdjust: set factor to 0.0304
ElecMinimize: Iter: 107  F: -2023.675042176816987  |grad|_K:  4.938e-05  alpha:  6.809e-04  linmin: -1.066e-05  t[s]:   9550.73
	FillingsUpdate:  mu: +0.029628662  nElectrons: 349.000000  magneticMoment: [ Abs: 35.89693  Tot: -0.00000 ]
	SubspaceRotationAdjust: set factor to 0.0303
ElecMinimize: Iter: 108  F: -2023.675335932085090  |grad|_K:  4.927e-05  alpha:  6.854e-04  linmin: -1.070e-05  t[s]:   9625.40
	FillingsUpdate:  mu: +0.030326963  nElectrons: 349.000000  magneticMoment: [ Abs: 35.90951  Tot: +0.00000 ]
	SubspaceRotationAdjust: set factor to 0.0303
ElecMinimize: Iter: 109  F: -2023.675630124944291  |grad|_K:  4.915e-05  alpha:  6.895e-04  linmin: -1.068e-05  t[s]:   9699.06
	FillingsUpdate:  mu: +0.030965122  nElectrons: 349.000000  magneticMoment: [ Abs: 35.92208  Tot: -0.00000 ]
	SubspaceRotationAdjust: set factor to 0.0304
ElecMinimize: Iter: 110  F: -2023.675924306558727  |grad|_K:  4.902e-05  alpha:  6.929e-04  linmin: -1.064e-05  t[s]:   9772.49
	FillingsUpdate:  mu: +0.031544246  nElectrons: 349.000000  magneticMoment: [ Abs: 35.93465  Tot: -0.00000 ]
	SubspaceRotationAdjust: set factor to 0.0305
ElecMinimize: Iter: 111  F: -2023.676218037459194  |grad|_K:  4.889e-05  alpha:  6.955e-04  linmin: -1.057e-05  t[s]:   9845.74
	FillingsUpdate:  mu: +0.032163773  nElectrons: 349.000000  magneticMoment: [ Abs: 35.94718  Tot: -0.00000 ]
	SubspaceRotationAdjust: set factor to 0.0307
ElecMinimize: Iter: 112  F: -2023.676510906495196  |grad|_K:  4.877e-05  alpha:  6.971e-04  linmin: -1.048e-05  t[s]:   9920.43
	FillingsUpdate:  mu: +0.032797128  nElectrons: 349.000000  magneticMoment: [ Abs: 35.95964  Tot: +0.00000 ]
	SubspaceRotationAdjust: set factor to 0.031
ElecMinimize: Iter: 113  F: -2023.676802542992164  |grad|_K:  4.866e-05  alpha:  6.977e-04  linmin: -1.038e-05  t[s]:   9995.11
	FillingsUpdate:  mu: +0.033467887  nElectrons: 349.000000  magneticMoment: [ Abs: 35.97200  Tot: -0.00000 ]
	SubspaceRotationAdjust: set factor to 0.0313
ElecMinimize: Iter: 114  F: -2023.677092626325020  |grad|_K:  4.856e-05  alpha:  6.973e-04  linmin: -1.028e-05  t[s]:  10069.61
	FillingsUpdate:  mu: +0.034012457  nElectrons: 349.000000  magneticMoment: [ Abs: 35.98425  Tot: -0.00000 ]
	SubspaceRotationAdjust: set factor to 0.0318
ElecMinimize: Iter: 115  F: -2023.677380883131491  |grad|_K:  4.848e-05  alpha:  6.958e-04  linmin: -1.017e-05  t[s]:  10144.12
	FillingsUpdate:  mu: +0.033843617  nElectrons: 349.000000  magneticMoment: [ Abs: 35.99639  Tot: +0.00000 ]
	SubspaceRotationAdjust: set factor to 0.0323
ElecMinimize: Iter: 116  F: -2023.677667087265036  |grad|_K:  4.843e-05  alpha:  6.931e-04  linmin: -1.007e-05  t[s]:  10218.47
	FillingsUpdate:  mu: +0.033296990  nElectrons: 349.000000  magneticMoment: [ Abs: 36.00839  Tot: +0.00000 ]
	SubspaceRotationAdjust: set factor to 0.033
ElecMinimize: Iter: 117  F: -2023.677951054650293  |grad|_K:  4.840e-05  alpha:  6.893e-04  linmin: -9.960e-06  t[s]:  10294.13
	FillingsUpdate:  mu: +0.032861697  nElectrons: 349.000000  magneticMoment: [ Abs: 36.02024  Tot: +0.00000 ]
	SubspaceRotationAdjust: set factor to 0.0337
ElecMinimize: Iter: 118  F: -2023.678232634568076  |grad|_K:  4.840e-05  alpha:  6.844e-04  linmin: -9.852e-06  t[s]:  10369.86
	FillingsUpdate:  mu: +0.032609170  nElectrons: 349.000000  magneticMoment: [ Abs: 36.03190  Tot: +0.00000 ]
	SubspaceRotationAdjust: set factor to 0.0346
ElecMinimize: Iter: 119  F: -2023.678511702544483  |grad|_K:  4.843e-05  alpha:  6.784e-04  linmin: -9.746e-06  t[s]:  10443.42
	FillingsUpdate:  mu: +0.032810001  nElectrons: 349.000000  magneticMoment: [ Abs: 36.04340  Tot: -0.00000 ]
	SubspaceRotationAdjust: set factor to 0.0356
ElecMinimize: Iter: 120  F: -2023.678788153643609  |grad|_K:  4.848e-05  alpha:  6.713e-04  linmin: -9.642e-06  t[s]:  10517.42
	FillingsUpdate:  mu: +0.032823781  nElectrons: 349.000000  magneticMoment: [ Abs: 36.05472  Tot: +0.00000 ]
	SubspaceRotationAdjust: set factor to 0.0368
ElecMinimize: Iter: 121  F: -2023.679061896119265  |grad|_K:  4.857e-05  alpha:  6.632e-04  linmin: -9.534e-06  t[s]:  10591.69
	FillingsUpdate:  mu: +0.033279949  nElectrons: 349.000000  magneticMoment: [ Abs: 36.06587  Tot: -0.00000 ]
	SubspaceRotationAdjust: set factor to 0.0381
ElecMinimize: Iter: 122  F: -2023.679332840937150  |grad|_K:  4.869e-05  alpha:  6.540e-04  linmin: -9.431e-06  t[s]:  10665.45
	FillingsUpdate:  mu: +0.033951569  nElectrons: 349.000000  magneticMoment: [ Abs: 36.07685  Tot: +0.00000 ]
	SubspaceRotationAdjust: set factor to 0.0396
ElecMinimize: Iter: 123  F: -2023.679600907444865  |grad|_K:  4.884e-05  alpha:  6.439e-04  linmin: -9.327e-06  t[s]:  10739.08
	FillingsUpdate:  mu: +0.034164600  nElectrons: 349.000000  magneticMoment: [ Abs: 36.08764  Tot: +0.00000 ]
	SubspaceRotationAdjust: set factor to 0.0413
ElecMinimize: Iter: 124  F: -2023.679866011406602  |grad|_K:  4.902e-05  alpha:  6.330e-04  linmin: -9.229e-06  t[s]:  10812.86
	FillingsUpdate:  mu: +0.033472433  nElectrons: 349.000000  magneticMoment: [ Abs: 36.09826  Tot: -0.00000 ]
	SubspaceRotationAdjust: set factor to 0.0431
ElecMinimize: Iter: 125  F: -2023.680128071873241  |grad|_K:  4.922e-05  alpha:  6.213e-04  linmin: -9.137e-06  t[s]:  10886.85
	FillingsUpdate:  mu: +0.033236669  nElectrons: 349.000000  magneticMoment: [ Abs: 36.10870  Tot: -0.00000 ]
	SubspaceRotationAdjust: set factor to 0.0452
ElecMinimize: Iter: 126  F: -2023.680387010037066  |grad|_K:  4.945e-05  alpha:  6.088e-04  linmin: -9.048e-06  t[s]:  10960.99
	FillingsUpdate:  mu: +0.034968873  nElectrons: 349.000000  magneticMoment: [ Abs: 36.11896  Tot: -0.00000 ]
	SubspaceRotationAdjust: set factor to 0.0475
ElecMinimize: Iter: 127  F: -2023.680642745847763  |grad|_K:  4.970e-05  alpha:  5.958e-04  linmin: -8.971e-06  t[s]:  11034.50
	FillingsUpdate:  mu: +0.035891888  nElectrons: 349.000000  magneticMoment: [ Abs: 36.12905  Tot: -0.00000 ]
	SubspaceRotationAdjust: set factor to 0.0501
ElecMinimize: Iter: 128  F: -2023.680895209323580  |grad|_K:  4.997e-05  alpha:  5.823e-04  linmin: -8.905e-06  t[s]:  11108.58
	FillingsUpdate:  mu: +0.037255537  nElectrons: 349.000000  magneticMoment: [ Abs: 36.13896  Tot: +0.00000 ]
	SubspaceRotationAdjust: set factor to 0.0529
ElecMinimize: Iter: 129  F: -2023.681144337806245  |grad|_K:  5.026e-05  alpha:  5.684e-04  linmin: -8.852e-06  t[s]:  11182.32
	FillingsUpdate:  mu: +0.040355518  nElectrons: 349.000000  magneticMoment: [ Abs: 36.14871  Tot: +0.00000 ]
	SubspaceRotationAdjust: set factor to 0.056
ElecMinimize: Iter: 130  F: -2023.681390080955907  |grad|_K:  5.056e-05  alpha:  5.543e-04  linmin: -8.821e-06  t[s]:  11256.53
	FillingsUpdate:  mu: +0.043245633  nElectrons: 349.000000  magneticMoment: [ Abs: 36.15832  Tot: +0.00000 ]
	SubspaceRotationAdjust: set factor to 0.0594
ElecMinimize: Iter: 131  F: -2023.681632409242866  |grad|_K:  5.088e-05  alpha:  5.401e-04  linmin: -8.805e-06  t[s]:  11330.22
	FillingsUpdate:  mu: +0.045541856  nElectrons: 349.000000  magneticMoment: [ Abs: 36.16779  Tot: -0.00000 ]
	SubspaceRotationAdjust: set factor to 0.0632
ElecMinimize: Iter: 132  F: -2023.681871310364386  |grad|_K:  5.120e-05  alpha:  5.259e-04  linmin: -8.816e-06  t[s]:  11404.82
	FillingsUpdate:  mu: +0.045837615  nElectrons: 349.000000  magneticMoment: [ Abs: 36.17713  Tot: +0.00000 ]
	SubspaceRotationAdjust: set factor to 0.0673
ElecMinimize: Iter: 133  F: -2023.682106803627676  |grad|_K:  5.153e-05  alpha:  5.118e-04  linmin: -8.851e-06  t[s]:  11478.66
	FillingsUpdate:  mu: +0.045876054  nElectrons: 349.000000  magneticMoment: [ Abs: 36.18636  Tot: -0.00000 ]
	SubspaceRotationAdjust: set factor to 0.0718
ElecMinimize: Iter: 134  F: -2023.682338937096574  |grad|_K:  5.187e-05  alpha:  4.980e-04  linmin: -8.921e-06  t[s]:  11553.34
	FillingsUpdate:  mu: +0.044776472  nElectrons: 349.000000  magneticMoment: [ Abs: 36.19549  Tot: -0.00000 ]
	SubspaceRotationAdjust: set factor to 0.0768
ElecMinimize: Iter: 135  F: -2023.682567801583218  |grad|_K:  5.221e-05  alpha:  4.846e-04  linmin: -9.024e-06  t[s]:  11627.30
	FillingsUpdate:  mu: +0.044698897  nElectrons: 349.000000  magneticMoment: [ Abs: 36.20452  Tot: +0.00000 ]
	SubspaceRotationAdjust: set factor to 0.0821
ElecMinimize: Iter: 136  F: -2023.682793531032985  |grad|_K:  5.255e-05  alpha:  4.717e-04  linmin: -9.169e-06  t[s]:  11701.02
	FillingsUpdate:  mu: +0.046544717  nElectrons: 349.000000  magneticMoment: [ Abs: 36.21348  Tot: +0.00000 ]
	SubspaceRotationAdjust: set factor to 0.088
ElecMinimize: Iter: 137  F: -2023.683016313503458  |grad|_K:  5.290e-05  alpha:  4.594e-04  linmin: -9.361e-06  t[s]:  11774.47
	FillingsUpdate:  mu: +0.049480745  nElectrons: 349.000000  magneticMoment: [ Abs: 36.22240  Tot: +0.00000 ]
	SubspaceRotationAdjust: set factor to 0.0944
ElecMinimize: Iter: 138  F: -2023.683236400959231  |grad|_K:  5.324e-05  alpha:  4.479e-04  linmin: -9.603e-06  t[s]:  11848.02
	FillingsUpdate:  mu: +0.051761595  nElectrons: 349.000000  magneticMoment: [ Abs: 36.23129  Tot: -0.00000 ]
	SubspaceRotationAdjust: set factor to 0.101
ElecMinimize: Iter: 139  F: -2023.683454114548340  |grad|_K:  5.358e-05  alpha:  4.373e-04  linmin: -9.906e-06  t[s]:  11922.11
	FillingsUpdate:  mu: +0.054137112  nElectrons: 349.000000  magneticMoment: [ Abs: 36.24018  Tot: -0.00000 ]
	SubspaceRotationAdjust: set factor to 0.109
ElecMinimize: Iter: 140  F: -2023.683669859089832  |grad|_K:  5.392e-05  alpha:  4.277e-04  linmin: -1.028e-05  t[s]:  11995.69
	FillingsUpdate:  mu: +0.056433973  nElectrons: 349.000000  magneticMoment: [ Abs: 36.24909  Tot: -0.00000 ]
	SubspaceRotationAdjust: set factor to 0.117
ElecMinimize: Iter: 141  F: -2023.683884135035441  |grad|_K:  5.425e-05  alpha:  4.193e-04  linmin: -1.072e-05  t[s]:  12069.64
	FillingsUpdate:  mu: +0.059530350  nElectrons: 349.000000  magneticMoment: [ Abs: 36.25807  Tot: +0.00000 ]
	SubspaceRotationAdjust: set factor to 0.126
ElecMinimize: Iter: 142  F: -2023.684097544787392  |grad|_K:  5.459e-05  alpha:  4.122e-04  linmin: -1.124e-05  t[s]:  12143.97
	FillingsUpdate:  mu: +0.062819895  nElectrons: 349.000000  magneticMoment: [ Abs: 36.26716  Tot: +0.00000 ]
	SubspaceRotationAdjust: set factor to 0.135
ElecMinimize: Iter: 143  F: -2023.684310808410373  |grad|_K:  5.493e-05  alpha:  4.067e-04  linmin: -1.183e-05  t[s]:  12217.94
	FillingsUpdate:  mu: +0.064316821  nElectrons: 349.000000  magneticMoment: [ Abs: 36.27641  Tot: +0.00000 ]
	SubspaceRotationAdjust: set factor to 0.145
ElecMinimize: Iter: 144  F: -2023.684524769114887  |grad|_K:  5.526e-05  alpha:  4.027e-04  linmin: -1.250e-05  t[s]:  12291.15
	FillingsUpdate:  mu: +0.066134544  nElectrons: 349.000000  magneticMoment: [ Abs: 36.28589  Tot: -0.00000 ]
	SubspaceRotationAdjust: set factor to 0.156
ElecMinimize: Iter: 145  F: -2023.684740390341858  |grad|_K:  5.560e-05  alpha:  4.006e-04  linmin: -1.320e-05  t[s]:  12364.61
	FillingsUpdate:  mu: +0.068410375  nElectrons: 349.000000  magneticMoment: [ Abs: 36.29566  Tot: -0.00000 ]
	SubspaceRotationAdjust: set factor to 0.168
ElecMinimize: Iter: 146  F: -2023.684958735916325  |grad|_K:  5.595e-05  alpha:  4.004e-04  linmin: -1.392e-05  t[s]:  12437.65
	FillingsUpdate:  mu: +0.071780957  nElectrons: 349.000000  magneticMoment: [ Abs: 36.30580  Tot: +0.00000 ]
	SubspaceRotationAdjust: set factor to 0.18
ElecMinimize: Iter: 147  F: -2023.685180922687323  |grad|_K:  5.630e-05  alpha:  4.020e-04  linmin: -1.455e-05  t[s]:  12511.00
	FillingsUpdate:  mu: +0.074788109  nElectrons: 349.000000  magneticMoment: [ Abs: 36.31639  Tot: -0.00000 ]
	SubspaceRotationAdjust: set factor to 0.193
ElecMinimize: Iter: 148  F: -2023.685408015750681  |grad|_K:  5.667e-05  alpha:  4.054e-04  linmin: -1.501e-05  t[s]:  12585.21
	FillingsUpdate:  mu: +0.078393158  nElectrons: 349.000000  magneticMoment: [ Abs: 36.32751  Tot: +0.00000 ]
	SubspaceRotationAdjust: set factor to 0.207
ElecMinimize: Iter: 149  F: -2023.685640872451359  |grad|_K:  5.705e-05  alpha:  4.101e-04  linmin: -1.514e-05  t[s]:  12658.61
	FillingsUpdate:  mu: +0.082511322  nElectrons: 349.000000  magneticMoment: [ Abs: 36.33924  Tot: -0.00000 ]
	SubspaceRotationAdjust: set factor to 0.221
ElecMinimize: Iter: 150  F: -2023.685879933902243  |grad|_K:  5.744e-05  alpha:  4.153e-04  linmin: -1.484e-05  t[s]:  12732.63
	FillingsUpdate:  mu: +0.086590483  nElectrons: 349.000000  magneticMoment: [ Abs: 36.35165  Tot: +0.00000 ]
	SubspaceRotationAdjust: set factor to 0.236
ElecMinimize: Iter: 151  F: -2023.686125060860149  |grad|_K:  5.786e-05  alpha:  4.201e-04  linmin: -1.408e-05  t[s]:  12807.59
	FillingsUpdate:  mu: +0.091370460  nElectrons: 349.000000  magneticMoment: [ Abs: 36.36482  Tot: -0.00000 ]
	SubspaceRotationAdjust: set factor to 0.251
ElecMinimize: Iter: 152  F: -2023.686375530625583  |grad|_K:  5.829e-05  alpha:  4.234e-04  linmin: -1.301e-05  t[s]:  12883.28
	FillingsUpdate:  mu: +0.096062322  nElectrons: 349.000000  magneticMoment: [ Abs: 36.37882  Tot: -0.00000 ]
	SubspaceRotationAdjust: set factor to 0.267
ElecMinimize: Iter: 153  F: -2023.686630345548338  |grad|_K:  5.873e-05  alpha:  4.249e-04  linmin: -1.194e-05  t[s]:  12958.39
	FillingsUpdate:  mu: +0.098831773  nElectrons: 349.000000  magneticMoment: [ Abs: 36.39377  Tot: +0.00000 ]
	SubspaceRotationAdjust: set factor to 0.284
ElecMinimize: Iter: 154  F: -2023.686888740233371  |grad|_K:  5.920e-05  alpha:  4.247e-04  linmin: -1.116e-05  t[s]:  13032.84
	FillingsUpdate:  mu: +0.102532803  nElectrons: 349.000000  magneticMoment: [ Abs: 36.40985  Tot: +0.00000 ]
	SubspaceRotationAdjust: set factor to 0.3
ElecMinimize: Iter: 155  F: -2023.687150583437187  |grad|_K:  5.967e-05  alpha:  4.240e-04  linmin: -1.079e-05  t[s]:  13106.95
	FillingsUpdate:  mu: +0.105575152  nElectrons: 349.000000  magneticMoment: [ Abs: 36.42728  Tot: +0.00000 ]
	SubspaceRotationAdjust: set factor to 0.318
ElecMinimize: Iter: 156  F: -2023.687416317121915  |grad|_K:  6.015e-05  alpha:  4.236e-04  linmin: -1.060e-05  t[s]:  13181.40
	FillingsUpdate:  mu: +0.108346013  nElectrons: 349.000000  magneticMoment: [ Abs: 36.44629  Tot: +0.00000 ]
	SubspaceRotationAdjust: set factor to 0.336
ElecMinimize: Iter: 157  F: -2023.687686248946648  |grad|_K:  6.065e-05  alpha:  4.235e-04  linmin: -1.007e-05  t[s]:  13255.62
	FillingsUpdate:  mu: +0.110963557  nElectrons: 349.000000  magneticMoment: [ Abs: 36.46707  Tot: -0.00000 ]
	SubspaceRotationAdjust: set factor to 0.355
ElecMinimize: Iter: 158  F: -2023.687959293191170  |grad|_K:  6.115e-05  alpha:  4.216e-04  linmin: -8.548e-06  t[s]:  13330.88
	FillingsUpdate:  mu: +0.113753823  nElectrons: 349.000000  magneticMoment: [ Abs: 36.48959  Tot: -0.00000 ]
	SubspaceRotationAdjust: set factor to 0.375
ElecMinimize: Iter: 159  F: -2023.688231788421035  |grad|_K:  6.166e-05  alpha:  4.145e-04  linmin: -5.791e-06  t[s]:  13405.44
	FillingsUpdate:  mu: +0.117141089  nElectrons: 349.000000  magneticMoment: [ Abs: 36.51353  Tot: +0.00000 ]
	SubspaceRotationAdjust: set factor to 0.396
ElecMinimize: Iter: 160  F: -2023.688497839494403  |grad|_K:  6.219e-05  alpha:  3.991e-04  linmin: -2.549e-06  t[s]:  13479.38
	FillingsUpdate:  mu: +0.121325464  nElectrons: 349.000000  magneticMoment: [ Abs: 36.53840  Tot: +0.00000 ]
	SubspaceRotationAdjust: set factor to 0.417
ElecMinimize: Iter: 161  F: -2023.688751881883491  |grad|_K:  6.274e-05  alpha:  3.758e-04  linmin: -4.379e-08  t[s]:  13552.91
	FillingsUpdate:  mu: +0.125450243  nElectrons: 349.000000  magneticMoment: [ Abs: 36.56375  Tot: -0.00000 ]
	SubspaceRotationAdjust: set factor to 0.439
ElecMinimize: Iter: 162  F: -2023.688991283492214  |grad|_K:  6.332e-05  alpha:  3.488e-04  linmin:  1.188e-06  t[s]:  13627.95
	FillingsUpdate:  mu: +0.129293270  nElectrons: 349.000000  magneticMoment: [ Abs: 36.58941  Tot: -0.00000 ]
	SubspaceRotationAdjust: set factor to 0.46
ElecMinimize: Iter: 163  F: -2023.689216607462413  |grad|_K:  6.392e-05  alpha:  3.228e-04  linmin:  1.326e-06  t[s]:  13703.96
	FillingsUpdate:  mu: +0.131220045  nElectrons: 349.000000  magneticMoment: [ Abs: 36.61544  Tot: +0.00000 ]
	SubspaceRotationAdjust: set factor to 0.48
ElecMinimize: Iter: 164  F: -2023.689430439931584  |grad|_K:  6.455e-05  alpha:  3.007e-04  linmin:  6.643e-07  t[s]:  13777.70
	FillingsUpdate:  mu: +0.132328250  nElectrons: 349.000000  magneticMoment: [ Abs: 36.64209  Tot: +0.00000 ]
	SubspaceRotationAdjust: set factor to 0.498
ElecMinimize: Iter: 165  F: -2023.689636347211945  |grad|_K:  6.520e-05  alpha:  2.839e-04  linmin: -5.930e-07  t[s]:  13851.88
	FillingsUpdate:  mu: +0.134991907  nElectrons: 349.000000  magneticMoment: [ Abs: 36.66971  Tot: -0.00000 ]
	SubspaceRotationAdjust: set factor to 0.513
ElecMinimize: Iter: 166  F: -2023.689838289567433  |grad|_K:  6.586e-05  alpha:  2.726e-04  linmin: -2.313e-06  t[s]:  13925.91
	FillingsUpdate:  mu: +0.138523601  nElectrons: 349.000000  magneticMoment: [ Abs: 36.69877  Tot: +0.00000 ]
	SubspaceRotationAdjust: set factor to 0.526
ElecMinimize: Iter: 167  F: -2023.690040359550494  |grad|_K:  6.653e-05  alpha:  2.668e-04  linmin: -4.323e-06  t[s]:  14000.37
	FillingsUpdate:  mu: +0.142219599  nElectrons: 349.000000  magneticMoment: [ Abs: 36.72975  Tot: -0.00000 ]
	SubspaceRotationAdjust: set factor to 0.536
ElecMinimize: Iter: 168  F: -2023.690246516549905  |grad|_K:  6.721e-05  alpha:  2.661e-04  linmin: -6.243e-06  t[s]:  14074.11
	FillingsUpdate:  mu: +0.145200159  nElectrons: 349.000000  magneticMoment: [ Abs: 36.76312  Tot: -0.00000 ]
	SubspaceRotationAdjust: set factor to 0.543
ElecMinimize: Iter: 169  F: -2023.690459859078146  |grad|_K:  6.789e-05  alpha:  2.692e-04  linmin: -7.170e-06  t[s]:  14147.41
	FillingsUpdate:  mu: +0.148582655  nElectrons: 349.000000  magneticMoment: [ Abs: 36.79898  Tot: +0.00000 ]
	SubspaceRotationAdjust: set factor to 0.547
ElecMinimize: Iter: 170  F: -2023.690680743234680  |grad|_K:  6.856e-05  alpha:  2.729e-04  linmin: -5.586e-06  t[s]:  14221.44
	FillingsUpdate:  mu: +0.151430788  nElectrons: 349.000000  magneticMoment: [ Abs: 36.83657  Tot: +0.00000 ]
	SubspaceRotationAdjust: set factor to 0.55
ElecMinimize: Iter: 171  F: -2023.690904069013868  |grad|_K:  6.922e-05  alpha:  2.710e-04  linmin: -9.086e-07  t[s]:  14295.22
	FillingsUpdate:  mu: +0.153291317  nElectrons: 349.000000  magneticMoment: [ Abs: 36.87432  Tot: -0.00000 ]
	SubspaceRotationAdjust: set factor to 0.551
ElecMinimize: Iter: 172  F: -2023.691120144764682  |grad|_K:  6.986e-05  alpha:  2.585e-04  linmin:  3.800e-06  t[s]:  14369.31
	FillingsUpdate:  mu: +0.154755274  nElectrons: 349.000000  magneticMoment: [ Abs: 36.91100  Tot: -0.00000 ]
	SubspaceRotationAdjust: set factor to 0.551
ElecMinimize: Iter: 173  F: -2023.691322525894520  |grad|_K:  7.047e-05  alpha:  2.388e-04  linmin:  5.277e-06  t[s]:  14444.26
	FillingsUpdate:  mu: +0.156565710  nElectrons: 349.000000  magneticMoment: [ Abs: 36.94670  Tot: -0.00000 ]
	SubspaceRotationAdjust: set factor to 0.549
ElecMinimize: Iter: 174  F: -2023.691512376949049  |grad|_K:  7.107e-05  alpha:  2.206e-04  linmin:  4.100e-06  t[s]:  14517.75
	FillingsUpdate:  mu: +0.157321373  nElectrons: 349.000000  magneticMoment: [ Abs: 36.98228  Tot: +0.00000 ]
	SubspaceRotationAdjust: set factor to 0.546
ElecMinimize: Iter: 175  F: -2023.691694990026690  |grad|_K:  7.164e-05  alpha:  2.086e-04  linmin:  1.127e-06  t[s]:  14591.28
	FillingsUpdate:  mu: +0.158954965  nElectrons: 349.000000  magneticMoment: [ Abs: 37.01905  Tot: +0.00000 ]
	SubspaceRotationAdjust: set factor to 0.542
ElecMinimize: Iter: 176  F: -2023.691877221518780  |grad|_K:  7.217e-05  alpha:  2.042e-04  linmin: -3.418e-06  t[s]:  14665.12
	FillingsUpdate:  mu: +0.161402297  nElectrons: 349.000000  magneticMoment: [ Abs: 37.05865  Tot: +0.00000 ]
	SubspaceRotationAdjust: set factor to 0.539
ElecMinimize: Iter: 177  F: -2023.692067049429625  |grad|_K:  7.267e-05  alpha:  2.083e-04  linmin: -9.607e-06  t[s]:  14739.41
	FillingsUpdate:  mu: +0.163935745  nElectrons: 349.000000  magneticMoment: [ Abs: 37.10335  Tot: +0.00000 ]
	SubspaceRotationAdjust: set factor to 0.536
ElecMinimize: Iter: 178  F: -2023.692274401763598  |grad|_K:  7.310e-05  alpha:  2.224e-04  linmin: -1.772e-05  t[s]:  14813.50
	FillingsUpdate:  mu: +0.165561559  nElectrons: 349.000000  magneticMoment: [ Abs: 37.15638  Tot: -0.00000 ]
	SubspaceRotationAdjust: set factor to 0.537
ElecMinimize: Iter: 179  F: -2023.692512793917558  |grad|_K:  7.343e-05  alpha:  2.492e-04  linmin: -2.770e-05  t[s]:  14887.33
	FillingsUpdate:  mu: +0.167788400  nElectrons: 349.000000  magneticMoment: [ Abs: 37.22225  Tot: -0.00000 ]
	SubspaceRotationAdjust: set factor to 0.545
ElecMinimize: Iter: 180  F: -2023.692799891413188  |grad|_K:  7.359e-05  alpha:  2.926e-04  linmin: -3.670e-05  t[s]:  14961.30
	FillingsUpdate:  mu: +0.170548995  nElectrons: 349.000000  magneticMoment: [ Abs: 37.30461  Tot: -0.00000 ]
	SubspaceRotationAdjust: set factor to 0.565
ElecMinimize: Iter: 181  F: -2023.693146498576652  |grad|_K:  7.350e-05  alpha:  3.479e-04  linmin: -3.321e-05  t[s]:  15035.18
	FillingsUpdate:  mu: +0.171493604  nElectrons: 349.000000  magneticMoment: [ Abs: 37.39761  Tot: -0.00000 ]
	SubspaceRotationAdjust: set factor to 0.6
ElecMinimize: Iter: 182  F: -2023.693517805099646  |grad|_K:  7.333e-05  alpha:  3.780e-04  linmin: -9.684e-06  t[s]:  15109.44
	FillingsUpdate:  mu: +0.171485286  nElectrons: 349.000000  magneticMoment: [ Abs: 37.48486  Tot: +0.00000 ]
	SubspaceRotationAdjust: set factor to 0.643
ElecMinimize: Iter: 183  F: -2023.693846603868451  |grad|_K:  7.350e-05  alpha:  3.461e-04  linmin:  2.392e-06  t[s]:  15182.86
	FillingsUpdate:  mu: +0.172316785  nElectrons: 349.000000  magneticMoment: [ Abs: 37.56233  Tot: -0.00000 ]
	SubspaceRotationAdjust: set factor to 0.687
ElecMinimize: Iter: 184  F: -2023.694130046544160  |grad|_K:  7.403e-05  alpha:  3.013e-04  linmin:  2.424e-06  t[s]:  15257.06
	FillingsUpdate:  mu: +0.173429122  nElectrons: 349.000000  magneticMoment: [ Abs: 37.63294  Tot: -0.00000 ]
	SubspaceRotationAdjust: set factor to 0.725
ElecMinimize: Iter: 185  F: -2023.694387011642448  |grad|_K:  7.474e-05  alpha:  2.697e-04  linmin:  1.013e-06  t[s]:  15331.06
	FillingsUpdate:  mu: +0.174482236  nElectrons: 349.000000  magneticMoment: [ Abs: 37.69925  Tot: -0.00000 ]
	SubspaceRotationAdjust: set factor to 0.755
ElecMinimize: Iter: 186  F: -2023.694629592708679  |grad|_K:  7.548e-05  alpha:  2.497e-04  linmin: -1.156e-06  t[s]:  15405.01
	FillingsUpdate:  mu: +0.174949470  nElectrons: 349.000000  magneticMoment: [ Abs: 37.76332  Tot: +0.00000 ]
	SubspaceRotationAdjust: set factor to 0.776
	SubspaceRotationAdjust: resetting CG because factor has changed by 7.50545
ElecMinimize: 	State modified externally: resetting search direction.
ElecMinimize: Iter: 187  F: -2023.694867337200094  |grad|_K:  7.672e-05  alpha:  2.393e-04
ElecMinimize: 	Predicted alpha/alphaT>3.000000, increasing alphaT to 7.178733e-04.
ElecMinimize: 	Predicted alpha/alphaT>3.000000, increasing alphaT to 2.153620e-03.
ElecMinimize: 	Predicted alpha/alphaT>3.000000, increasing alphaT to 6.460859e-03.
	FillingsUpdate:  mu: +0.095588004  nElectrons: 349.000000  magneticMoment: [ Abs: 37.59820  Tot: +0.00000 ]
	SubspaceRotationAdjust: set factor to 0.432
ElecMinimize: Iter: 188  F: -2023.759277071165116  |grad|_K:  1.244e-04  alpha:  1.162e-01  linmin:  1.113e-02  t[s]:  15627.61
	FillingsUpdate:  mu: +0.089687285  nElectrons: 349.000000  magneticMoment: [ Abs: 37.66786  Tot: -0.00000 ]
	SubspaceRotationAdjust: set factor to 0.255
ElecMinimize: Iter: 189  F: -2023.771576746830078  |grad|_K:  9.831e-05  alpha:  7.960e-03  linmin: -4.909e-03  t[s]:  15700.97
ElecMinimize: 	Predicted alpha/alphaT>3.000000, increasing alphaT to 2.388052e-02.
ElecMinimize: 	Predicted alpha/alphaT>3.000000, increasing alphaT to 7.164155e-02.
	FillingsUpdate:  mu: +0.119133319  nElectrons: 349.000000  magneticMoment: [ Abs: 38.47824  Tot: -0.00000 ]
	SubspaceRotationAdjust: set factor to 0.159
ElecMinimize: Iter: 190  F: -2023.936530175372127  |grad|_K:  6.712e-05  alpha:  7.977e-02  linmin:  2.655e-03  t[s]:  15816.74
	FillingsUpdate:  mu: +0.146468187  nElectrons: 349.000000  magneticMoment: [ Abs: 39.24764  Tot: +0.00000 ]
	SubspaceRotationAdjust: set factor to 0.169
ElecMinimize: Iter: 191  F: -2024.039452812343598  |grad|_K:  4.516e-05  alpha:  1.791e-01  linmin:  2.970e-03  t[s]:  15890.35
	FillingsUpdate:  mu: +0.129202026  nElectrons: 349.000000  magneticMoment: [ Abs: 39.36029  Tot: +0.00000 ]
	SubspaceRotationAdjust: set factor to 0.19
ElecMinimize: Iter: 192  F: -2024.136784849712967  |grad|_K:  3.038e-05  alpha:  3.357e-01  linmin:  2.844e-03  t[s]:  15965.46
[...]
ElecMinimize: Iter:  19  F: -2024.508089393808177  |grad|_K:  1.540e-07  alpha:  3.512e-01  linmin: -3.428e-06  t[s]: 171486.81
	FillingsUpdate:  mu: +0.129205727  nElectrons: 349.000000  magneticMoment: [ Abs: 47.16387  Tot: +0.00000 ]
	SubspaceRotationAdjust: set factor to 0.699
ElecMinimize: Iter:  20  F: -2024.508090663894336  |grad|_K:  1.569e-07  alpha:  3.076e-01  linmin:  8.126e-06  t[s]: 171560.80
	FillingsUpdate:  mu: +0.129273190  nElectrons: 349.000000  magneticMoment: [ Abs: 47.16387  Tot: +0.00000 ]
	SubspaceRotationAdjust: set factor to 0.634
ElecMinimize: Iter:  21  F: -2024.508091578484027  |grad|_K:  1.389e-07  alpha:  2.137e-01  linmin: -5.302e-07  t[s]: 171635.34
	FillingsUpdate:  mu: +0.129186223  nElectrons: 349.000000  magneticMoment: [ Abs: 47.16217  Tot: +0.00000 ]
	SubspaceRotationAdjust: set factor to 0.615
ElecMinimize: Iter:  22  F: -2024.508092603687373  |grad|_K:  1.336e-07  alpha:  3.053e-01  linmin:  2.097e-05  t[s]: 171709.90
	FillingsUpdate:  mu: +0.129179127  nElectrons: 349.000000  magneticMoment: [ Abs: 47.16098  Tot: +0.00000 ]
	SubspaceRotationAdjust: set factor to 0.726
ElecMinimize: Iter:  23  F: -2024.508093709387822  |grad|_K:  1.157e-07  alpha:  3.563e-01  linmin: -1.433e-06  t[s]: 171784.64
	FillingsUpdate:  mu: +0.129241842  nElectrons: 349.000000  magneticMoment: [ Abs: 47.16111  Tot: +0.00000 ]
	SubspaceRotationAdjust: set factor to 0.704
ElecMinimize: Iter:  24  F: -2024.508094476120050  |grad|_K:  1.294e-07  alpha:  3.288e-01  linmin: -1.272e-06  t[s]: 171858.93
	FillingsUpdate:  mu: +0.129170865  nElectrons: 349.000000  magneticMoment: [ Abs: 47.15991  Tot: +0.00000 ]
	SubspaceRotationAdjust: set factor to 0.581
ElecMinimize: Iter:  25  F: -2024.508095110185650  |grad|_K:  1.148e-07  alpha:  2.169e-01  linmin: -2.230e-07  t[s]: 171932.69
	FillingsUpdate:  mu: +0.129171621  nElectrons: 349.000000  magneticMoment: [ Abs: 47.16015  Tot: -0.00000 ]
	SubspaceRotationAdjust: set factor to 0.581
ElecMinimize: Iter:  26  F: -2024.508095757731780  |grad|_K:  9.503e-08  alpha:  2.823e-01  linmin: -1.488e-06  t[s]: 172005.99
	FillingsUpdate:  mu: +0.129187451  nElectrons: 349.000000  magneticMoment: [ Abs: 47.16048  Tot: -0.00000 ]
	SubspaceRotationAdjust: set factor to 0.671
ElecMinimize: Iter:  27  F: -2024.508096327281919  |grad|_K:  8.325e-08  alpha:  3.625e-01  linmin:  4.897e-06  t[s]: 172080.08
	FillingsUpdate:  mu: +0.129160844  nElectrons: 349.000000  magneticMoment: [ Abs: 47.16043  Tot: -0.00000 ]
	SubspaceRotationAdjust: set factor to 0.633
ElecMinimize: Iter:  28  F: -2024.508096707365212  |grad|_K:  8.727e-08  alpha:  3.153e-01  linmin:  1.403e-05  t[s]: 172154.63
ElecMinimize: Converged (|Delta F|<1.000000e-06 for 5 iters).
Setting wave functions to eigenvectors of Hamiltonian

# Ionic positions in lattice coordinates:
ion Ni   0.010544983660246  -0.098608371309326   0.203546256135090 1
ion Ni   0.493244814245136   0.510223509504688   0.166119207558990 1
ion V   0.495120285996468   0.010577944004338   0.172737439871761 1
ion V  -0.015035033483419   0.456979170600156   0.170641516081849 1
ion V   0.500000000000000   0.000000000000000  -0.050000000000000 0
ion Co   0.247374556777678   0.245767654389884   0.064287032678096 1
ion Co   0.252243980227385   0.742525603357022   0.065434278071042 1
ion Co   0.000000000000000   0.500000000000000  -0.050000000000000 0
ion Co   0.500000000000000   0.500000000000000  -0.050000000000000 0
ion Co   0.250000000000000   0.250000000000000  -0.150000000000000 0
ion Co   0.250000000000000   0.750000000000000  -0.150000000000000 0
ion Cr  -0.260515491979226   0.252109023399701   0.056894669836504 1
ion Cr  -0.254837596781129   0.748746401498761   0.066596876712156 1
ion Cr   0.000000000000000   0.000000000000000  -0.050000000000000 0
ion Cr  -0.250000000000000   0.250000000000000  -0.150000000000000 0
ion Cr  -0.250000000000000   0.750000000000000  -0.150000000000000 0
ion O   0.261661914005733   0.276183196714376   0.158962015034208 1
ion O   0.241674934146188   0.740663903550521   0.163555169620906 1
ion O  -0.287616195894136   0.276299988645228   0.150494950664705 1
ion O  -0.257573949540618   0.737484607248230   0.170494999848576 1
ion O  -0.007257937664899   0.017236089866323   0.044574681104966 1
ion O   0.510502904434679  -0.004470377313948   0.058916613754023 1
ion O  -0.023005362952157   0.501343142324520   0.060961087329575 1
ion O   0.492258981274237   0.485606716657974   0.044921102663098 1
ion O   0.250000000000000   0.250000000000000  -0.050000000000000 0
ion O   0.250000000000000   0.750000000000000  -0.050000000000000 0
ion O  -0.250000000000000   0.250000000000000  -0.050000000000000 0
ion O  -0.250000000000000   0.750000000000000  -0.050000000000000 0
ion O   0.000000000000000   0.000000000000000  -0.150000000000000 0
ion O   0.500000000000000   0.000000000000000  -0.150000000000000 0
ion O   0.000000000000000   0.500000000000000  -0.150000000000000 0
ion O   0.500000000000000   0.500000000000000  -0.150000000000000 0
ion O  -0.055963037351520   0.099679253485550   0.255799822435831 1

# Forces in Lattice coordinates:
force Ni  -0.019090205008807   0.030335009639188   0.081126416095227 1
force Ni  -0.032023443243064   0.003877126017776   0.001769292366832 1
force V  -0.005915074649243  -0.011560053105273   0.022374050871607 1
force V   0.000173778896048  -0.019262003610351   0.032523287206152 1
force V  -0.059443917893496  -0.049303113577076   0.924736011114717 0
force Co  -0.002241070986078  -0.004114678653100   0.027058188745256 1
force Co  -0.013408044211212  -0.001851255637283   0.051399133961842 1
force Co   0.016887856593530   0.048603686188123   0.571178840421620 0
force Co  -0.030956784619182   0.030324919588241   0.279244640515602 0
force Co   0.003784496150168   0.031136441730816  -0.099728636318187 0
force Co   0.005337330592916  -0.031839737253350  -0.090064048280812 0
force Cr   0.011481865852672   0.007988796094970  -0.034677140475857 1
force Cr   0.014176770148443  -0.011912068703492  -0.024088448365245 1
force Cr   0.007778865313900  -0.008797894129249   0.451563525575960 0
force Cr  -0.006581929768342   0.040250491657493  -1.179871351221886 0
force Cr  -0.013325853986330  -0.029925645702573  -1.530592806081394 0
force O  -0.005288811560300   0.002616982956841   0.008933636907752 1
force O   0.007330175309957   0.000423495258923  -0.005563472219462 1
force O   0.012861643282875  -0.012428035373373   0.017032084521844 1
force O   0.021201393643186   0.014679847255149   0.076817649687989 1
force O   0.005801080001810   0.011054268016887   0.053722455888476 1
force O  -0.011037476859984   0.002557889297572   0.057695546398101 1
force O  -0.017203651647747  -0.002095565927179  -0.002162915980328 1
force O  -0.008266263061503  -0.000538065006252   0.001497292240813 1
force O  -0.111223200234368  -0.015872312565469  -0.162448372768226 0
force O  -0.086671113374956   0.001615848180260   0.061738511076196 0
force O   0.078363339631238  -0.000725499664942   0.766406747304399 0
force O   0.112809711584155   0.010098580455062   0.684215318180512 0
force O  -0.023233819834418   0.022833674415885   0.073109483309619 0
force O   0.060069561294005   0.029035553199668  -0.248079218783011 0
force O  -0.016264709549228  -0.040765227966652  -0.263410234800952 0
force O   0.055609955857147  -0.027542357278185  -0.253408703713280 0
force O   0.005746736605527  -0.028231085199829  -0.221768115553875 1

# Energy components:
   Eewald =     4940.0164448021187127
       EH =     6759.9732330175493189
     Eloc =   -13856.4186472581332055
      Enl =     -552.4234728116803126
   Epulay =       -0.0004765495153388
      Exc =     -247.7129434295762280
       KE =      930.9928523893402144
        U =        1.0662436573758398
-------------------------------------
     Etot =    -2024.5067661825219147
       TS =        0.0013305248432553
-------------------------------------
        F =    -2024.5080967073652118

IonicMinimize: Iter:  37  F: -2024.508096707365212  |grad|_K:  1.342e-03  alpha:  3.000e+00  linmin: -2.643e-03  t[s]: 172180.10

#--- Lowdin population analysis ---
# oxidation-state Ni +3.538 +3.289
# magnetic-moments Ni +0.690 -0.382
# oxidation-state V +1.181 +1.250 +0.937
# magnetic-moments V -2.931 +2.585 +2.894
# oxidation-state Co +1.259 +1.295 +1.260 +1.247 +1.283 +1.294
# magnetic-moments Co +2.741 +2.789 -2.778 +2.735 -2.768 -2.775
# oxidation-state Cr +3.009 +2.933 +2.915 +2.938 +2.939
# magnetic-moments Cr -3.354 -3.865 -3.519 +2.073 +3.905
# oxidation-state O -0.862 -0.843 -0.735 -0.795 -0.901 -0.946 -0.953 -0.991 -1.036 -1.036 -0.952 -1.008 -0.954 -0.977 -1.019 -1.014 -0.471
# magnetic-moments O +0.025 +0.171 +0.063 +0.199 +0.176 +0.114 +0.090 +0.170 -0.020 -0.017 +0.043 +0.078 -0.044 -0.099 -0.129 -0.050 +1.130


-------- Electronic minimization -----------
	FillingsUpdate:  mu: +0.140790930  nElectrons: 349.000000  magneticMoment: [ Abs: 47.16633  Tot: +0.00000 ]
ElecMinimize: Iter:   0  F: -2023.820510628694137  |grad|_K:  1.330e-04  alpha:  1.000e+00
	FillingsUpdate:  mu: +0.141430595  nElectrons: 349.000000  magneticMoment: [ Abs: 47.24630  Tot: -0.00000 ]
	SubspaceRotationAdjust: set factor to 0.62
ElecMinimize: Iter:   1  F: -2024.419443660981869  |grad|_K:  4.438e-05  alpha:  2.287e-01  linmin:  1.343e-02  t[s]: 172309.66
	FillingsUpdate:  mu: +0.123061538  nElectrons: 349.000000  magneticMoment: [ Abs: 47.12983  Tot: -0.00000 ]
	SubspaceRotationAdjust: set factor to 0.511
ElecMinimize: Iter:   2  F: -2024.486127123729148  |grad|_K:  1.679e-05  alpha:  2.233e-01  linmin:  1.260e-03  t[s]: 172384.42
	FillingsUpdate:  mu: +0.123820549  nElectrons: 349.000000  magneticMoment: [ Abs: 47.22221  Tot: -0.00000 ]
	SubspaceRotationAdjust: set factor to 0.465
ElecMinimize: Iter:   3  F: -2024.497133722520402  |grad|_K:  1.049e-05  alpha:  2.276e-01  linmin: -1.119e-03  t[s]: 172458.20
	FillingsUpdate:  mu: +0.131723063  nElectrons: 349.000000  magneticMoment: [ Abs: 47.14109  Tot: +0.00000 ]
	SubspaceRotationAdjust: set factor to 0.369
ElecMinimize: Iter:   4  F: -2024.503015607127281  |grad|_K:  8.090e-06  alpha:  3.057e-01  linmin:  2.391e-03  t[s]: 172533.95
	FillingsUpdate:  mu: +0.129316924  nElectrons: 349.000000  magneticMoment: [ Abs: 47.15191  Tot: -0.00000 ]
	SubspaceRotationAdjust: set factor to 0.405
ElecMinimize: Iter:   5  F: -2024.506067092034982  |grad|_K:  4.782e-06  alpha:  3.130e-01  linmin: -4.525e-04  t[s]: 172608.14
	FillingsUpdate:  mu: +0.129027584  nElectrons: 349.000000  magneticMoment: [ Abs: 47.14931  Tot: -0.00000 ]
	SubspaceRotationAdjust: set factor to 0.466
ElecMinimize: Iter:   6  F: -2024.507344206681182  |grad|_K:  3.044e-06  alpha:  3.102e-01  linmin:  1.094e-05  t[s]: 172682.10
	FillingsUpdate:  mu: +0.128831044  nElectrons: 349.000000  magneticMoment: [ Abs: 47.12836  Tot: -0.00000 ]
	SubspaceRotationAdjust: set factor to 0.41
ElecMinimize: Iter:   7  F: -2024.507830033696791  |grad|_K:  2.281e-06  alpha:  3.008e-01  linmin:  4.133e-04  t[s]: 172756.27
	FillingsUpdate:  mu: +0.129242381  nElectrons: 349.000000  magneticMoment: [ Abs: 47.13628  Tot: +0.00000 ]
	SubspaceRotationAdjust: set factor to 0.324
ElecMinimize: Iter:   8  F: -2024.508051781710492  |grad|_K:  1.468e-06  alpha:  2.521e-01  linmin: -8.408e-05  t[s]: 172830.50
	FillingsUpdate:  mu: +0.129056781  nElectrons: 349.000000  magneticMoment: [ Abs: 47.12609  Tot: -0.00000 ]
	SubspaceRotationAdjust: set factor to 0.384
ElecMinimize: Iter:   9  F: -2024.508154067777014  |grad|_K:  8.769e-07  alpha:  2.714e-01  linmin:  1.102e-04  t[s]: 172905.22
	FillingsUpdate:  mu: +0.128870423  nElectrons: 349.000000  magneticMoment: [ Abs: 47.11807  Tot: +0.00000 ]
	SubspaceRotationAdjust: set factor to 0.42
ElecMinimize: Iter:  10  F: -2024.508208585267539  |grad|_K:  7.276e-07  alpha:  4.117e-01  linmin:  1.312e-04  t[s]: 172981.67
	FillingsUpdate:  mu: +0.129214383  nElectrons: 349.000000  magneticMoment: [ Abs: 47.11942  Tot: +0.00000 ]
	SubspaceRotationAdjust: set factor to 0.348
ElecMinimize: Iter:  11  F: -2024.508231723058998  |grad|_K:  5.593e-07  alpha:  2.538e-01  linmin:  1.880e-06  t[s]: 173055.15
	FillingsUpdate:  mu: +0.129067576  nElectrons: 349.000000  magneticMoment: [ Abs: 47.11158  Tot: -0.00000 ]
	SubspaceRotationAdjust: set factor to 0.354
ElecMinimize: Iter:  12  F: -2024.508249488958654  |grad|_K:  4.360e-07  alpha:  3.275e-01  linmin:  1.379e-04  t[s]: 173128.65
	FillingsUpdate:  mu: +0.129024471  nElectrons: 349.000000  magneticMoment: [ Abs: 47.10640  Tot: +0.00000 ]
	SubspaceRotationAdjust: set factor to 0.425
ElecMinimize: Iter:  13  F: -2024.508262748015113  |grad|_K:  3.570e-07  alpha:  4.059e-01  linmin: -4.937e-06  t[s]: 173203.13
	FillingsUpdate:  mu: +0.129075126  nElectrons: 349.000000  magneticMoment: [ Abs: 47.10359  Tot: -0.00000 ]
	SubspaceRotationAdjust: set factor to 0.44
ElecMinimize: Iter:  14  F: -2024.508270182158867  |grad|_K:  3.127e-07  alpha:  3.349e-01  linmin:  8.625e-08  t[s]: 173276.72
	FillingsUpdate:  mu: +0.128915607  nElectrons: 349.000000  magneticMoment: [ Abs: 47.09711  Tot: -0.00000 ]
	SubspaceRotationAdjust: set factor to 0.374
ElecMinimize: Iter:  15  F: -2024.508275238906663  |grad|_K:  2.968e-07  alpha:  2.961e-01  linmin:  1.332e-04  t[s]: 173351.49
	FillingsUpdate:  mu: +0.129023521  nElectrons: 349.000000  magneticMoment: [ Abs: 47.09431  Tot: -0.00000 ]
	SubspaceRotationAdjust: set factor to 0.371
ElecMinimize: Iter:  16  F: -2024.508279730325739  |grad|_K:  2.345e-07  alpha:  2.955e-01  linmin: -4.762e-06  t[s]: 173425.49
	FillingsUpdate:  mu: +0.129010048  nElectrons: 349.000000  magneticMoment: [ Abs: 47.08936  Tot: -0.00000 ]
	SubspaceRotationAdjust: set factor to 0.439
ElecMinimize: Iter:  17  F: -2024.508283645055371  |grad|_K:  2.053e-07  alpha:  4.090e-01  linmin:  1.513e-05  t[s]: 173498.66
	FillingsUpdate:  mu: +0.128942122  nElectrons: 349.000000  magneticMoment: [ Abs: 47.08443  Tot: +0.00000 ]
	SubspaceRotationAdjust: set factor to 0.473
ElecMinimize: Iter:  18  F: -2024.508286484468044  |grad|_K:  2.022e-07  alpha:  3.874e-01  linmin:  2.307e-05  t[s]: 173572.42
	FillingsUpdate:  mu: +0.129002371  nElectrons: 349.000000  magneticMoment: [ Abs: 47.08233  Tot: -0.00000 ]
	SubspaceRotationAdjust: set factor to 0.414
ElecMinimize: Iter:  19  F: -2024.508288703891822  |grad|_K:  2.010e-07  alpha:  3.123e-01  linmin: -1.371e-06  t[s]: 173645.96
	FillingsUpdate:  mu: +0.128924809  nElectrons: 349.000000  magneticMoment: [ Abs: 47.07854  Tot: -0.00000 ]
	SubspaceRotationAdjust: set factor to 0.333
ElecMinimize: Iter:  20  F: -2024.508290262546097  |grad|_K:  1.568e-07  alpha:  2.207e-01  linmin:  9.359e-06  t[s]: 173719.57
	FillingsUpdate:  mu: +0.128939718  nElectrons: 349.000000  magneticMoment: [ Abs: 47.07587  Tot: +0.00000 ]
	SubspaceRotationAdjust: set factor to 0.398
ElecMinimize: Iter:  21  F: -2024.508291983702293  |grad|_K:  1.319e-07  alpha:  4.025e-01  linmin: -1.677e-08  t[s]: 173793.73
	FillingsUpdate:  mu: +0.128946553  nElectrons: 349.000000  magneticMoment: [ Abs: 47.07426  Tot: +0.00000 ]
	SubspaceRotationAdjust: set factor to 0.438
ElecMinimize: Iter:  22  F: -2024.508293116754203  |grad|_K:  1.195e-07  alpha:  3.741e-01  linmin:  8.749e-07  t[s]: 173867.79
	FillingsUpdate:  mu: +0.128891303  nElectrons: 349.000000  magneticMoment: [ Abs: 47.07245  Tot: -0.00000 ]
	SubspaceRotationAdjust: set factor to 0.399
ElecMinimize: Iter:  23  F: -2024.508293866622580  |grad|_K:  1.191e-07  alpha:  3.015e-01  linmin:  1.036e-05  t[s]: 173942.16
	FillingsUpdate:  mu: +0.128936236  nElectrons: 349.000000  magneticMoment: [ Abs: 47.07252  Tot: +0.00000 ]
	SubspaceRotationAdjust: set factor to 0.355
ElecMinimize: Iter:  24  F: -2024.508294592615357  |grad|_K:  1.119e-07  alpha:  2.942e-01  linmin: -1.958e-05  t[s]: 174016.84
	FillingsUpdate:  mu: +0.128911497  nElectrons: 349.000000  magneticMoment: [ Abs: 47.07148  Tot: +0.00000 ]
	SubspaceRotationAdjust: set factor to 0.403
ElecMinimize: Iter:  25  F: -2024.508295402731164  |grad|_K:  1.005e-07  alpha:  3.714e-01  linmin:  9.582e-06  t[s]: 174091.87
	FillingsUpdate:  mu: +0.128895762  nElectrons: 349.000000  magneticMoment: [ Abs: 47.07099  Tot: +0.00000 ]
	SubspaceRotationAdjust: set factor to 0.463
ElecMinimize: Iter:  26  F: -2024.508296171175971  |grad|_K:  1.014e-07  alpha:  4.376e-01  linmin:  1.721e-06  t[s]: 174166.00
	FillingsUpdate:  mu: +0.128934325  nElectrons: 349.000000  magneticMoment: [ Abs: 47.07184  Tot: +0.00000 ]
	SubspaceRotationAdjust: set factor to 0.424
ElecMinimize: Iter:  27  F: -2024.508296793103455  |grad|_K:  1.097e-07  alpha:  3.473e-01  linmin: -6.415e-06  t[s]: 174240.75
ElecMinimize: Converged (|Delta F|<1.000000e-06 for 5 iters).
Setting wave functions to eigenvectors of Hamiltonian
IonicMinimize: 	Wolfe criterion not satisfied: alpha: 0.443238  (E-E0)/|gdotd0|: -0.491842  gdotd/gdotd0: 1.21341 (taking cubic step)

-------- Electronic minimization -----------
	FillingsUpdate:  mu: +0.160835343  nElectrons: 349.000000  magneticMoment: [ Abs: 47.06102  Tot: +0.00000 ]
ElecMinimize: Iter:   0  F: -2021.825823595634574  |grad|_K:  2.618e-04  alpha:  1.000e+00
	FillingsUpdate:  mu: +0.167460337  nElectrons: 349.000000  magneticMoment: [ Abs: 47.26535  Tot: +0.00000 ]
	SubspaceRotationAdjust: set factor to 0.408
ElecMinimize: Iter:   1  F: -2023.960664590002580  |grad|_K:  1.171e-04  alpha:  2.662e-01  linmin:  2.906e-02  t[s]: 174393.36
	FillingsUpdate:  mu: +0.135286085  nElectrons: 349.000000  magneticMoment: [ Abs: 46.85730  Tot: -0.00000 ]
	SubspaceRotationAdjust: set factor to 0.308
ElecMinimize: Iter:   2  F: -2024.343224336755611  |grad|_K:  7.041e-05  alpha:  2.154e-01  linmin:  3.027e-03  t[s]: 174466.97
	FillingsUpdate:  mu: +0.112078346  nElectrons: 349.000000  magneticMoment: [ Abs: 47.10014  Tot: -0.00000 ]
	SubspaceRotationAdjust: set factor to 0.301
ElecMinimize: Iter:   3  F: -2024.413228953748785  |grad|_K:  2.945e-05  alpha:  9.971e-02  linmin: -4.004e-03  t[s]: 174540.84
	FillingsUpdate:  mu: +0.116605328  nElectrons: 349.000000  magneticMoment: [ Abs: 47.07299  Tot: -0.00000 ]
	SubspaceRotationAdjust: set factor to 0.434
ElecMinimize: Iter:   4  F: -2024.454630344708903  |grad|_K:  1.730e-05  alpha:  2.528e-01  linmin:  2.903e-04  t[s]: 174614.19
	FillingsUpdate:  mu: +0.131547390  nElectrons: 349.000000  magneticMoment: [ Abs: 46.95094  Tot: -0.00000 ]
	SubspaceRotationAdjust: set factor to 0.291
ElecMinimize: Iter:   5  F: -2024.471045329841900  |grad|_K:  2.569e-05  alpha:  3.558e-01  linmin:  4.956e-03  t[s]: 174687.80
	FillingsUpdate:  mu: +0.133866168  nElectrons: 349.000000  magneticMoment: [ Abs: 47.00335  Tot: +0.00000 ]
	SubspaceRotationAdjust: set factor to 0.417
ElecMinimize: Iter:   6  F: -2024.480724640818607  |grad|_K:  1.966e-05  alpha:  1.429e-01  linmin:  2.464e-04  t[s]: 174762.03
	FillingsUpdate:  mu: +0.124208267  nElectrons: 349.000000  magneticMoment: [ Abs: 47.04844  Tot: -0.00000 ]
	SubspaceRotationAdjust: set factor to 0.404
ElecMinimize: Iter:   7  F: -2024.495545892463042  |grad|_K:  1.293e-05  alpha:  2.188e-01  linmin: -8.291e-04  t[s]: 174837.26
	FillingsUpdate:  mu: +0.129613785  nElectrons: 349.000000  magneticMoment: [ Abs: 46.97722  Tot: +0.00000 ]
	SubspaceRotationAdjust: set factor to 0.381
ElecMinimize: Iter:   8  F: -2024.501812229988900  |grad|_K:  8.034e-06  alpha:  2.004e-01  linmin:  3.282e-04  t[s]: 174912.70
	FillingsUpdate:  mu: +0.130901559  nElectrons: 349.000000  magneticMoment: [ Abs: 46.95700  Tot: +0.00000 ]
	SubspaceRotationAdjust: set factor to 0.449
ElecMinimize: Iter:   9  F: -2024.505281374908009  |grad|_K:  7.210e-06  alpha:  3.186e-01  linmin:  2.153e-04  t[s]: 174987.42
	FillingsUpdate:  mu: +0.126048382  nElectrons: 349.000000  magneticMoment: [ Abs: 46.99244  Tot: +0.00000 ]
	SubspaceRotationAdjust: set factor to 0.342
ElecMinimize: Iter:  10  F: -2024.506841384605423  |grad|_K:  5.160e-06  alpha:  1.783e-01  linmin: -2.060e-05  t[s]: 175061.28
