/var/spool/slurmd/job44410/slurm_script: line 9: module: command not found
/var/spool/slurmd/job44410/slurm_script: line 10: module: command not found

*************** JDFTx 1.7.0  ***************

Start date and time: Mon May 19 00:33:41 2025
Executable /data2/jt577/jdftx_eat_withLibXC/build/jdftx with command-line: -i /data2/jt577/May_2025/Relax_Mag_litU/rel6+1_6/O/runs/calc_/run.in
Running on hosts (process indices):  node3218 (0-8)
Divided in process groups (process indices):  0 (0)  1 (1)  2 (2)  3 (3)  4 (4)  5 (5)  6 (6)  7 (7)  8 (8)
Resource initialization completed at t[s]:      0.00
Run totals: 9 processes, 36 threads, 0 GPUs


Input parsed successfully to the following command list (including defaults):

add-mix 
add-U 	Ni d 0.235196 \
	Co d 0.121273 \
	V d 0.113923 \
	Cr d 0.128623
basis kpoint-dependent
coords-type Lattice
core-overlap-check vector
coulomb-interaction Periodic
davidson-band-ratio 1.1
dump End IonicPositions Lattice Ecomponents
dump-name run.$VAR
elec-cutoff 30
elec-eigen-algo Davidson
elec-ex-corr gga-x-rpbe gga-c-pbe
elec-smearing Fermi 0.001
electronic-minimize  \
	dirUpdateScheme      FletcherReeves \
	linminMethod         DirUpdateRecommended \
	nIterations          1000 \
	history              15 \
	knormThreshold       0 \
	energyDiffThreshold  1e-06 \
	nEnergyDiff          5 \
	alphaTstart          1 \
	alphaTmin            1e-10 \
	updateTestStepSize   yes \
	alphaTreduceFactor   0.1 \
	alphaTincreaseFactor 3 \
	nAlphaAdjustMax      3 \
	wolfeEnergy          0.0001 \
	wolfeGradient        0.9 \
	fdTest               no
exchange-regularization WignerSeitzTruncated
fluid None
fluid-ex-corr (null) lda-PZ
fluid-gummel-loop 10 1.000000e-05
fluid-minimize  \
	dirUpdateScheme      PolakRibiere \
	linminMethod         DirUpdateRecommended \
	nIterations          100 \
	history              15 \
	knormThreshold       0 \
	energyDiffThreshold  0 \
	nEnergyDiff          2 \
	alphaTstart          1 \
	alphaTmin            1e-10 \
	updateTestStepSize   yes \
	alphaTreduceFactor   0.1 \
	alphaTincreaseFactor 3 \
	nAlphaAdjustMax      3 \
	wolfeEnergy          0.0001 \
	wolfeGradient        0.9 \
	fdTest               no
fluid-solvent H2O 55.338 ScalarEOS \
	epsBulk 78.4 \
	pMol 0.92466 \
	epsInf 1.77 \
	Pvap 1.06736e-10 \
	sigmaBulk 4.62e-05 \
	Rvdw 2.61727 \
	Res 1.42 \
	tauNuc 343133 \
	poleEl 15 7 1
forces-output-coords Positions
initial-magnetic-moments  \
	Ni 1 -1 1 1 -1 \
	Co -1 1 \
	V -1 -1 1 -1 1 -1 1 \
	Cr -1 1
initial-state run.$VAR
ion Ni  0.000000000000000   0.000000000000000   0.150000000000000 1
ion Ni  0.500000000000000   0.000000000000000   0.150000000000000 1
ion Ni  0.000000000000000   0.500000000000000   0.150000000000000 1
ion Ni  0.250000000000000   0.750000000000000   0.050000000000000 1
ion Ni -0.250000000000000   0.750000000000000   0.050000000000000 1
ion Co  0.500000000000000   0.500000000000000   0.150000000000000 1
ion Co  0.250000000000000   0.250000000000000   0.050000000000000 1
ion V -0.250000000000000   0.250000000000000   0.050000000000000 1
ion V  0.000000000000000   0.000000000000000  -0.050000000000000 0
ion V  0.500000000000000   0.000000000000000  -0.050000000000000 0
ion V  0.000000000000000   0.500000000000000  -0.050000000000000 0
ion V  0.500000000000000   0.500000000000000  -0.050000000000000 0
ion V  0.250000000000000   0.250000000000000  -0.150000000000000 0
ion V -0.250000000000000   0.750000000000000  -0.150000000000000 0
ion Cr  0.250000000000000   0.750000000000000  -0.150000000000000 0
ion Cr -0.250000000000000   0.250000000000000  -0.150000000000000 0
ion O  0.250000000000000   0.250000000000000   0.150000000000000 1
ion O  0.250000000000000   0.750000000000000   0.150000000000000 1
ion O -0.250000000000000   0.250000000000000   0.150000000000000 1
ion O -0.250000000000000   0.750000000000000   0.150000000000000 1
ion O  0.000000000000000   0.000000000000000   0.050000000000000 1
ion O  0.500000000000000   0.000000000000000   0.050000000000000 1
ion O  0.000000000000000   0.500000000000000   0.050000000000000 1
ion O  0.500000000000000   0.500000000000000   0.050000000000000 1
ion O  0.250000000000000   0.250000000000000  -0.050000000000000 0
ion O  0.250000000000000   0.750000000000000  -0.050000000000000 0
ion O -0.250000000000000   0.250000000000000  -0.050000000000000 0
ion O -0.250000000000000   0.750000000000000  -0.050000000000000 0
ion O  0.000000000000000   0.000000000000000  -0.150000000000000 0
ion O  0.500000000000000   0.000000000000000  -0.150000000000000 0
ion O  0.000000000000000   0.500000000000000  -0.150000000000000 0
ion O  0.500000000000000   0.500000000000000  -0.150000000000000 0
ion O -0.000095572322686   0.000198307128402   0.224876729873325 1
ion-species SG15/$ID_ONCV_PBE.upf
ion-width 0
ionic-minimize  \
	dirUpdateScheme      L-BFGS \
	linminMethod         DirUpdateRecommended \
	nIterations          1000 \
	history              15 \
	knormThreshold       0.0001 \
	energyDiffThreshold  0.0001 \
	nEnergyDiff          3 \
	alphaTstart          1 \
	alphaTmin            1e-10 \
	updateTestStepSize   yes \
	alphaTreduceFactor   0.1 \
	alphaTincreaseFactor 3 \
	nAlphaAdjustMax      3 \
	wolfeEnergy          0.0001 \
	wolfeGradient        0.9 \
	fdTest               no
kpoint   0.500000000000   0.500000000000   0.500000000000  1.00000000000000
kpoint-folding 3 3 1 
latt-move-scale 1 1 1
latt-scale 1 1 1 
lattice  \
	   8.140000000000001    8.140000000000001    0.000000000000000  \
	   8.140000000000001   -8.140000000000001    0.000000000000000  \
	   0.000000000000000    0.000000000000000   40.700000000000003 
lattice-minimize  \
	dirUpdateScheme      L-BFGS \
	linminMethod         DirUpdateRecommended \
	nIterations          0 \
	history              15 \
	knormThreshold       0 \
	energyDiffThreshold  1e-06 \
	nEnergyDiff          2 \
	alphaTstart          1 \
	alphaTmin            1e-10 \
	updateTestStepSize   yes \
	alphaTreduceFactor   0.1 \
	alphaTincreaseFactor 3 \
	nAlphaAdjustMax      3 \
	wolfeEnergy          0.0001 \
	wolfeGradient        0.9 \
	fdTest               no
lcao-params -1 1e-06 0.001
pcm-variant GLSSA13
spintype z-spin
subspace-rotation-factor 1 yes
symmetries none
symmetry-threshold 0.0001


Applied RMS atom displacement 0 bohrs to make symmetries exact.

---------- Initializing the Grid ----------
R = 
[         8.14         8.14            0  ]
[         8.14        -8.14            0  ]
[            0            0         40.7  ]
unit cell volume = 5393.53
G =
[   0.385945   0.385945         -0  ]
[   0.385945  -0.385945         -0  ]
[         -0         -0   0.154378  ]
Minimum fftbox size, Smin = [  60  60  204  ]
Chosen fftbox size, S = [  60  60  210  ]

---------- Exchange Correlation functional ----------
Initialized LibXC exchange functional 'Hammer, Hansen, and Norskov'
Initialized LibXC correlation functional 'Perdew, Burke & Ernzerhof'

---------- Setting up pseudopotentials ----------
Width of ionic core gaussian charges (only for fluid interactions / plotting) set to 0

Reading pseudopotential file '/data2/jt577/jdftx_eat_withLibXC/build/pseudopotentials/SG15/Ni_ONCV_PBE.upf':
  'Ni' pseudopotential, 'PBE' functional
  Generated using ONCVPSP code by D. R. Hamann
  Author: Martin Schlipf and Francois Gygi  Date: 150915.
  18 valence electrons, 4 orbitals, 6 projectors, 1292 radial grid points, with lMax = 2
  Transforming local potential to a uniform radial grid of dG=0.02 with 1419 points.
  Transforming nonlocal projectors to a uniform radial grid of dG=0.02 with 528 points.
    3S    l: 0   occupation:  2.0   eigenvalue: -4.081355
    3P    l: 1   occupation:  6.0   eigenvalue: -2.623460
    4S    l: 0   occupation:  2.0   eigenvalue: -0.207378
    3D    l: 2   occupation:  8.0   eigenvalue: -0.326118
  Transforming atomic orbitals to a uniform radial grid of dG=0.02 with 528 points.
  WARNING: large normalization error in atomic orbital 1s (integral: 0.000006).
  Core radius for overlap checks: 1.99 bohrs.
  Reading pulay file /data2/jt577/jdftx_eat_withLibXC/build/pseudopotentials/SG15/Ni_ONCV_PBE.pulay ... using dE_dnG = -7.250568e-04 computed for Ecut = 30.

Reading pseudopotential file '/data2/jt577/jdftx_eat_withLibXC/build/pseudopotentials/SG15/Co_ONCV_PBE.upf':
  'Co' pseudopotential, 'PBE' functional
  Generated using ONCVPSP code by D. R. Hamann
  Author: Martin Schlipf and Francois Gygi  Date: 150915.
  17 valence electrons, 4 orbitals, 6 projectors, 1388 radial grid points, with lMax = 2
  Transforming local potential to a uniform radial grid of dG=0.02 with 1419 points.
  Transforming nonlocal projectors to a uniform radial grid of dG=0.02 with 528 points.
    3S    l: 0   occupation:  2.0   eigenvalue: -3.763303
    3P    l: 1   occupation:  6.0   eigenvalue: -2.412101
    4S    l: 0   occupation:  2.0   eigenvalue: -0.201022
    3D    l: 2   occupation:  7.0   eigenvalue: -0.301498
  Transforming atomic orbitals to a uniform radial grid of dG=0.02 with 528 points.
  Core radius for overlap checks: 1.94 bohrs.
  Reading pulay file /data2/jt577/jdftx_eat_withLibXC/build/pseudopotentials/SG15/Co_ONCV_PBE.pulay ... using dE_dnG = -9.787391e-05 computed for Ecut = 30.

Reading pseudopotential file '/data2/jt577/jdftx_eat_withLibXC/build/pseudopotentials/SG15/V_ONCV_PBE.upf':
  'V' pseudopotential, 'PBE' functional
  Generated using ONCVPSP code by D. R. Hamann
  Author: Martin Schlipf and Francois Gygi  Date: 150915.
  13 valence electrons, 4 orbitals, 6 projectors, 1536 radial grid points, with lMax = 2
  Transforming local potential to a uniform radial grid of dG=0.02 with 1419 points.
  Transforming nonlocal projectors to a uniform radial grid of dG=0.02 with 528 points.
    3S    l: 0   occupation:  2.0   eigenvalue: -2.581105
    3P    l: 1   occupation:  6.0   eigenvalue: -1.618486
    4S    l: 0   occupation:  2.0   eigenvalue: -0.172804
    3D    l: 2   occupation:  3.0   eigenvalue: -0.189795
  Transforming atomic orbitals to a uniform radial grid of dG=0.02 with 528 points.
  Core radius for overlap checks: 1.80 bohrs.
  Reading pulay file /data2/jt577/jdftx_eat_withLibXC/build/pseudopotentials/SG15/V_ONCV_PBE.pulay ... using dE_dnG = -1.698632e-04 computed for Ecut = 30.

Reading pseudopotential file '/data2/jt577/jdftx_eat_withLibXC/build/pseudopotentials/SG15/Cr_ONCV_PBE.upf':
  'Cr' pseudopotential, 'PBE' functional
  Generated using ONCVPSP code by D. R. Hamann
  Author: Martin Schlipf and Francois Gygi  Date: 150915.
  14 valence electrons, 4 orbitals, 6 projectors, 1160 radial grid points, with lMax = 2
  Transforming local potential to a uniform radial grid of dG=0.02 with 1419 points.
  Transforming nonlocal projectors to a uniform radial grid of dG=0.02 with 528 points.
    3S    l: 0   occupation:  2.0   eigenvalue: -2.865131
    3P    l: 1   occupation:  6.0   eigenvalue: -1.810600
    4S    l: 0   occupation:  2.0   eigenvalue: -0.180525
    3D    l: 2   occupation:  4.0   eigenvalue: -0.220312
  Transforming atomic orbitals to a uniform radial grid of dG=0.02 with 528 points.
  WARNING: large normalization error in atomic orbital 1s (integral: 0.000001).
  Core radius for overlap checks: 2.10 bohrs.
  Reading pulay file /data2/jt577/jdftx_eat_withLibXC/build/pseudopotentials/SG15/Cr_ONCV_PBE.pulay ... using dE_dnG = -9.817895e-06 computed for Ecut = 30.

Reading pseudopotential file '/data2/jt577/jdftx_eat_withLibXC/build/pseudopotentials/SG15/O_ONCV_PBE.upf':
  'O' pseudopotential, 'PBE' functional
  Generated using ONCVPSP code by D. R. Hamann
  Author: Martin Schlipf and Francois Gygi  Date: 150915.
  6 valence electrons, 2 orbitals, 4 projectors, 936 radial grid points, with lMax = 1
  Transforming local potential to a uniform radial grid of dG=0.02 with 1419 points.
  Transforming nonlocal projectors to a uniform radial grid of dG=0.02 with 528 points.
    2S    l: 0   occupation:  2.0   eigenvalue: -0.880572
    2P    l: 1   occupation:  4.0   eigenvalue: -0.331869
  Transforming atomic orbitals to a uniform radial grid of dG=0.02 with 528 points.
  Core radius for overlap checks: 1.29 bohrs.
  Reading pulay file /data2/jt577/jdftx_eat_withLibXC/build/pseudopotentials/SG15/O_ONCV_PBE.pulay ... using dE_dnG = -8.209514e-03 computed for Ecut = 30.

Initialized 5 species with 33 total atoms.

Folded 1 k-points by 3x3x1 to 9 k-points.

---------- Setting up k-points, bands, fillings ----------
No reducable k-points. 
Computing the number of bands and number of electrons
Calculating initial fillings.
nElectrons: 345.000000   nBands: 228   nStates: 18

----- Setting up reduced wavefunction bases (one per k-point) -----
average nbasis = 42312.000 , ideal nbasis = 42330.081

---------- Setting up ewald sum ----------
Optimum gaussian width for ewald sums = 3.906449 bohr.
Real space sum over 605 unit cells with max indices [  5  5  2  ]
Reciprocal space sum over 5915 terms with max indices [  6  6  17  ]

---------- Allocating electronic variables ----------
Initializing wave functions:  linear combination of atomic orbitals
Ni (M=1) pseudo-atom majority spin occupations:   s ( 1 0.5 )  p ( 3 )  d ( 5 )
Ni (M=1) pseudo-atom minority spin occupations:   s ( 1 0 )  p ( 3 )  d ( 4.5 )
Co (M=1) pseudo-atom majority spin occupations:   s ( 1 0 )  p ( 3 )  d ( 5 )
Co (M=1) pseudo-atom minority spin occupations:   s ( 1 0 )  p ( 3 )  d ( 4 )
V (M=1) pseudo-atom majority spin occupations:   s ( 1 0 )  p ( 3 )  d ( 3 )
V (M=1) pseudo-atom minority spin occupations:   s ( 1 0 )  p ( 3 )  d ( 2 )
Cr (M=1) pseudo-atom majority spin occupations:   s ( 1 0 )  p ( 3 )  d ( 3.5 )
Cr (M=1) pseudo-atom minority spin occupations:   s ( 1 0 )  p ( 3 )  d ( 2.5 )
O pseudo-atom occupations:   s ( 2 )  p ( 4 )
	FillingsUpdate:  mu: -0.278996435  nElectrons: 345.000000  magneticMoment: [ Abs: 0.45014  Tot: +0.00000 ]
LCAOMinimize: Iter:   0  F: -1833.9647967778703332  |grad|_K:  1.302e-02  alpha:  1.000e+00
LCAOMinimize: 	Step increased F by 1.588529e+01, reducing alpha to 1.402683e-02.
	FillingsUpdate:  mu: -0.289131879  nElectrons: 345.000000  magneticMoment: [ Abs: 0.41386  Tot: -0.00000 ]
LCAOMinimize: Iter:   1  F: -1836.0542516041537056  |grad|_K:  1.175e-02  alpha:  1.403e-02  linmin: -4.663e-02  cgtest:  1.025e+00  t[s]:    110.12
LCAOMinimize: Encountered beta<0, resetting CG.
LCAOMinimize: 	Predicted alpha/alphaT>3.000000, increasing alphaT to 4.208049e-02.
LCAOMinimize: 	Wrong curvature in test step, increasing alphaT to 1.262415e-01.
	FillingsUpdate:  mu: -0.304625525  nElectrons: 345.000000  magneticMoment: [ Abs: 1.79148  Tot: -0.00000 ]
LCAOMinimize: Iter:   2  F: -1850.3098360486453657  |grad|_K:  1.586e-02  alpha: -1.317e-02  linmin: -9.510e-02  cgtest:  4.134e-01  t[s]:    144.65
LCAOMinimize: 	Step increased F by 2.913827e+02, reducing alpha to 3.312573e-02.
	FillingsUpdate:  mu: +0.245905730  nElectrons: 345.000000  magneticMoment: [ Abs: 2.92088  Tot: +0.00000 ]
LCAOMinimize: Iter:   3  F: -1860.8359054656389162  |grad|_K:  1.403e-02  alpha:  3.313e-02  linmin: -4.244e-02  cgtest: -7.566e-01  t[s]:    195.01
LCAOMinimize: 	Step increased F by 1.251273e+01, reducing alpha to 3.729049e-04.
	FillingsUpdate:  mu: +0.320711913  nElectrons: 345.000000  magneticMoment: [ Abs: 3.20854  Tot: -0.00000 ]
LCAOMinimize: Iter:   4  F: -1861.0482846244040047  |grad|_K:  1.367e-02  alpha:  3.729e-04  linmin: -2.124e-02  cgtest:  9.465e-01  t[s]:    244.17
LCAOMinimize: 	Wrong curvature in test step, increasing alphaT to 1.118715e-03.
	FillingsUpdate:  mu: +0.320248705  nElectrons: 345.000000  magneticMoment: [ Abs: 3.21092  Tot: +0.00000 ]
LCAOMinimize: Iter:   5  F: -1861.1183140914861269  |grad|_K:  1.373e-02  alpha: -4.148e-02  linmin: -4.269e-02  cgtest:  9.932e-01  t[s]:    270.45
	FillingsUpdate:  mu: -0.051189438  nElectrons: 345.000000  magneticMoment: [ Abs: 3.67113  Tot: +0.00000 ]
LCAOMinimize: Iter:   6  F: -1868.6423249557230974  |grad|_K:  3.090e-02  alpha:  7.087e-02  linmin:  1.823e-02  cgtest: -2.107e-01  t[s]:    299.39
LCAOMinimize: 	Bad step direction: g.d > 0.
LCAOMinimize: 	Undoing step.
LCAOMinimize: 	Step failed: resetting search direction.
	FillingsUpdate:  mu: -0.051189438  nElectrons: 345.000000  magneticMoment: [ Abs: 3.67113  Tot: +0.00000 ]
LCAOMinimize: Iter:   7  F: -1868.6423249557249164  |grad|_K:  3.090e-02  alpha:  0.000e+00
	FillingsUpdate:  mu: +0.445043181  nElectrons: 345.000000  magneticMoment: [ Abs: 5.94591  Tot: -0.00000 ]
LCAOMinimize: Iter:   8  F: -1877.1810311672372791  |grad|_K:  2.744e-02  alpha:  3.146e-02  linmin:  7.264e-02  cgtest: -4.629e-01  t[s]:    348.60
LCAOMinimize: 	Bad step direction: g.d > 0.
LCAOMinimize: 	Undoing step.
LCAOMinimize: 	Step failed: resetting search direction.
	FillingsUpdate:  mu: +0.445043181  nElectrons: 345.000000  magneticMoment: [ Abs: 5.94591  Tot: -0.00000 ]
LCAOMinimize: Iter:   9  F: -1877.1810311672372791  |grad|_K:  2.744e-02  alpha:  0.000e+00
	FillingsUpdate:  mu: +0.192541781  nElectrons: 345.000000  magneticMoment: [ Abs: 5.28366  Tot: +0.00000 ]
LCAOMinimize: Iter:  10  F: -1882.1473313079902709  |grad|_K:  1.750e-02  alpha:  1.869e-02  linmin:  3.707e-02  cgtest: -2.210e-01  t[s]:    398.08
LCAOMinimize: 	Predicted alpha/alphaT>3.000000, increasing alphaT to 5.607932e-02.
	FillingsUpdate:  mu: +0.195120736  nElectrons: 345.000000  magneticMoment: [ Abs: 7.18694  Tot: +0.00000 ]
LCAOMinimize: Iter:  11  F: -1885.9669194235482337  |grad|_K:  1.265e-02  alpha:  2.264e-02  linmin: -3.966e-02  cgtest:  5.134e-01  t[s]:    435.06
	FillingsUpdate:  mu: +0.154935129  nElectrons: 345.000000  magneticMoment: [ Abs: 8.84302  Tot: -0.00000 ]
LCAOMinimize: Iter:  12  F: -1887.9948181350760024  |grad|_K:  7.107e-03  alpha:  2.403e-02  linmin: -1.696e-02  cgtest: -2.416e-02  t[s]:    464.71
LCAOMinimize: 	Predicted alpha/alphaT>3.000000, increasing alphaT to 7.208232e-02.
LCAOMinimize: 	Step increased F by 2.643978e+01, reducing alpha to 1.965351e-02.
	FillingsUpdate:  mu: +0.172963343  nElectrons: 345.000000  magneticMoment: [ Abs: 8.99190  Tot: -0.00000 ]
LCAOMinimize: Iter:  13  F: -1888.9238495405202229  |grad|_K:  6.520e-03  alpha:  1.965e-02  linmin: -7.965e-02  cgtest:  7.727e-01  t[s]:    523.32
LCAOMinimize: 	Predicted alpha/alphaT>3.000000, increasing alphaT to 5.896054e-02.
LCAOMinimize: 	Predicted alpha/alphaT>3.000000, increasing alphaT to 1.768816e-01.
	FillingsUpdate:  mu: +0.140233180  nElectrons: 345.000000  magneticMoment: [ Abs: 9.19117  Tot: -0.00000 ]
LCAOMinimize: Iter:  14  F: -1889.9729079359342450  |grad|_K:  5.651e-03  alpha:  2.447e-02  linmin: -1.274e-01  cgtest:  7.209e-01  t[s]:    569.02
LCAOMinimize: 	Wrong curvature in test step, increasing alphaT to 7.339731e-02.
	FillingsUpdate:  mu: +0.112533369  nElectrons: 345.000000  magneticMoment: [ Abs: 9.45947  Tot: +0.00000 ]
LCAOMinimize: Iter:  15  F: -1890.8960202626542468  |grad|_K:  5.780e-03  alpha: -1.627e-01  linmin: -1.400e-01  cgtest:  8.203e-01  t[s]:    595.81
LCAOMinimize: 	Step increased F by 1.931849e+01, reducing alpha to 1.241943e-02.
	FillingsUpdate:  mu: +0.094490648  nElectrons: 345.000000  magneticMoment: [ Abs: 9.62437  Tot: -0.00000 ]
LCAOMinimize: Iter:  16  F: -1891.4200029926132629  |grad|_K:  5.778e-03  alpha:  1.242e-02  linmin: -1.515e-01  cgtest:  8.882e-01  t[s]:    646.41
LCAOMinimize: 	Wrong curvature in test step, increasing alphaT to 3.725829e-02.
	FillingsUpdate:  mu: +0.083707595  nElectrons: 345.000000  magneticMoment: [ Abs: 9.72110  Tot: -0.00000 ]
LCAOMinimize: Iter:  17  F: -1891.8985598622177804  |grad|_K:  5.753e-03  alpha: -1.101e-01  linmin: -1.455e-01  cgtest:  8.967e-01  t[s]:    673.20
LCAOMinimize: 	Step increased F by 1.280724e+01, reducing alpha to 1.332854e-02.
	FillingsUpdate:  mu: +0.067840410  nElectrons: 345.000000  magneticMoment: [ Abs: 9.80065  Tot: +0.00000 ]
LCAOMinimize: Iter:  18  F: -1892.3817792829006521  |grad|_K:  5.472e-03  alpha:  1.333e-02  linmin: -1.556e-01  cgtest:  9.064e-01  t[s]:    724.11
LCAOMinimize: 	Wrong curvature in test step, increasing alphaT to 3.998561e-02.
	FillingsUpdate:  mu: +0.053544334  nElectrons: 345.000000  magneticMoment: [ Abs: 9.89536  Tot: +0.00000 ]
LCAOMinimize: Iter:  19  F: -1892.7845686961609317  |grad|_K:  5.096e-03  alpha: -5.172e-01  linmin: -1.479e-01  cgtest:  9.057e-01  t[s]:    751.60
LCAOMinimize: 	Step increased F by 1.320521e+00, reducing alpha to 1.169528e-02.
	FillingsUpdate:  mu: +0.046586858  nElectrons: 345.000000  magneticMoment: [ Abs: 10.01688  Tot: -0.00000 ]
LCAOMinimize: Iter:  20  F: -1893.0816891073359329  |grad|_K:  4.727e-03  alpha:  1.170e-02  linmin: -1.311e-01  cgtest:  9.158e-01  t[s]:    802.00
LCAOMinimize: 	Predicted alpha/alphaT>3.000000, increasing alphaT to 3.508585e-02.
LCAOMinimize: 	Predicted alpha/alphaT>3.000000, increasing alphaT to 1.052576e-01.
	FillingsUpdate:  mu: +0.080954997  nElectrons: 345.000000  magneticMoment: [ Abs: 11.05482  Tot: +0.00000 ]
LCAOMinimize: Iter:  21  F: -1893.8353985648709568  |grad|_K:  3.642e-03  alpha:  5.310e-02  linmin: -3.515e-03  cgtest:  1.581e-01  t[s]:    847.04
	FillingsUpdate:  mu: +0.045930513  nElectrons: 345.000000  magneticMoment: [ Abs: 11.32468  Tot: -0.00000 ]
LCAOMinimize: Iter:  22  F: -1893.9598460636188975  |grad|_K:  3.483e-03  alpha:  2.000e-02  linmin: -1.310e-03  cgtest: -1.472e-01  t[s]:    876.08
	FillingsUpdate:  mu: +0.105362851  nElectrons: 345.000000  magneticMoment: [ Abs: 12.92771  Tot: +0.00000 ]
LCAOMinimize: Iter:  23  F: -1894.1450424774750445  |grad|_K:  3.283e-03  alpha:  3.524e-02  linmin:  6.889e-03  cgtest:  6.110e-02  t[s]:    905.44
	FillingsUpdate:  mu: +0.070580745  nElectrons: 345.000000  magneticMoment: [ Abs: 13.75408  Tot: +0.00000 ]
LCAOMinimize: Iter:  24  F: -1894.2704802468801972  |grad|_K:  2.732e-03  alpha:  2.874e-02  linmin:  8.523e-04  cgtest:  6.126e-01  t[s]:    934.34
	FillingsUpdate:  mu: +0.051348548  nElectrons: 345.000000  magneticMoment: [ Abs: 13.68312  Tot: -0.00000 ]
LCAOMinimize: Iter:  25  F: -1894.3271582144416243  |grad|_K:  1.977e-03  alpha:  1.630e-02  linmin:  1.465e-04  cgtest: -1.514e-02  t[s]:    963.39
	FillingsUpdate:  mu: +0.038846730  nElectrons: 345.000000  magneticMoment: [ Abs: 14.13191  Tot: +0.00000 ]
LCAOMinimize: Iter:  26  F: -1894.3838075067599220  |grad|_K:  1.337e-03  alpha:  2.959e-02  linmin: -4.842e-03  cgtest:  1.574e-01  t[s]:    993.53
	FillingsUpdate:  mu: +0.058482080  nElectrons: 345.000000  magneticMoment: [ Abs: 15.26761  Tot: +0.00000 ]
LCAOMinimize: Iter:  27  F: -1894.4394535195551725  |grad|_K:  1.271e-03  alpha:  5.885e-02  linmin: -4.160e-03  cgtest:  5.139e-02  t[s]:   1023.12
	FillingsUpdate:  mu: +0.038946640  nElectrons: 345.000000  magneticMoment: [ Abs: 17.16473  Tot: +0.00000 ]
LCAOMinimize: Iter:  28  F: -1894.5200628355096342  |grad|_K:  8.258e-04  alpha:  8.718e-02  linmin: -1.234e-02  cgtest:  5.395e-01  t[s]:   1052.36
	FillingsUpdate:  mu: +0.062380778  nElectrons: 345.000000  magneticMoment: [ Abs: 18.04512  Tot: -0.00000 ]
LCAOMinimize: Iter:  29  F: -1894.5542297512156438  |grad|_K:  1.226e-03  alpha:  1.019e-01  linmin:  1.961e-04  cgtest:  3.505e-02  t[s]:   1081.44
	FillingsUpdate:  mu: +0.068729466  nElectrons: 345.000000  magneticMoment: [ Abs: 19.05544  Tot: -0.00000 ]
LCAOMinimize: Iter:  30  F: -1894.5753020183244644  |grad|_K:  1.429e-03  alpha:  4.024e-02  linmin:  2.533e-03  cgtest: -2.651e-01  t[s]:   1110.87
LCAOMinimize: None of the convergence criteria satisfied after 30 iterations.


---- Citations for features of the code used in this run ----

   Software package:
      R. Sundararaman, K. Letchworth-Weaver, K.A. Schwarz, D. Gunceler, Y. Ozhabes and T.A. Arias, 'JDFTx: software for joint density-functional theory', SoftwareX 6, 278 (2017)

   Simplified rotationally-invariant DFT+U:
      S. L. Dudarev et al., Phys. Rev. B 57, 1505 (1998)

   LibXC library of exchange-correlation functions:
      M. A. L. Marques, M. J. T. Oliveira and T. Burnus, Comput. Phys. Commun. 183, 2272 (2012)

   Hammer, Hansen, and Norskov exchange functional:
      B. Hammer, L. B. Hansen, and J. K. Nørskov, Phys. Rev. B 59, 7413 (1999)

   Perdew, Burke & Ernzerhof correlation functional:
      J. P. Perdew, K. Burke, and M. Ernzerhof, Phys. Rev. Lett. 77, 3865 (1996)

   Pseudopotentials:
      M Schlipf and F Gygi, Comput. Phys. Commun. 196, 36 (2015)

   Total energy minimization with Auxiliary Hamiltonian:
      C. Freysoldt, S. Boeck, and J. Neugebauer, Phys. Rev. B 79, 241103(R) (2009)

This list may not be complete. Please suggest additional citations or
report any other bugs at https://github.com/shankar1729/jdftx/issues

Initialization completed successfully at t[s]:   1122.09


-------- Electronic minimization -----------
	FillingsUpdate:  mu: +0.068729538  nElectrons: 345.000000  magneticMoment: [ Abs: 19.05544  Tot: -0.00000 ]
ElecMinimize: Iter:   0  F: -1894.575302018325601  |grad|_K:  9.590e-04  alpha:  1.000e+00
	FillingsUpdate:  mu: +1.015335091  nElectrons: 345.000000  magneticMoment: [ Abs: 15.17871  Tot: +0.00000 ]
	SubspaceRotationAdjust: set factor to 0.984
ElecMinimize: Iter:   1  F: -1932.304150161748112  |grad|_K:  1.463e-03  alpha:  4.572e-01  linmin:  1.017e-02  t[s]:   1221.41
ElecMinimize: 	Step increased F by 1.485020e+00, reducing alpha to 3.124953e-03.
	FillingsUpdate:  mu: +0.638403143  nElectrons: 345.000000  magneticMoment: [ Abs: 15.93575  Tot: -0.00000 ]
	SubspaceRotationAdjust: set factor to 0.604
ElecMinimize: Iter:   2  F: -1936.574008060747701  |grad|_K:  1.672e-03  alpha:  3.125e-03  linmin: -1.656e-02  t[s]:   1333.14
	FillingsUpdate:  mu: +0.229499147  nElectrons: 345.000000  magneticMoment: [ Abs: 19.16452  Tot: -0.00000 ]
	SubspaceRotationAdjust: set factor to 1.24
ElecMinimize: Iter:   3  F: -1941.496559417288154  |grad|_K:  8.021e-04  alpha:  3.837e-03  linmin: -6.070e-03  t[s]:   1401.19
	FillingsUpdate:  mu: +0.227482443  nElectrons: 345.000000  magneticMoment: [ Abs: 20.64135  Tot: +0.00000 ]
	SubspaceRotationAdjust: set factor to 1.29
ElecMinimize: Iter:   4  F: -1943.379703567775778  |grad|_K:  8.420e-04  alpha:  7.837e-03  linmin: -3.083e-03  t[s]:   1470.07
ElecMinimize: 	Predicted alpha/alphaT>3.000000, increasing alphaT to 2.351167e-02.
	FillingsUpdate:  mu: +1.004639349  nElectrons: 345.000000  magneticMoment: [ Abs: 22.96974  Tot: +0.00000 ]
	SubspaceRotationAdjust: set factor to 0.72
ElecMinimize: Iter:   5  F: -1949.242615070634429  |grad|_K:  1.738e-03  alpha:  2.794e-02  linmin: -9.235e-04  t[s]:   1557.83
	FillingsUpdate:  mu: +0.925022271  nElectrons: 345.000000  magneticMoment: [ Abs: 24.02449  Tot: -0.00000 ]
	SubspaceRotationAdjust: set factor to 0.408
ElecMinimize: Iter:   6  F: -1956.355899176993944  |grad|_K:  1.360e-03  alpha:  5.432e-03  linmin: -4.092e-03  t[s]:   1626.60
	FillingsUpdate:  mu: +0.814976888  nElectrons: 345.000000  magneticMoment: [ Abs: 25.08062  Tot: +0.00000 ]
	SubspaceRotationAdjust: set factor to 0.281
ElecMinimize: Iter:   7  F: -1959.956177869149087  |grad|_K:  8.132e-04  alpha:  5.194e-03  linmin: -3.818e-04  t[s]:   1694.55
	FillingsUpdate:  mu: +0.842249852  nElectrons: 345.000000  magneticMoment: [ Abs: 25.33470  Tot: -0.00000 ]
	SubspaceRotationAdjust: set factor to 0.211
ElecMinimize: Iter:   8  F: -1961.220071321245086  |grad|_K:  6.993e-04  alpha:  9.696e-03  linmin: -1.954e-04  t[s]:   1762.36
	FillingsUpdate:  mu: +0.762883349  nElectrons: 345.000000  magneticMoment: [ Abs: 24.81188  Tot: -0.00000 ]
	SubspaceRotationAdjust: set factor to 0.156
ElecMinimize: Iter:   9  F: -1963.165214480963414  |grad|_K:  6.392e-04  alpha:  1.872e-02  linmin: -7.109e-04  t[s]:   1830.26
	FillingsUpdate:  mu: +0.611978076  nElectrons: 345.000000  magneticMoment: [ Abs: 24.16487  Tot: -0.00000 ]
	SubspaceRotationAdjust: set factor to 0.133
	SubspaceRotationAdjust: resetting CG because factor has changed by 0.132963
ElecMinimize: 	State modified externally: resetting search direction.
ElecMinimize: Iter:  10  F: -1965.692961282697752  |grad|_K:  5.024e-04  alpha:  2.801e-02
ElecMinimize: 	Predicted alpha/alphaT>3.000000, increasing alphaT to 8.401537e-02.
	FillingsUpdate:  mu: +0.574890223  nElectrons: 345.000000  magneticMoment: [ Abs: 25.09969  Tot: -0.00000 ]
	SubspaceRotationAdjust: set factor to 0.071
ElecMinimize: Iter:  11  F: -1970.439497569034529  |grad|_K:  5.672e-04  alpha:  2.011e-01  linmin:  4.489e-02  t[s]:   2015.21
	FillingsUpdate:  mu: +0.456645620  nElectrons: 345.000000  magneticMoment: [ Abs: 24.48918  Tot: -0.00000 ]
	SubspaceRotationAdjust: set factor to 0.0481
ElecMinimize: Iter:  12  F: -1970.688478959684517  |grad|_K:  4.248e-04  alpha:  4.507e-02  linmin:  1.488e-03  t[s]:   2083.17
	FillingsUpdate:  mu: +0.126053946  nElectrons: 345.000000  magneticMoment: [ Abs: 23.46543  Tot: +0.00000 ]
	SubspaceRotationAdjust: set factor to 0.095
ElecMinimize: Iter:  13  F: -1973.875825930686005  |grad|_K:  1.873e-04  alpha:  1.027e-01  linmin: -4.457e-03  t[s]:   2151.01
	FillingsUpdate:  mu: +0.201472545  nElectrons: 345.000000  magneticMoment: [ Abs: 23.22319  Tot: -0.00000 ]
	SubspaceRotationAdjust: set factor to 0.0699
ElecMinimize: Iter:  14  F: -1974.875732916832476  |grad|_K:  1.345e-04  alpha:  1.598e-01  linmin:  1.029e-02  t[s]:   2218.40
	FillingsUpdate:  mu: +0.180921097  nElectrons: 345.000000  magneticMoment: [ Abs: 23.77268  Tot: +0.00000 ]
	SubspaceRotationAdjust: set factor to 0.112
ElecMinimize: Iter:  15  F: -1975.226598069231613  |grad|_K:  9.219e-05  alpha:  1.609e-01  linmin:  3.248e-05  t[s]:   2286.39
	FillingsUpdate:  mu: +0.173567439  nElectrons: 345.000000  magneticMoment: [ Abs: 24.19086  Tot: -0.00000 ]
	SubspaceRotationAdjust: set factor to 0.102
ElecMinimize: Iter:  16  F: -1975.474722911701519  |grad|_K:  7.442e-05  alpha:  1.676e-01  linmin: -7.058e-04  t[s]:   2354.01
	FillingsUpdate:  mu: +0.203413614  nElectrons: 345.000000  magneticMoment: [ Abs: 24.40625  Tot: -0.00000 ]
	SubspaceRotationAdjust: set factor to 0.133
ElecMinimize: Iter:  17  F: -1975.664687823501708  |grad|_K:  5.156e-05  alpha:  1.818e-01  linmin: -8.522e-05  t[s]:   2421.72
	FillingsUpdate:  mu: +0.160238760  nElectrons: 345.000000  magneticMoment: [ Abs: 24.60650  Tot: +0.00000 ]
	SubspaceRotationAdjust: set factor to 0.099
ElecMinimize: Iter:  18  F: -1975.838203805201601  |grad|_K:  7.451e-05  alpha:  3.635e-01  linmin: -1.625e-04  t[s]:   2489.98
	FillingsUpdate:  mu: +0.129728790  nElectrons: 345.000000  magneticMoment: [ Abs: 25.13939  Tot: +0.00000 ]
	SubspaceRotationAdjust: set factor to 0.0866
ElecMinimize: Iter:  19  F: -1975.980931584697373  |grad|_K:  6.060e-05  alpha:  1.335e-01  linmin: -1.529e-04  t[s]:   2557.53
	FillingsUpdate:  mu: +0.120958355  nElectrons: 345.000000  magneticMoment: [ Abs: 26.28327  Tot: -0.00000 ]
	SubspaceRotationAdjust: set factor to 0.0742
ElecMinimize: Iter:  20  F: -1976.179297404932413  |grad|_K:  8.756e-05  alpha:  3.280e-01  linmin:  2.561e-04  t[s]:   2625.25
	FillingsUpdate:  mu: +0.131394690  nElectrons: 345.000000  magneticMoment: [ Abs: 26.67596  Tot: +0.00000 ]
	SubspaceRotationAdjust: set factor to 0.0779
ElecMinimize: Iter:  21  F: -1976.239322508820806  |grad|_K:  8.554e-05  alpha:  5.057e-02  linmin: -3.378e-04  t[s]:   2693.56
	FillingsUpdate:  mu: +0.132600436  nElectrons: 345.000000  magneticMoment: [ Abs: 27.91844  Tot: +0.00000 ]
	SubspaceRotationAdjust: set factor to 0.109
ElecMinimize: Iter:  22  F: -1976.502135799571761  |grad|_K:  7.173e-05  alpha:  1.461e-01  linmin: -1.739e-05  t[s]:   2761.39
	FillingsUpdate:  mu: +0.135696088  nElectrons: 345.000000  magneticMoment: [ Abs: 28.49990  Tot: -0.00000 ]
	SubspaceRotationAdjust: set factor to 0.127
ElecMinimize: Iter:  23  F: -1976.600189912709766  |grad|_K:  7.439e-05  alpha:  1.008e-01  linmin: -3.369e-05  t[s]:   2829.57
	FillingsUpdate:  mu: +0.130630423  nElectrons: 345.000000  magneticMoment: [ Abs: 28.92112  Tot: -0.00000 ]
	SubspaceRotationAdjust: set factor to 0.113
ElecMinimize: Iter:  24  F: -1976.675109494969774  |grad|_K:  7.991e-05  alpha:  7.148e-02  linmin: -1.192e-05  t[s]:   2898.65
	FillingsUpdate:  mu: +0.127567613  nElectrons: 345.000000  magneticMoment: [ Abs: 29.28876  Tot: +0.00000 ]
	SubspaceRotationAdjust: set factor to 0.0994
ElecMinimize: Iter:  25  F: -1976.738286338713579  |grad|_K:  8.155e-05  alpha:  5.588e-02  linmin: -6.166e-06  t[s]:   2967.10
	FillingsUpdate:  mu: +0.119077358  nElectrons: 345.000000  magneticMoment: [ Abs: 29.64626  Tot: +0.00000 ]
	SubspaceRotationAdjust: set factor to 0.0916
ElecMinimize: Iter:  26  F: -1976.798706149046893  |grad|_K:  8.080e-05  alpha:  5.122e-02  linmin:  3.592e-05  t[s]:   3034.70
	FillingsUpdate:  mu: +0.111207728  nElectrons: 345.000000  magneticMoment: [ Abs: 29.91041  Tot: +0.00000 ]
	SubspaceRotationAdjust: set factor to 0.0797
ElecMinimize: Iter:  27  F: -1976.841138121435051  |grad|_K:  8.122e-05  alpha:  3.727e-02  linmin:  3.000e-06  t[s]:   3102.55
	FillingsUpdate:  mu: +0.107303324  nElectrons: 345.000000  magneticMoment: [ Abs: 30.14289  Tot: -0.00000 ]
	SubspaceRotationAdjust: set factor to 0.0647
ElecMinimize: Iter:  28  F: -1976.877584009711882  |grad|_K:  7.944e-05  alpha:  3.123e-02  linmin:  2.891e-05  t[s]:   3170.71
	FillingsUpdate:  mu: +0.110236169  nElectrons: 345.000000  magneticMoment: [ Abs: 30.34896  Tot: -0.00000 ]
	SubspaceRotationAdjust: set factor to 0.0509
ElecMinimize: Iter:  29  F: -1976.907904887422774  |grad|_K:  7.473e-05  alpha:  2.845e-02  linmin:  1.418e-05  t[s]:   3238.45
	FillingsUpdate:  mu: +0.117311826  nElectrons: 345.000000  magneticMoment: [ Abs: 30.57985  Tot: +0.00000 ]
	SubspaceRotationAdjust: set factor to 0.0409
ElecMinimize: Iter:  30  F: -1976.938565068440766  |grad|_K:  6.828e-05  alpha:  3.196e-02  linmin: -4.752e-06  t[s]:   3306.09
	FillingsUpdate:  mu: +0.119408748  nElectrons: 345.000000  magneticMoment: [ Abs: 30.89723  Tot: -0.00000 ]
	SubspaceRotationAdjust: set factor to 0.0379
ElecMinimize: Iter:  31  F: -1976.973947381897915  |grad|_K:  6.125e-05  alpha:  4.262e-02  linmin: -3.864e-05  t[s]:   3374.01
	FillingsUpdate:  mu: +0.127173059  nElectrons: 345.000000  magneticMoment: [ Abs: 31.37035  Tot: -0.00000 ]
	SubspaceRotationAdjust: set factor to 0.0498
ElecMinimize: Iter:  32  F: -1977.012835084311291  |grad|_K:  5.733e-05  alpha:  5.807e-02  linmin:  6.023e-05  t[s]:   3441.31
	FillingsUpdate:  mu: +0.141731168  nElectrons: 345.000000  magneticMoment: [ Abs: 31.71864  Tot: +0.00000 ]
	SubspaceRotationAdjust: set factor to 0.0664
ElecMinimize: Iter:  33  F: -1977.034216435129110  |grad|_K:  5.841e-05  alpha:  3.775e-02  linmin: -6.942e-07  t[s]:   3508.99
	FillingsUpdate:  mu: +0.155251873  nElectrons: 345.000000  magneticMoment: [ Abs: 32.00246  Tot: +0.00000 ]
	SubspaceRotationAdjust: set factor to 0.0839
ElecMinimize: Iter:  34  F: -1977.051277486718163  |grad|_K:  6.002e-05  alpha:  2.745e-02  linmin:  1.151e-05  t[s]:   3576.96
	FillingsUpdate:  mu: +0.160426703  nElectrons: 345.000000  magneticMoment: [ Abs: 32.18412  Tot: +0.00000 ]
	SubspaceRotationAdjust: set factor to 0.0919
ElecMinimize: Iter:  35  F: -1977.062763058219844  |grad|_K:  6.234e-05  alpha:  1.714e-02  linmin: -1.832e-05  t[s]:   3644.61
	FillingsUpdate:  mu: +0.161123874  nElectrons: 345.000000  magneticMoment: [ Abs: 32.30748  Tot: -0.00000 ]
	SubspaceRotationAdjust: set factor to 0.0931
ElecMinimize: Iter:  36  F: -1977.071302649427480  |grad|_K:  6.353e-05  alpha:  1.167e-02  linmin:  1.079e-06  t[s]:   3712.44
	FillingsUpdate:  mu: +0.160313115  nElectrons: 345.000000  magneticMoment: [ Abs: 32.38693  Tot: +0.00000 ]
	SubspaceRotationAdjust: set factor to 0.0913
ElecMinimize: Iter:  37  F: -1977.077221223544484  |grad|_K:  6.353e-05  alpha:  8.056e-03  linmin:  3.739e-06  t[s]:   3780.02
	FillingsUpdate:  mu: +0.160422305  nElectrons: 345.000000  magneticMoment: [ Abs: 32.44138  Tot: -0.00000 ]
	SubspaceRotationAdjust: set factor to 0.0892
ElecMinimize: Iter:  38  F: -1977.081663271037769  |grad|_K:  6.254e-05  alpha:  6.180e-03  linmin:  1.688e-05  t[s]:   3847.92
	FillingsUpdate:  mu: +0.157513303  nElectrons: 345.000000  magneticMoment: [ Abs: 32.47930  Tot: -0.00000 ]
	SubspaceRotationAdjust: set factor to 0.0881
ElecMinimize: Iter:  39  F: -1977.084986298058766  |grad|_K:  6.099e-05  alpha:  4.861e-03  linmin:  1.732e-05  t[s]:   3915.47
	FillingsUpdate:  mu: +0.153035511  nElectrons: 345.000000  magneticMoment: [ Abs: 32.50755  Tot: -0.00000 ]
	SubspaceRotationAdjust: set factor to 0.0884
ElecMinimize: Iter:  40  F: -1977.087550693502408  |grad|_K:  5.918e-05  alpha:  3.958e-03  linmin:  2.078e-05  t[s]:   3983.01
	FillingsUpdate:  mu: +0.148179806  nElectrons: 345.000000  magneticMoment: [ Abs: 32.52957  Tot: +0.00000 ]
	SubspaceRotationAdjust: set factor to 0.0903
ElecMinimize: Iter:  41  F: -1977.089483273542783  |grad|_K:  5.743e-05  alpha:  3.167e-03  linmin:  2.047e-05  t[s]:   4051.00
	FillingsUpdate:  mu: +0.143308460  nElectrons: 345.000000  magneticMoment: [ Abs: 32.54735  Tot: +0.00000 ]
	SubspaceRotationAdjust: set factor to 0.0932
ElecMinimize: Iter:  42  F: -1977.090928160705744  |grad|_K:  5.590e-05  alpha:  2.513e-03  linmin:  1.949e-05  t[s]:   4118.55
	FillingsUpdate:  mu: +0.138951123  nElectrons: 345.000000  magneticMoment: [ Abs: 32.56209  Tot: -0.00000 ]
	SubspaceRotationAdjust: set factor to 0.0966
ElecMinimize: Iter:  43  F: -1977.092030240099120  |grad|_K:  5.464e-05  alpha:  2.030e-03  linmin:  1.853e-05  t[s]:   4187.68
	FillingsUpdate:  mu: +0.134062099  nElectrons: 345.000000  magneticMoment: [ Abs: 32.57464  Tot: -0.00000 ]
	SubspaceRotationAdjust: set factor to 0.0999
ElecMinimize: Iter:  44  F: -1977.092906818459142  |grad|_K:  5.358e-05  alpha:  1.697e-03  linmin:  1.746e-05  t[s]:   4256.11
	FillingsUpdate:  mu: +0.130473334  nElectrons: 345.000000  magneticMoment: [ Abs: 32.58553  Tot: +0.00000 ]
	SubspaceRotationAdjust: set factor to 0.103
ElecMinimize: Iter:  45  F: -1977.093633085803276  |grad|_K:  5.266e-05  alpha:  1.465e-03  linmin:  1.628e-05  t[s]:   4324.78
	FillingsUpdate:  mu: +0.127298523  nElectrons: 345.000000  magneticMoment: [ Abs: 32.59509  Tot: +0.00000 ]
	SubspaceRotationAdjust: set factor to 0.105
ElecMinimize: Iter:  46  F: -1977.094252242270841  |grad|_K:  5.182e-05  alpha:  1.293e-03  linmin:  1.595e-05  t[s]:   4393.06
	FillingsUpdate:  mu: +0.124121816  nElectrons: 345.000000  magneticMoment: [ Abs: 32.60360  Tot: -0.00000 ]
	SubspaceRotationAdjust: set factor to 0.106
ElecMinimize: Iter:  47  F: -1977.094786527665292  |grad|_K:  5.104e-05  alpha:  1.152e-03  linmin:  1.716e-05  t[s]:   4461.28
	FillingsUpdate:  mu: +0.120157869  nElectrons: 345.000000  magneticMoment: [ Abs: 32.61124  Tot: -0.00000 ]
	SubspaceRotationAdjust: set factor to 0.106
ElecMinimize: Iter:  48  F: -1977.095245945398801  |grad|_K:  5.030e-05  alpha:  1.021e-03  linmin:  1.990e-05  t[s]:   4529.76
	FillingsUpdate:  mu: +0.116538082  nElectrons: 345.000000  magneticMoment: [ Abs: 32.61816  Tot: +0.00000 ]
	SubspaceRotationAdjust: set factor to 0.106
ElecMinimize: Iter:  49  F: -1977.095634928554318  |grad|_K:  4.960e-05  alpha:  8.899e-04  linmin:  2.305e-05  t[s]:   4598.60
	FillingsUpdate:  mu: +0.113449524  nElectrons: 345.000000  magneticMoment: [ Abs: 32.62450  Tot: -0.00000 ]
	SubspaceRotationAdjust: set factor to 0.104
ElecMinimize: Iter:  50  F: -1977.095958241829294  |grad|_K:  4.895e-05  alpha:  7.603e-04  linmin:  2.513e-05  t[s]:   4666.35
	FillingsUpdate:  mu: +0.110691600  nElectrons: 345.000000  magneticMoment: [ Abs: 32.63039  Tot: -0.00000 ]
	SubspaceRotationAdjust: set factor to 0.102
ElecMinimize: Iter:  51  F: -1977.096224072128962  |grad|_K:  4.834e-05  alpha:  6.417e-04  linmin:  2.594e-05  t[s]:   4734.18
	FillingsUpdate:  mu: +0.108178972  nElectrons: 345.000000  magneticMoment: [ Abs: 32.63597  Tot: +0.00000 ]
	SubspaceRotationAdjust: set factor to 0.0999
ElecMinimize: Iter:  52  F: -1977.096442949133916  |grad|_K:  4.778e-05  alpha:  5.420e-04  linmin:  2.607e-05  t[s]:   4801.82
	FillingsUpdate:  mu: +0.105801969  nElectrons: 345.000000  magneticMoment: [ Abs: 32.64134  Tot: -0.00000 ]
	SubspaceRotationAdjust: set factor to 0.0973
ElecMinimize: Iter:  53  F: -1977.096625305686530  |grad|_K:  4.725e-05  alpha:  4.630e-04  linmin:  2.576e-05  t[s]:   4869.34
	FillingsUpdate:  mu: +0.103574123  nElectrons: 345.000000  magneticMoment: [ Abs: 32.64659  Tot: -0.00000 ]
	SubspaceRotationAdjust: set factor to 0.0946
ElecMinimize: Iter:  54  F: -1977.096780013452644  |grad|_K:  4.675e-05  alpha:  4.022e-04  linmin:  2.499e-05  t[s]:   4937.27
	FillingsUpdate:  mu: +0.101532311  nElectrons: 345.000000  magneticMoment: [ Abs: 32.65180  Tot: -0.00000 ]
	SubspaceRotationAdjust: set factor to 0.0918
ElecMinimize: Iter:  55  F: -1977.096913967854789  |grad|_K:  4.628e-05  alpha:  3.561e-04  linmin:  2.379e-05  t[s]:   5004.68
	FillingsUpdate:  mu: +0.099663300  nElectrons: 345.000000  magneticMoment: [ Abs: 32.65702  Tot: -0.00000 ]
	SubspaceRotationAdjust: set factor to 0.0889
ElecMinimize: Iter:  56  F: -1977.097032278751840  |grad|_K:  4.584e-05  alpha:  3.211e-04  linmin:  2.226e-05  t[s]:   5072.52
	FillingsUpdate:  mu: +0.097899005  nElectrons: 345.000000  magneticMoment: [ Abs: 32.66228  Tot: +0.00000 ]
	SubspaceRotationAdjust: set factor to 0.086
ElecMinimize: Iter:  57  F: -1977.097138673914969  |grad|_K:  4.541e-05  alpha:  2.944e-04  linmin:  2.055e-05  t[s]:   5140.06
	FillingsUpdate:  mu: +0.096161469  nElectrons: 345.000000  magneticMoment: [ Abs: 32.66763  Tot: -0.00000 ]
	SubspaceRotationAdjust: set factor to 0.0831
ElecMinimize: Iter:  58  F: -1977.097235875393380  |grad|_K:  4.500e-05  alpha:  2.739e-04  linmin:  1.878e-05  t[s]:   5207.84
	FillingsUpdate:  mu: +0.094412913  nElectrons: 345.000000  magneticMoment: [ Abs: 32.67309  Tot: +0.00000 ]
	SubspaceRotationAdjust: set factor to 0.0803
ElecMinimize: Iter:  59  F: -1977.097325899054340  |grad|_K:  4.460e-05  alpha:  2.582e-04  linmin:  1.702e-05  t[s]:   5276.03
	FillingsUpdate:  mu: +0.092659034  nElectrons: 345.000000  magneticMoment: [ Abs: 32.67868  Tot: -0.00000 ]
	SubspaceRotationAdjust: set factor to 0.0774
ElecMinimize: Iter:  60  F: -1977.097410263143047  |grad|_K:  4.421e-05  alpha:  2.461e-04  linmin:  1.532e-05  t[s]:   5343.98
	FillingsUpdate:  mu: +0.090934059  nElectrons: 345.000000  magneticMoment: [ Abs: 32.68443  Tot: -0.00000 ]
	SubspaceRotationAdjust: set factor to 0.0746
ElecMinimize: Iter:  61  F: -1977.097490134839063  |grad|_K:  4.383e-05  alpha:  2.369e-04  linmin:  1.369e-05  t[s]:   5411.51
	FillingsUpdate:  mu: +0.089281624  nElectrons: 345.000000  magneticMoment: [ Abs: 32.69037  Tot: -0.00000 ]
	SubspaceRotationAdjust: set factor to 0.0718
ElecMinimize: Iter:  62  F: -1977.097566430099732  |grad|_K:  4.345e-05  alpha:  2.301e-04  linmin:  1.216e-05  t[s]:   5479.32
	FillingsUpdate:  mu: +0.087725359  nElectrons: 345.000000  magneticMoment: [ Abs: 32.69651  Tot: -0.00000 ]
	SubspaceRotationAdjust: set factor to 0.0691
ElecMinimize: Iter:  63  F: -1977.097639879134022  |grad|_K:  4.307e-05  alpha:  2.252e-04  linmin:  1.071e-05  t[s]:   5547.01
	FillingsUpdate:  mu: +0.086259972  nElectrons: 345.000000  magneticMoment: [ Abs: 32.70288  Tot: -0.00000 ]
	SubspaceRotationAdjust: set factor to 0.0664
ElecMinimize: Iter:  64  F: -1977.097711080034742  |grad|_K:  4.269e-05  alpha:  2.220e-04  linmin:  9.342e-06  t[s]:   5614.41
	FillingsUpdate:  mu: +0.084835828  nElectrons: 345.000000  magneticMoment: [ Abs: 32.70947  Tot: -0.00000 ]
	SubspaceRotationAdjust: set factor to 0.0638
ElecMinimize: Iter:  65  F: -1977.097780528367366  |grad|_K:  4.231e-05  alpha:  2.202e-04  linmin:  8.049e-06  t[s]:   5682.28
	FillingsUpdate:  mu: +0.083388934  nElectrons: 345.000000  magneticMoment: [ Abs: 32.71628  Tot: -0.00000 ]
	SubspaceRotationAdjust: set factor to 0.0612
ElecMinimize: Iter:  66  F: -1977.097848645414160  |grad|_K:  4.194e-05  alpha:  2.196e-04  linmin:  6.811e-06  t[s]:   5750.41
	FillingsUpdate:  mu: +0.081919737  nElectrons: 345.000000  magneticMoment: [ Abs: 32.72335  Tot: -0.00000 ]
	SubspaceRotationAdjust: set factor to 0.0586
ElecMinimize: Iter:  67  F: -1977.097915795435938  |grad|_K:  4.155e-05  alpha:  2.203e-04  linmin:  5.636e-06  t[s]:   5817.92
	FillingsUpdate:  mu: +0.080478943  nElectrons: 345.000000  magneticMoment: [ Abs: 32.73067  Tot: -0.00000 ]
	SubspaceRotationAdjust: set factor to 0.0561
ElecMinimize: Iter:  68  F: -1977.097982299217165  |grad|_K:  4.117e-05  alpha:  2.220e-04  linmin:  4.505e-06  t[s]:   5885.61
	FillingsUpdate:  mu: +0.079080778  nElectrons: 345.000000  magneticMoment: [ Abs: 32.73825  Tot: -0.00000 ]
	SubspaceRotationAdjust: set factor to 0.0537
ElecMinimize: Iter:  69  F: -1977.098048446314579  |grad|_K:  4.078e-05  alpha:  2.248e-04  linmin:  3.404e-06  t[s]:   5953.23
	FillingsUpdate:  mu: +0.077701940  nElectrons: 345.000000  magneticMoment: [ Abs: 32.74611  Tot: +0.00000 ]
	SubspaceRotationAdjust: set factor to 0.0513
ElecMinimize: Iter:  70  F: -1977.098114502868157  |grad|_K:  4.039e-05  alpha:  2.286e-04  linmin:  2.326e-06  t[s]:   6020.78
	FillingsUpdate:  mu: +0.076351335  nElectrons: 345.000000  magneticMoment: [ Abs: 32.75425  Tot: +0.00000 ]
	SubspaceRotationAdjust: set factor to 0.049
ElecMinimize: Iter:  71  F: -1977.098180720097616  |grad|_K:  3.999e-05  alpha:  2.335e-04  linmin:  1.267e-06  t[s]:   6089.08
	FillingsUpdate:  mu: +0.075003234  nElectrons: 345.000000  magneticMoment: [ Abs: 32.76268  Tot: +0.00000 ]
	SubspaceRotationAdjust: set factor to 0.0468
ElecMinimize: Iter:  72  F: -1977.098247338431520  |grad|_K:  3.958e-05  alpha:  2.395e-04  linmin:  2.180e-07  t[s]:   6156.73
	FillingsUpdate:  mu: +0.073518080  nElectrons: 345.000000  magneticMoment: [ Abs: 32.77141  Tot: -0.00000 ]
	SubspaceRotationAdjust: set factor to 0.0446
ElecMinimize: Iter:  73  F: -1977.098314594431031  |grad|_K:  3.917e-05  alpha:  2.466e-04  linmin: -8.481e-07  t[s]:   6224.56
	FillingsUpdate:  mu: +0.071915037  nElectrons: 345.000000  magneticMoment: [ Abs: 32.78047  Tot: -0.00000 ]
	SubspaceRotationAdjust: set factor to 0.0424
ElecMinimize: Iter:  74  F: -1977.098382728444903  |grad|_K:  3.875e-05  alpha:  2.549e-04  linmin: -1.922e-06  t[s]:   6292.91
	FillingsUpdate:  mu: +0.070270879  nElectrons: 345.000000  magneticMoment: [ Abs: 32.78985  Tot: +0.00000 ]
	SubspaceRotationAdjust: set factor to 0.0404
ElecMinimize: Iter:  75  F: -1977.098451984159965  |grad|_K:  3.832e-05  alpha:  2.645e-04  linmin: -3.034e-06  t[s]:   6360.59
	FillingsUpdate:  mu: +0.068597378  nElectrons: 345.000000  magneticMoment: [ Abs: 32.79957  Tot: +0.00000 ]
	SubspaceRotationAdjust: set factor to 0.0384
ElecMinimize: Iter:  76  F: -1977.098522619406367  |grad|_K:  3.788e-05  alpha:  2.756e-04  linmin: -4.176e-06  t[s]:   6428.23
	FillingsUpdate:  mu: +0.066905384  nElectrons: 345.000000  magneticMoment: [ Abs: 32.80966  Tot: -0.00000 ]
	SubspaceRotationAdjust: set factor to 0.0365
ElecMinimize: Iter:  77  F: -1977.098594909120948  |grad|_K:  3.744e-05  alpha:  2.884e-04  linmin: -5.369e-06  t[s]:   6496.31
	FillingsUpdate:  mu: +0.065269816  nElectrons: 345.000000  magneticMoment: [ Abs: 32.82013  Tot: -0.00000 ]
	SubspaceRotationAdjust: set factor to 0.0346
ElecMinimize: Iter:  78  F: -1977.098669151833064  |grad|_K:  3.698e-05  alpha:  3.030e-04  linmin: -6.640e-06  t[s]:   6564.14
	FillingsUpdate:  mu: +0.063841524  nElectrons: 345.000000  magneticMoment: [ Abs: 32.83099  Tot: -0.00000 ]
	SubspaceRotationAdjust: set factor to 0.0328
ElecMinimize: Iter:  79  F: -1977.098745680764296  |grad|_K:  3.652e-05  alpha:  3.198e-04  linmin: -7.977e-06  t[s]:   6632.01
	FillingsUpdate:  mu: +0.062655813  nElectrons: 345.000000  magneticMoment: [ Abs: 32.84225  Tot: +0.00000 ]
	SubspaceRotationAdjust: set factor to 0.031
ElecMinimize: Iter:  80  F: -1977.098824866100813  |grad|_K:  3.604e-05  alpha:  3.391e-04  linmin: -9.437e-06  t[s]:   6699.66
	FillingsUpdate:  mu: +0.061554177  nElectrons: 345.000000  magneticMoment: [ Abs: 32.85396  Tot: +0.00000 ]
	SubspaceRotationAdjust: set factor to 0.0294
ElecMinimize: Iter:  81  F: -1977.098907135082300  |grad|_K:  3.556e-05  alpha:  3.613e-04  linmin: -1.101e-05  t[s]:   6767.82
	FillingsUpdate:  mu: +0.060378232  nElectrons: 345.000000  magneticMoment: [ Abs: 32.86614  Tot: -0.00000 ]
	SubspaceRotationAdjust: set factor to 0.0278
ElecMinimize: Iter:  82  F: -1977.098992977931857  |grad|_K:  3.506e-05  alpha:  3.869e-04  linmin: -1.273e-05  t[s]:   6835.55
	FillingsUpdate:  mu: +0.059218951  nElectrons: 345.000000  magneticMoment: [ Abs: 32.87879  Tot: -0.00000 ]
	SubspaceRotationAdjust: set factor to 0.0262
ElecMinimize: Iter:  83  F: -1977.099082967576805  |grad|_K:  3.455e-05  alpha:  4.166e-04  linmin: -1.463e-05  t[s]:   6903.49
	FillingsUpdate:  mu: +0.058328774  nElectrons: 345.000000  magneticMoment: [ Abs: 32.89195  Tot: -0.00000 ]
	SubspaceRotationAdjust: set factor to 0.0247
ElecMinimize: Iter:  84  F: -1977.099177780738728  |grad|_K:  3.403e-05  alpha:  4.512e-04  linmin: -1.672e-05  t[s]:   6971.12
	FillingsUpdate:  mu: +0.057735637  nElectrons: 345.000000  magneticMoment: [ Abs: 32.90561  Tot: +0.00000 ]
	SubspaceRotationAdjust: set factor to 0.0233
ElecMinimize: Iter:  85  F: -1977.099278224189902  |grad|_K:  3.351e-05  alpha:  4.919e-04  linmin: -1.904e-05  t[s]:   7039.00
	FillingsUpdate:  mu: +0.057272749  nElectrons: 345.000000  magneticMoment: [ Abs: 32.91982  Tot: +0.00000 ]
	SubspaceRotationAdjust: set factor to 0.022
ElecMinimize: Iter:  86  F: -1977.099385267908247  |grad|_K:  3.297e-05  alpha:  5.398e-04  linmin: -2.162e-05  t[s]:   7107.10
	FillingsUpdate:  mu: +0.056427365  nElectrons: 345.000000  magneticMoment: [ Abs: 32.93461  Tot: +0.00000 ]
	SubspaceRotationAdjust: set factor to 0.0207
ElecMinimize: Iter:  87  F: -1977.099500089268531  |grad|_K:  3.243e-05  alpha:  5.968e-04  linmin: -2.448e-05  t[s]:   7174.62
	FillingsUpdate:  mu: +0.054833830  nElectrons: 345.000000  magneticMoment: [ Abs: 32.94999  Tot: +0.00000 ]
	SubspaceRotationAdjust: set factor to 0.0195
ElecMinimize: Iter:  88  F: -1977.099624126625486  |grad|_K:  3.189e-05  alpha:  6.649e-04  linmin: -2.764e-05  t[s]:   7242.75
	FillingsUpdate:  mu: +0.052776982  nElectrons: 345.000000  magneticMoment: [ Abs: 32.96596  Tot: +0.00000 ]
	SubspaceRotationAdjust: set factor to 0.0184
ElecMinimize: Iter:  89  F: -1977.099759153304603  |grad|_K:  3.135e-05  alpha:  7.467e-04  linmin: -3.112e-05  t[s]:   7310.71
	FillingsUpdate:  mu: +0.050705252  nElectrons: 345.000000  magneticMoment: [ Abs: 32.98252  Tot: +0.00000 ]
	SubspaceRotationAdjust: set factor to 0.0173
	SubspaceRotationAdjust: resetting CG because factor has changed by 0.130356
ElecMinimize: 	State modified externally: resetting search direction.
ElecMinimize: Iter:  90  F: -1977.099907370400615  |grad|_K:  3.035e-05  alpha:  8.458e-04
ElecMinimize: 	Predicted alpha/alphaT>3.000000, increasing alphaT to 2.537380e-03.
ElecMinimize: 	Predicted alpha/alphaT>3.000000, increasing alphaT to 7.612140e-03.
ElecMinimize: 	Predicted alpha/alphaT>3.000000, increasing alphaT to 2.283642e-02.
	FillingsUpdate:  mu: +0.139794081  nElectrons: 345.000000  magneticMoment: [ Abs: 33.11519  Tot: -0.00000 ]
	SubspaceRotationAdjust: set factor to 0.0185
ElecMinimize: Iter:  91  F: -1977.240599086223256  |grad|_K:  4.446e-05  alpha:  1.084e+00  linmin:  2.123e-02  t[s]:   7515.79
	FillingsUpdate:  mu: +0.148106624  nElectrons: 345.000000  magneticMoment: [ Abs: 33.24892  Tot: +0.00000 ]
	SubspaceRotationAdjust: set factor to 0.0224
ElecMinimize: Iter:  92  F: -1977.344168744821445  |grad|_K:  3.264e-05  alpha:  3.853e-01  linmin: -5.743e-04  t[s]:   7584.08
	FillingsUpdate:  mu: +0.124064018  nElectrons: 345.000000  magneticMoment: [ Abs: 33.29134  Tot: -0.00000 ]
	SubspaceRotationAdjust: set factor to 0.0269
ElecMinimize: Iter:  93  F: -1977.421918938002818  |grad|_K:  2.763e-05  alpha:  4.173e-01  linmin: -2.571e-04  t[s]:   7651.95
	FillingsUpdate:  mu: +0.107873651  nElectrons: 345.000000  magneticMoment: [ Abs: 33.28648  Tot: -0.00000 ]
	SubspaceRotationAdjust: set factor to 0.0322
ElecMinimize: Iter:  94  F: -1977.477904113438171  |grad|_K:  2.324e-05  alpha:  4.199e-01  linmin: -1.196e-03  t[s]:   7719.76
	FillingsUpdate:  mu: +0.113179382  nElectrons: 345.000000  magneticMoment: [ Abs: 33.30138  Tot: -0.00000 ]
	SubspaceRotationAdjust: set factor to 0.0374
ElecMinimize: Iter:  95  F: -1977.520491508208352  |grad|_K:  2.190e-05  alpha:  4.456e-01  linmin: -9.601e-04  t[s]:   7787.70
	FillingsUpdate:  mu: +0.123213459  nElectrons: 345.000000  magneticMoment: [ Abs: 33.39610  Tot: -0.00000 ]
	SubspaceRotationAdjust: set factor to 0.0434
ElecMinimize: Iter:  96  F: -1977.569030040664074  |grad|_K:  2.377e-05  alpha:  5.700e-01  linmin: -6.397e-04  t[s]:   7856.14
	FillingsUpdate:  mu: +0.118583122  nElectrons: 345.000000  magneticMoment: [ Abs: 33.57444  Tot: -0.00000 ]
	SubspaceRotationAdjust: set factor to 0.0479
ElecMinimize: Iter:  97  F: -1977.617235961587767  |grad|_K:  2.334e-05  alpha:  4.819e-01  linmin: -3.656e-04  t[s]:   7924.07
	FillingsUpdate:  mu: +0.110777539  nElectrons: 345.000000  magneticMoment: [ Abs: 33.85742  Tot: +0.00000 ]
	SubspaceRotationAdjust: set factor to 0.0529
ElecMinimize: Iter:  98  F: -1977.659592500504687  |grad|_K:  2.167e-05  alpha:  4.396e-01  linmin:  1.250e-04  t[s]:   7992.11
	FillingsUpdate:  mu: +0.119422908  nElectrons: 345.000000  magneticMoment: [ Abs: 34.22280  Tot: +0.00000 ]
	SubspaceRotationAdjust: set factor to 0.0632
ElecMinimize: Iter:  99  F: -1977.689589391693971  |grad|_K:  1.903e-05  alpha:  3.645e-01  linmin:  2.857e-04  t[s]:   8059.90
	FillingsUpdate:  mu: +0.124889389  nElectrons: 345.000000  magneticMoment: [ Abs: 34.60568  Tot: +0.00000 ]
	SubspaceRotationAdjust: set factor to 0.0802
ElecMinimize: Iter: 100  F: -1977.714926747527443  |grad|_K:  1.809e-05  alpha:  4.047e-01  linmin: -4.288e-04  t[s]:   8127.76
	FillingsUpdate:  mu: +0.123401720  nElectrons: 345.000000  magneticMoment: [ Abs: 34.93531  Tot: -0.00000 ]
	SubspaceRotationAdjust: set factor to 0.0901
ElecMinimize: Iter: 101  F: -1977.735605953349477  |grad|_K:  1.675e-05  alpha:  3.573e-01  linmin: -1.715e-04  t[s]:   8196.04
	FillingsUpdate:  mu: +0.131421399  nElectrons: 345.000000  magneticMoment: [ Abs: 35.35908  Tot: -0.00000 ]
	SubspaceRotationAdjust: set factor to 0.102
ElecMinimize: Iter: 102  F: -1977.754581482063713  |grad|_K:  1.654e-05  alpha:  3.854e-01  linmin: -2.026e-04  t[s]:   8264.03
	FillingsUpdate:  mu: +0.127141988  nElectrons: 345.000000  magneticMoment: [ Abs: 35.90770  Tot: -0.00000 ]
	SubspaceRotationAdjust: set factor to 0.115
ElecMinimize: Iter: 103  F: -1977.774293443789020  |grad|_K:  1.725e-05  alpha:  4.095e-01  linmin: -4.602e-05  t[s]:   8331.65
	FillingsUpdate:  mu: +0.117355557  nElectrons: 345.000000  magneticMoment: [ Abs: 36.57931  Tot: -0.00000 ]
	SubspaceRotationAdjust: set factor to 0.132
	SubspaceRotationAdjust: resetting CG because factor has changed by 7.63144
ElecMinimize: 	State modified externally: resetting search direction.
ElecMinimize: Iter: 104  F: -1977.794217352019587  |grad|_K:  1.967e-05  alpha:  3.787e-01
	FillingsUpdate:  mu: +0.131193393  nElectrons: 345.000000  magneticMoment: [ Abs: 36.73497  Tot: -0.00000 ]
	SubspaceRotationAdjust: set factor to 0.136
ElecMinimize: Iter: 105  F: -1977.814416944689810  |grad|_K:  1.428e-05  alpha:  3.126e-01  linmin: -7.552e-03  t[s]:   8496.49
	FillingsUpdate:  mu: +0.120374652  nElectrons: 345.000000  magneticMoment: [ Abs: 37.13458  Tot: +0.00000 ]
	SubspaceRotationAdjust: set factor to 0.135
ElecMinimize: Iter: 106  F: -1977.830315635152601  |grad|_K:  1.466e-05  alpha:  4.324e-01  linmin:  4.403e-03  t[s]:   8564.32
	FillingsUpdate:  mu: +0.111743202  nElectrons: 345.000000  magneticMoment: [ Abs: 37.59190  Tot: +0.00000 ]
	SubspaceRotationAdjust: set factor to 0.148
ElecMinimize: Iter: 107  F: -1977.844228826920698  |grad|_K:  1.352e-05  alpha:  4.081e-01  linmin: -7.986e-04  t[s]:   8632.16
	FillingsUpdate:  mu: +0.119336047  nElectrons: 345.000000  magneticMoment: [ Abs: 37.84745  Tot: -0.00000 ]
	SubspaceRotationAdjust: set factor to 0.156
ElecMinimize: Iter: 108  F: -1977.856488377707137  |grad|_K:  1.250e-05  alpha:  3.778e-01  linmin: -5.115e-04  t[s]:   8700.11
	FillingsUpdate:  mu: +0.116171447  nElectrons: 345.000000  magneticMoment: [ Abs: 38.22912  Tot: -0.00000 ]
	SubspaceRotationAdjust: set factor to 0.163
ElecMinimize: Iter: 109  F: -1977.867295441872102  |grad|_K:  1.150e-05  alpha:  3.867e-01  linmin: -5.691e-04  t[s]:   8767.74
	FillingsUpdate:  mu: +0.123135815  nElectrons: 345.000000  magneticMoment: [ Abs: 38.53606  Tot: -0.00000 ]
	SubspaceRotationAdjust: set factor to 0.156
ElecMinimize: Iter: 110  F: -1977.876357014605674  |grad|_K:  1.170e-05  alpha:  3.768e-01  linmin:  2.278e-03  t[s]:   8835.72
	FillingsUpdate:  mu: +0.120879656  nElectrons: 345.000000  magneticMoment: [ Abs: 38.93030  Tot: +0.00000 ]
	SubspaceRotationAdjust: set factor to 0.208
ElecMinimize: Iter: 111  F: -1977.883780621731830  |grad|_K:  1.082e-05  alpha:  3.715e-01  linmin: -2.351e-04  t[s]:   8904.19
	FillingsUpdate:  mu: +0.117830897  nElectrons: 345.000000  magneticMoment: [ Abs: 39.22092  Tot: +0.00000 ]
	SubspaceRotationAdjust: set factor to 0.2
ElecMinimize: Iter: 112  F: -1977.889808747114330  |grad|_K:  1.014e-05  alpha:  2.951e-01  linmin: -2.475e-04  t[s]:   8971.64
	FillingsUpdate:  mu: +0.122962320  nElectrons: 345.000000  magneticMoment: [ Abs: 39.33803  Tot: -0.00000 ]
	SubspaceRotationAdjust: set factor to 0.169
ElecMinimize: Iter: 113  F: -1977.894033006287373  |grad|_K:  8.871e-06  alpha:  2.233e-01  linmin:  2.632e-04  t[s]:   9040.34
	FillingsUpdate:  mu: +0.117609072  nElectrons: 345.000000  magneticMoment: [ Abs: 39.56751  Tot: +0.00000 ]
	SubspaceRotationAdjust: set factor to 0.193
ElecMinimize: Iter: 114  F: -1977.897821280261496  |grad|_K:  7.454e-06  alpha:  2.783e-01  linmin: -5.652e-04  t[s]:   9107.82
	FillingsUpdate:  mu: +0.120043125  nElectrons: 345.000000  magneticMoment: [ Abs: 39.80168  Tot: +0.00000 ]
	SubspaceRotationAdjust: set factor to 0.226
ElecMinimize: Iter: 115  F: -1977.901678963602762  |grad|_K:  7.085e-06  alpha:  3.793e-01  linmin: -3.736e-04  t[s]:   9175.64
	FillingsUpdate:  mu: +0.127168400  nElectrons: 345.000000  magneticMoment: [ Abs: 39.96626  Tot: -0.00000 ]
	SubspaceRotationAdjust: set factor to 0.181
ElecMinimize: Iter: 116  F: -1977.904675676895067  |grad|_K:  8.897e-06  alpha:  3.318e-01  linmin:  2.387e-04  t[s]:   9243.28
	FillingsUpdate:  mu: +0.124087565  nElectrons: 345.000000  magneticMoment: [ Abs: 40.16616  Tot: -0.00000 ]
	SubspaceRotationAdjust: set factor to 0.148
ElecMinimize: Iter: 117  F: -1977.906898803857302  |grad|_K:  7.686e-06  alpha:  1.690e-01  linmin:  2.249e-04  t[s]:   9311.68
	FillingsUpdate:  mu: +0.124738272  nElectrons: 345.000000  magneticMoment: [ Abs: 40.40240  Tot: -0.00000 ]
	SubspaceRotationAdjust: set factor to 0.172
ElecMinimize: Iter: 118  F: -1977.910465093809080  |grad|_K:  7.523e-06  alpha:  3.625e-01  linmin:  5.786e-04  t[s]:   9379.15
	FillingsUpdate:  mu: +0.127193032  nElectrons: 345.000000  magneticMoment: [ Abs: 40.57088  Tot: -0.00000 ]
	SubspaceRotationAdjust: set factor to 0.182
ElecMinimize: Iter: 119  F: -1977.913562088835079  |grad|_K:  7.963e-06  alpha:  3.324e-01  linmin: -9.086e-05  t[s]:   9446.81
	FillingsUpdate:  mu: +0.120175766  nElectrons: 345.000000  magneticMoment: [ Abs: 40.71329  Tot: -0.00000 ]
	SubspaceRotationAdjust: set factor to 0.186
ElecMinimize: Iter: 120  F: -1977.915873229810813  |grad|_K:  6.517e-06  alpha:  2.119e-01  linmin: -3.878e-05  t[s]:   9514.51
	FillingsUpdate:  mu: +0.117555571  nElectrons: 345.000000  magneticMoment: [ Abs: 40.83762  Tot: +0.00000 ]
	SubspaceRotationAdjust: set factor to 0.237
ElecMinimize: Iter: 121  F: -1977.918359220134334  |grad|_K:  6.333e-06  alpha:  3.325e-01  linmin: -2.327e-04  t[s]:   9582.07
	FillingsUpdate:  mu: +0.116123904  nElectrons: 345.000000  magneticMoment: [ Abs: 40.93237  Tot: -0.00000 ]
	SubspaceRotationAdjust: set factor to 0.267
ElecMinimize: Iter: 122  F: -1977.920790342549253  |grad|_K:  6.378e-06  alpha:  3.412e-01  linmin: -5.942e-04  t[s]:   9649.95
	FillingsUpdate:  mu: +0.118279323  nElectrons: 345.000000  magneticMoment: [ Abs: 40.99852  Tot: -0.00000 ]
	SubspaceRotationAdjust: set factor to 0.285
ElecMinimize: Iter: 123  F: -1977.922618032903074  |grad|_K:  6.355e-06  alpha:  1.886e-01  linmin: -2.633e-03  t[s]:   9717.24
	FillingsUpdate:  mu: +0.122589226  nElectrons: 345.000000  magneticMoment: [ Abs: 41.05746  Tot: +0.00000 ]
	SubspaceRotationAdjust: set factor to 0.208
ElecMinimize: Iter: 124  F: -1977.924160767161993  |grad|_K:  8.297e-06  alpha:  1.816e-01  linmin:  1.166e-03  t[s]:   9785.17
	FillingsUpdate:  mu: +0.124630187  nElectrons: 345.000000  magneticMoment: [ Abs: 41.09166  Tot: -0.00000 ]
	SubspaceRotationAdjust: set factor to 0.215
ElecMinimize: Iter: 125  F: -1977.925030967821613  |grad|_K:  7.394e-06  alpha:  8.866e-02  linmin:  2.302e-04  t[s]:   9853.48
	FillingsUpdate:  mu: +0.124445165  nElectrons: 345.000000  magneticMoment: [ Abs: 41.10791  Tot: +0.00000 ]
	SubspaceRotationAdjust: set factor to 0.269
ElecMinimize: Iter: 126  F: -1977.925961656844038  |grad|_K:  5.542e-06  alpha:  9.928e-02  linmin: -5.243e-04  t[s]:   9921.78
	FillingsUpdate:  mu: +0.125239505  nElectrons: 345.000000  magneticMoment: [ Abs: 41.11473  Tot: -0.00000 ]
	SubspaceRotationAdjust: set factor to 0.281
ElecMinimize: Iter: 127  F: -1977.926793438057530  |grad|_K:  5.581e-06  alpha:  1.446e-01  linmin: -3.278e-04  t[s]:   9989.98
	FillingsUpdate:  mu: +0.121594104  nElectrons: 345.000000  magneticMoment: [ Abs: 41.13454  Tot: -0.00000 ]
	SubspaceRotationAdjust: set factor to 0.382
ElecMinimize: Iter: 128  F: -1977.927658829874417  |grad|_K:  4.810e-06  alpha:  1.542e-01  linmin:  4.885e-05  t[s]:  10058.11
	FillingsUpdate:  mu: +0.121895740  nElectrons: 345.000000  magneticMoment: [ Abs: 41.15055  Tot: +0.00000 ]
	SubspaceRotationAdjust: set factor to 0.365
ElecMinimize: Iter: 129  F: -1977.928141497156730  |grad|_K:  4.616e-06  alpha:  1.199e-01  linmin:  3.260e-05  t[s]:  10126.41
	FillingsUpdate:  mu: +0.120436974  nElectrons: 345.000000  magneticMoment: [ Abs: 41.15374  Tot: -0.00000 ]
	SubspaceRotationAdjust: set factor to 0.51
ElecMinimize: Iter: 130  F: -1977.928702982284221  |grad|_K:  4.141e-06  alpha:  1.515e-01  linmin: -8.526e-05  t[s]:  10194.11
	FillingsUpdate:  mu: +0.119443082  nElectrons: 345.000000  magneticMoment: [ Abs: 41.14555  Tot: -0.00000 ]
	SubspaceRotationAdjust: set factor to 0.495
ElecMinimize: Iter: 131  F: -1977.929077704011661  |grad|_K:  3.950e-06  alpha:  1.258e-01  linmin: -1.464e-04  t[s]:  10261.33
	FillingsUpdate:  mu: +0.118403028  nElectrons: 345.000000  magneticMoment: [ Abs: 41.14700  Tot: +0.00000 ]
	SubspaceRotationAdjust: set factor to 0.627
ElecMinimize: Iter: 132  F: -1977.929529954906911  |grad|_K:  3.368e-06  alpha:  1.638e-01  linmin:  7.714e-05  t[s]:  10328.96
	FillingsUpdate:  mu: +0.120437736  nElectrons: 345.000000  magneticMoment: [ Abs: 41.15778  Tot: +0.00000 ]
	SubspaceRotationAdjust: set factor to 0.66
ElecMinimize: Iter: 133  F: -1977.929837871466361  |grad|_K:  3.863e-06  alpha:  1.572e-01  linmin:  1.234e-04  t[s]:  10396.36
	FillingsUpdate:  mu: +0.119762026  nElectrons: 345.000000  magneticMoment: [ Abs: 41.15578  Tot: +0.00000 ]
	SubspaceRotationAdjust: set factor to 0.816
ElecMinimize: Iter: 134  F: -1977.930156303951662  |grad|_K:  3.709e-06  alpha:  1.252e-01  linmin: -4.350e-05  t[s]:  10463.94
	FillingsUpdate:  mu: +0.120524154  nElectrons: 345.000000  magneticMoment: [ Abs: 41.14917  Tot: +0.00000 ]
	SubspaceRotationAdjust: set factor to 0.74
ElecMinimize: Iter: 135  F: -1977.930398327246621  |grad|_K:  3.644e-06  alpha:  1.011e-01  linmin: -5.434e-05  t[s]:  10531.71
	FillingsUpdate:  mu: +0.118999284  nElectrons: 345.000000  magneticMoment: [ Abs: 41.15886  Tot: +0.00000 ]
	SubspaceRotationAdjust: set factor to 0.66
ElecMinimize: Iter: 136  F: -1977.930708249258487  |grad|_K:  3.645e-06  alpha:  1.378e-01  linmin:  6.484e-04  t[s]:  10599.11
	FillingsUpdate:  mu: +0.120196929  nElectrons: 345.000000  magneticMoment: [ Abs: 41.16415  Tot: -0.00000 ]
	SubspaceRotationAdjust: set factor to 0.665
ElecMinimize: Iter: 137  F: -1977.930968822237674  |grad|_K:  3.584e-06  alpha:  1.264e-01  linmin: -1.098e-04  t[s]:  10667.40
	FillingsUpdate:  mu: +0.121093129  nElectrons: 345.000000  magneticMoment: [ Abs: 41.16049  Tot: -0.00000 ]
	SubspaceRotationAdjust: set factor to 0.529
ElecMinimize: Iter: 138  F: -1977.931222276960625  |grad|_K:  4.787e-06  alpha:  9.775e-02  linmin:  3.822e-04  t[s]:  10735.20
	FillingsUpdate:  mu: +0.122713946  nElectrons: 345.000000  magneticMoment: [ Abs: 41.18439  Tot: +0.00000 ]
	SubspaceRotationAdjust: set factor to 0.356
ElecMinimize: Iter: 139  F: -1977.931469765691645  |grad|_K:  6.540e-06  alpha:  5.936e-02  linmin: -1.721e-04  t[s]:  10802.70
	FillingsUpdate:  mu: +0.124028836  nElectrons: 345.000000  magneticMoment: [ Abs: 41.27010  Tot: -0.00000 ]
	SubspaceRotationAdjust: set factor to 0.315
ElecMinimize: Iter: 140  F: -1977.931923589012740  |grad|_K:  7.335e-06  alpha:  5.846e-02  linmin:  8.801e-05  t[s]:  10870.61
	FillingsUpdate:  mu: +0.123749801  nElectrons: 345.000000  magneticMoment: [ Abs: 41.34167  Tot: -0.00000 ]
	SubspaceRotationAdjust: set factor to 0.423
ElecMinimize: Iter: 141  F: -1977.932337449337865  |grad|_K:  7.503e-06  alpha:  4.254e-02  linmin:  3.197e-05  t[s]:  10938.10
	FillingsUpdate:  mu: +0.122557983  nElectrons: 345.000000  magneticMoment: [ Abs: 41.37589  Tot: -0.00000 ]
	SubspaceRotationAdjust: set factor to 0.548
ElecMinimize: Iter: 142  F: -1977.932599344174605  |grad|_K:  7.391e-06  alpha:  2.548e-02  linmin: -3.386e-05  t[s]:  11005.76
	FillingsUpdate:  mu: +0.122125840  nElectrons: 345.000000  magneticMoment: [ Abs: 41.39941  Tot: -0.00000 ]
	SubspaceRotationAdjust: set factor to 0.675
ElecMinimize: Iter: 143  F: -1977.932787231547536  |grad|_K:  7.286e-06  alpha:  1.916e-02  linmin:  1.505e-05  t[s]:  11073.55
	FillingsUpdate:  mu: +0.123023863  nElectrons: 345.000000  magneticMoment: [ Abs: 41.41764  Tot: -0.00000 ]
	SubspaceRotationAdjust: set factor to 0.706
ElecMinimize: Iter: 144  F: -1977.932945580781507  |grad|_K:  7.940e-06  alpha:  1.721e-02  linmin:  1.984e-05  t[s]:  11141.41
	FillingsUpdate:  mu: +0.123419342  nElectrons: 345.000000  magneticMoment: [ Abs: 41.43096  Tot: -0.00000 ]
	SubspaceRotationAdjust: set factor to 0.59
ElecMinimize: Iter: 145  F: -1977.933114481373877  |grad|_K:  8.468e-06  alpha:  1.551e-02  linmin:  1.112e-05  t[s]:  11209.22
	FillingsUpdate:  mu: +0.123194739  nElectrons: 345.000000  magneticMoment: [ Abs: 41.43802  Tot: +0.00000 ]
	SubspaceRotationAdjust: set factor to 0.507
ElecMinimize: Iter: 146  F: -1977.933286255883786  |grad|_K:  7.868e-06  alpha:  1.382e-02  linmin:  3.509e-06  t[s]:  11276.85
	FillingsUpdate:  mu: +0.122340942  nElectrons: 345.000000  magneticMoment: [ Abs: 41.44117  Tot: +0.00000 ]
	SubspaceRotationAdjust: set factor to 0.473
ElecMinimize: Iter: 147  F: -1977.933443554710038  |grad|_K:  7.319e-06  alpha:  1.463e-02  linmin:  2.645e-05  t[s]:  11344.64
	FillingsUpdate:  mu: +0.122095083  nElectrons: 345.000000  magneticMoment: [ Abs: 41.44355  Tot: +0.00000 ]
	SubspaceRotationAdjust: set factor to 0.452
ElecMinimize: Iter: 148  F: -1977.933581918326126  |grad|_K:  7.252e-06  alpha:  1.500e-02  linmin:  4.341e-05  t[s]:  11412.54
	FillingsUpdate:  mu: +0.122380442  nElectrons: 345.000000  magneticMoment: [ Abs: 41.44692  Tot: -0.00000 ]
	SubspaceRotationAdjust: set factor to 0.432
ElecMinimize: Iter: 149  F: -1977.933707571330388  |grad|_K:  7.329e-06  alpha:  1.393e-02  linmin:  1.916e-05  t[s]:  11480.11
	FillingsUpdate:  mu: +0.122830787  nElectrons: 345.000000  magneticMoment: [ Abs: 41.45201  Tot: +0.00000 ]
	SubspaceRotationAdjust: set factor to 0.422
ElecMinimize: Iter: 150  F: -1977.933830169787143  |grad|_K:  7.277e-06  alpha:  1.321e-02  linmin: -1.915e-05  t[s]:  11548.38
	FillingsUpdate:  mu: +0.122901470  nElectrons: 345.000000  magneticMoment: [ Abs: 41.45964  Tot: -0.00000 ]
	SubspaceRotationAdjust: set factor to 0.434
ElecMinimize: Iter: 151  F: -1977.933956621207244  |grad|_K:  7.043e-06  alpha:  1.360e-02  linmin: -7.021e-05  t[s]:  11616.47
	FillingsUpdate:  mu: +0.122541620  nElectrons: 345.000000  magneticMoment: [ Abs: 41.47067  Tot: +0.00000 ]
	SubspaceRotationAdjust: set factor to 0.47
ElecMinimize: Iter: 152  F: -1977.934091330914271  |grad|_K:  6.690e-06  alpha:  1.512e-02  linmin: -1.139e-04  t[s]:  11684.23
	FillingsUpdate:  mu: +0.122378392  nElectrons: 345.000000  magneticMoment: [ Abs: 41.48542  Tot: -0.00000 ]
	SubspaceRotationAdjust: set factor to 0.509
ElecMinimize: Iter: 153  F: -1977.934233834014776  |grad|_K:  6.391e-06  alpha:  1.745e-02  linmin: -1.238e-04  t[s]:  11752.00
	FillingsUpdate:  mu: +0.122878671  nElectrons: 345.000000  magneticMoment: [ Abs: 41.50340  Tot: +0.00000 ]
	SubspaceRotationAdjust: set factor to 0.506
ElecMinimize: Iter: 154  F: -1977.934384335867435  |grad|_K:  6.341e-06  alpha:  2.020e-02  linmin: -9.613e-05  t[s]:  11819.56
	FillingsUpdate:  mu: +0.123167114  nElectrons: 345.000000  magneticMoment: [ Abs: 41.52335  Tot: +0.00000 ]
	SubspaceRotationAdjust: set factor to 0.488
ElecMinimize: Iter: 155  F: -1977.934545322620124  |grad|_K:  6.334e-06  alpha:  2.227e-02  linmin: -3.640e-05  t[s]:  11887.08
	FillingsUpdate:  mu: +0.122511248  nElectrons: 345.000000  magneticMoment: [ Abs: 41.54331  Tot: -0.00000 ]
	SubspaceRotationAdjust: set factor to 0.534
ElecMinimize: Iter: 156  F: -1977.934699306441416  |grad|_K:  6.153e-06  alpha:  2.178e-02  linmin:  3.944e-05  t[s]:  11954.80
	FillingsUpdate:  mu: +0.121126424  nElectrons: 345.000000  magneticMoment: [ Abs: 41.56191  Tot: +0.00000 ]
	SubspaceRotationAdjust: set factor to 0.645
ElecMinimize: Iter: 157  F: -1977.934822795859873  |grad|_K:  6.148e-06  alpha:  1.877e-02  linmin:  6.070e-05  t[s]:  12022.78
	FillingsUpdate:  mu: +0.119634547  nElectrons: 345.000000  magneticMoment: [ Abs: 41.57939  Tot: +0.00000 ]
	SubspaceRotationAdjust: set factor to 0.718
ElecMinimize: Iter: 158  F: -1977.934923365266059  |grad|_K:  6.481e-06  alpha:  1.543e-02  linmin:  3.725e-05  t[s]:  12090.45
	FillingsUpdate:  mu: +0.118465905  nElectrons: 345.000000  magneticMoment: [ Abs: 41.59737  Tot: +0.00000 ]
	SubspaceRotationAdjust: set factor to 0.691
ElecMinimize: Iter: 159  F: -1977.935022862563983  |grad|_K:  7.000e-06  alpha:  1.377e-02  linmin:  1.561e-05  t[s]:  12158.09
	FillingsUpdate:  mu: +0.117965818  nElectrons: 345.000000  magneticMoment: [ Abs: 41.61682  Tot: +0.00000 ]
	SubspaceRotationAdjust: set factor to 0.615
ElecMinimize: Iter: 160  F: -1977.935139621370809  |grad|_K:  7.348e-06  alpha:  1.377e-02  linmin: -1.473e-05  t[s]:  12226.06
	FillingsUpdate:  mu: +0.118424588  nElectrons: 345.000000  magneticMoment: [ Abs: 41.63638  Tot: -0.00000 ]
	SubspaceRotationAdjust: set factor to 0.574
ElecMinimize: Iter: 161  F: -1977.935280167108203  |grad|_K:  7.182e-06  alpha:  1.483e-02  linmin: -2.408e-05  t[s]:  12294.10
	FillingsUpdate:  mu: +0.119737942  nElectrons: 345.000000  magneticMoment: [ Abs: 41.65154  Tot: +0.00000 ]
	SubspaceRotationAdjust: set factor to 0.653
ElecMinimize: Iter: 162  F: -1977.935422202730024  |grad|_K:  6.654e-06  alpha:  1.563e-02  linmin: -7.551e-06  t[s]:  12361.87
	FillingsUpdate:  mu: +0.121595080  nElectrons: 345.000000  magneticMoment: [ Abs: 41.66070  Tot: +0.00000 ]
	SubspaceRotationAdjust: set factor to 0.92
ElecMinimize: Iter: 163  F: -1977.935543296927790  |grad|_K:  6.255e-06  alpha:  1.565e-02  linmin: -1.184e-06  t[s]:  12429.83
	FillingsUpdate:  mu: +0.123780321  nElectrons: 345.000000  magneticMoment: [ Abs: 41.66573  Tot: -0.00000 ]
	SubspaceRotationAdjust: set factor to 1.16
	SubspaceRotationAdjust: resetting CG because factor has changed by 8.76802
ElecMinimize: 	State modified externally: resetting search direction.
ElecMinimize: Iter: 164  F: -1977.935645292592653  |grad|_K:  6.372e-06  alpha:  1.496e-02
ElecMinimize: 	Predicted alpha/alphaT>3.000000, increasing alphaT to 4.489359e-02.
ElecMinimize: 	Predicted alpha/alphaT>3.000000, increasing alphaT to 1.346808e-01.
	FillingsUpdate:  mu: +0.123613125  nElectrons: 345.000000  magneticMoment: [ Abs: 41.64612  Tot: +0.00000 ]
	SubspaceRotationAdjust: set factor to 0.697
ElecMinimize: Iter: 165  F: -1977.936975203289194  |grad|_K:  7.055e-06  alpha:  1.900e-01  linmin:  9.448e-04  t[s]:  12633.08
	FillingsUpdate:  mu: +0.123577633  nElectrons: 345.000000  magneticMoment: [ Abs: 41.65226  Tot: -0.00000 ]
	SubspaceRotationAdjust: set factor to 0.787
ElecMinimize: Iter: 166  F: -1977.937978090622209  |grad|_K:  3.777e-06  alpha:  1.236e-01  linmin: -7.734e-05  t[s]:  12700.66
	FillingsUpdate:  mu: +0.122716151  nElectrons: 345.000000  magneticMoment: [ Abs: 41.69198  Tot: +0.00000 ]
	SubspaceRotationAdjust: set factor to 0.445
ElecMinimize: Iter: 167  F: -1977.938558520753759  |grad|_K:  5.915e-06  alpha:  2.399e-01  linmin:  1.039e-03  t[s]:  12768.47
	FillingsUpdate:  mu: +0.123422423  nElectrons: 345.000000  magneticMoment: [ Abs: 41.66534  Tot: -0.00000 ]
	SubspaceRotationAdjust: set factor to 0.332
ElecMinimize: Iter: 168  F: -1977.938889575227904  |grad|_K:  3.160e-06  alpha:  6.590e-02  linmin:  1.156e-03  t[s]:  12836.23
ElecMinimize: 	Predicted alpha/alphaT>3.000000, increasing alphaT to 1.976979e-01.
	FillingsUpdate:  mu: +0.125421537  nElectrons: 345.000000  magneticMoment: [ Abs: 41.65669  Tot: +0.00000 ]
	SubspaceRotationAdjust: set factor to 0.372
ElecMinimize: Iter: 169  F: -1977.939228103932919  |grad|_K:  1.930e-06  alpha:  2.133e-01  linmin: -2.057e-04  t[s]:  12922.70
	FillingsUpdate:  mu: +0.125201853  nElectrons: 345.000000  magneticMoment: [ Abs: 41.66990  Tot: -0.00000 ]
	SubspaceRotationAdjust: set factor to 0.293
ElecMinimize: Iter: 170  F: -1977.939415621232911  |grad|_K:  2.235e-06  alpha:  2.879e-01  linmin:  5.032e-04  t[s]:  12990.78
	FillingsUpdate:  mu: +0.123676274  nElectrons: 345.000000  magneticMoment: [ Abs: 41.66026  Tot: +0.00000 ]
	SubspaceRotationAdjust: set factor to 0.22
ElecMinimize: Iter: 171  F: -1977.939515162345060  |grad|_K:  1.528e-06  alpha:  1.198e-01  linmin:  2.043e-04  t[s]:  13058.63
	FillingsUpdate:  mu: +0.123348714  nElectrons: 345.000000  magneticMoment: [ Abs: 41.66331  Tot: -0.00000 ]
	SubspaceRotationAdjust: set factor to 0.31
ElecMinimize: Iter: 172  F: -1977.939626577131776  |grad|_K:  1.275e-06  alpha:  2.776e-01  linmin: -6.816e-06  t[s]:  13126.42
	FillingsUpdate:  mu: +0.124032315  nElectrons: 345.000000  magneticMoment: [ Abs: 41.67098  Tot: +0.00000 ]
	SubspaceRotationAdjust: set factor to 0.276
ElecMinimize: Iter: 173  F: -1977.939685666483456  |grad|_K:  1.213e-06  alpha:  2.062e-01  linmin:  1.248e-04  t[s]:  13194.55
	FillingsUpdate:  mu: +0.124596449  nElectrons: 345.000000  magneticMoment: [ Abs: 41.66332  Tot: +0.00000 ]
	SubspaceRotationAdjust: set factor to 0.243
ElecMinimize: Iter: 174  F: -1977.939729149043387  |grad|_K:  9.268e-07  alpha:  1.713e-01  linmin: -8.169e-05  t[s]:  13261.93
	FillingsUpdate:  mu: +0.124799514  nElectrons: 345.000000  magneticMoment: [ Abs: 41.66360  Tot: +0.00000 ]
	SubspaceRotationAdjust: set factor to 0.299
ElecMinimize: Iter: 175  F: -1977.939777129017784  |grad|_K:  8.193e-07  alpha:  3.192e-01  linmin:  1.235e-05  t[s]:  13329.86
	FillingsUpdate:  mu: +0.124543521  nElectrons: 345.000000  magneticMoment: [ Abs: 41.66961  Tot: -0.00000 ]
	SubspaceRotationAdjust: set factor to 0.268
ElecMinimize: Iter: 176  F: -1977.939816094704838  |grad|_K:  1.008e-06  alpha:  3.341e-01  linmin:  2.021e-04  t[s]:  13397.93
	FillingsUpdate:  mu: +0.124263110  nElectrons: 345.000000  magneticMoment: [ Abs: 41.66380  Tot: +0.00000 ]
	SubspaceRotationAdjust: set factor to 0.205
ElecMinimize: Iter: 177  F: -1977.939843338166384  |grad|_K:  8.609e-07  alpha:  1.581e-01  linmin:  5.913e-05  t[s]:  13465.62
	FillingsUpdate:  mu: +0.124459291  nElectrons: 345.000000  magneticMoment: [ Abs: 41.66710  Tot: +0.00000 ]
	SubspaceRotationAdjust: set factor to 0.226
ElecMinimize: Iter: 178  F: -1977.939889195426076  |grad|_K:  8.395e-07  alpha:  3.614e-01  linmin:  1.802e-04  t[s]:  13533.24
	FillingsUpdate:  mu: +0.124683906  nElectrons: 345.000000  magneticMoment: [ Abs: 41.67109  Tot: +0.00000 ]
	SubspaceRotationAdjust: set factor to 0.237
ElecMinimize: Iter: 179  F: -1977.939927504470461  |grad|_K:  8.886e-07  alpha:  3.176e-01  linmin:  9.241e-05  t[s]:  13600.92
	FillingsUpdate:  mu: +0.124640584  nElectrons: 345.000000  magneticMoment: [ Abs: 41.66551  Tot: +0.00000 ]
	SubspaceRotationAdjust: set factor to 0.191
ElecMinimize: Iter: 180  F: -1977.939957796934323  |grad|_K:  8.694e-07  alpha:  2.250e-01  linmin: -1.855e-05  t[s]:  13668.74
	FillingsUpdate:  mu: +0.124516218  nElectrons: 345.000000  magneticMoment: [ Abs: 41.67040  Tot: -0.00000 ]
	SubspaceRotationAdjust: set factor to 0.175
ElecMinimize: Iter: 181  F: -1977.939989030305014  |grad|_K:  7.319e-07  alpha:  2.372e-01  linmin:  1.642e-04  t[s]:  13736.48
	FillingsUpdate:  mu: +0.124540673  nElectrons: 345.000000  magneticMoment: [ Abs: 41.67055  Tot: -0.00000 ]
	SubspaceRotationAdjust: set factor to 0.203
ElecMinimize: Iter: 182  F: -1977.940025920605194  |grad|_K:  7.267e-07  alpha:  4.031e-01  linmin: -6.227e-06  t[s]:  13804.10
	FillingsUpdate:  mu: +0.124631802  nElectrons: 345.000000  magneticMoment: [ Abs: 41.66640  Tot: +0.00000 ]
	SubspaceRotationAdjust: set factor to 0.199
ElecMinimize: Iter: 183  F: -1977.940054913693757  |grad|_K:  7.479e-07  alpha:  3.174e-01  linmin: -5.230e-05  t[s]:  13871.57
	FillingsUpdate:  mu: +0.124660747  nElectrons: 345.000000  magneticMoment: [ Abs: 41.67067  Tot: +0.00000 ]
	SubspaceRotationAdjust: set factor to 0.166
ElecMinimize: Iter: 184  F: -1977.940078435617352  |grad|_K:  7.067e-07  alpha:  2.364e-01  linmin:  6.354e-05  t[s]:  13939.12
	FillingsUpdate:  mu: +0.124788229  nElectrons: 345.000000  magneticMoment: [ Abs: 41.66679  Tot: -0.00000 ]
	SubspaceRotationAdjust: set factor to 0.172
ElecMinimize: Iter: 185  F: -1977.940102481835083  |grad|_K:  6.563e-07  alpha:  2.774e-01  linmin: -1.167e-04  t[s]:  14006.79
	FillingsUpdate:  mu: +0.125010813  nElectrons: 345.000000  magneticMoment: [ Abs: 41.66554  Tot: +0.00000 ]
	SubspaceRotationAdjust: set factor to 0.194
ElecMinimize: Iter: 186  F: -1977.940130962613921  |grad|_K:  6.397e-07  alpha:  3.737e-01  linmin: -6.196e-06  t[s]:  14074.89
	FillingsUpdate:  mu: +0.125051484  nElectrons: 345.000000  magneticMoment: [ Abs: 41.66893  Tot: +0.00000 ]
	SubspaceRotationAdjust: set factor to 0.183
ElecMinimize: Iter: 187  F: -1977.940153363916352  |grad|_K:  7.260e-07  alpha:  3.115e-01  linmin:  1.041e-04  t[s]:  14142.58
	FillingsUpdate:  mu: +0.124997718  nElectrons: 345.000000  magneticMoment: [ Abs: 41.66347  Tot: +0.00000 ]
	SubspaceRotationAdjust: set factor to 0.164
ElecMinimize: Iter: 188  F: -1977.940173575382005  |grad|_K:  6.319e-07  alpha:  2.259e-01  linmin: -3.063e-05  t[s]:  14210.01
	FillingsUpdate:  mu: +0.124921418  nElectrons: 345.000000  magneticMoment: [ Abs: 41.66236  Tot: +0.00000 ]
	SubspaceRotationAdjust: set factor to 0.184
ElecMinimize: Iter: 189  F: -1977.940199496852756  |grad|_K:  6.282e-07  alpha:  3.724e-01  linmin:  5.670e-05  t[s]:  14277.96
	FillingsUpdate:  mu: +0.125022131  nElectrons: 345.000000  magneticMoment: [ Abs: 41.66294  Tot: +0.00000 ]
	SubspaceRotationAdjust: set factor to 0.191
ElecMinimize: Iter: 190  F: -1977.940222827309299  |grad|_K:  6.680e-07  alpha:  3.416e-01  linmin:  8.346e-05  t[s]:  14345.91
	FillingsUpdate:  mu: +0.125186871  nElectrons: 345.000000  magneticMoment: [ Abs: 41.65643  Tot: -0.00000 ]
	SubspaceRotationAdjust: set factor to 0.163
[...]
	SubspaceRotationAdjust: set factor to 0.47
ElecMinimize: Iter:   7  F: -1978.058796623766739  |grad|_K:  3.032e-07  alpha:  3.160e-01  linmin:  4.328e-07  t[s]: 239368.70
	FillingsUpdate:  mu: +0.112482835  nElectrons: 345.000000  magneticMoment: [ Abs: 36.07418  Tot: -0.00000 ]
	SubspaceRotationAdjust: set factor to 0.539
ElecMinimize: Iter:   8  F: -1978.058801275442875  |grad|_K:  2.288e-07  alpha:  2.907e-01  linmin:  4.921e-07  t[s]: 239436.94
	FillingsUpdate:  mu: +0.112414876  nElectrons: 345.000000  magneticMoment: [ Abs: 36.07365  Tot: +0.00000 ]
	SubspaceRotationAdjust: set factor to 0.607
ElecMinimize: Iter:   9  F: -1978.058804387182136  |grad|_K:  1.811e-07  alpha:  3.414e-01  linmin:  1.881e-07  t[s]: 239504.95
	FillingsUpdate:  mu: +0.112429545  nElectrons: 345.000000  magneticMoment: [ Abs: 36.07280  Tot: +0.00000 ]
	SubspaceRotationAdjust: set factor to 0.683
ElecMinimize: Iter:  10  F: -1978.058805985698655  |grad|_K:  1.312e-07  alpha:  2.799e-01  linmin: -1.769e-07  t[s]: 239572.87
	FillingsUpdate:  mu: +0.112443584  nElectrons: 345.000000  magneticMoment: [ Abs: 36.07213  Tot: +0.00000 ]
	SubspaceRotationAdjust: set factor to 0.772
ElecMinimize: Iter:  11  F: -1978.058806837129396  |grad|_K:  9.602e-08  alpha:  2.843e-01  linmin: -7.846e-07  t[s]: 239641.24
	FillingsUpdate:  mu: +0.112395251  nElectrons: 345.000000  magneticMoment: [ Abs: 36.07181  Tot: +0.00000 ]
	SubspaceRotationAdjust: set factor to 0.832
ElecMinimize: Iter:  12  F: -1978.058807310287193  |grad|_K:  8.274e-08  alpha:  2.947e-01  linmin:  1.621e-06  t[s]: 239709.45
	FillingsUpdate:  mu: +0.112483396  nElectrons: 345.000000  magneticMoment: [ Abs: 36.07088  Tot: +0.00000 ]
	SubspaceRotationAdjust: set factor to 0.739
ElecMinimize: Iter:  13  F: -1978.058807594571135  |grad|_K:  8.590e-08  alpha:  2.385e-01  linmin:  8.497e-06  t[s]: 239776.98
	FillingsUpdate:  mu: +0.112392231  nElectrons: 345.000000  magneticMoment: [ Abs: 36.07058  Tot: -0.00000 ]
	SubspaceRotationAdjust: set factor to 0.683
ElecMinimize: Iter:  14  F: -1978.058807869479551  |grad|_K:  7.387e-08  alpha:  2.143e-01  linmin: -5.089e-06  t[s]: 239845.13
	FillingsUpdate:  mu: +0.112440393  nElectrons: 345.000000  magneticMoment: [ Abs: 36.06952  Tot: -0.00000 ]
	SubspaceRotationAdjust: set factor to 0.765
ElecMinimize: Iter:  15  F: -1978.058808183374822  |grad|_K:  6.924e-08  alpha:  3.304e-01  linmin:  1.539e-05  t[s]: 239912.87
ElecMinimize: Converged (|Delta F|<1.000000e-06 for 5 iters).
Setting wave functions to eigenvectors of Hamiltonian

# Ionic positions in lattice coordinates:
ion Ni  -0.046175137616671  -0.205805343484722   0.188796558474452 1
ion Ni   0.466191022520428   0.010598857553406   0.166434403474141 1
ion Ni  -0.015892446950484   0.352129704401305   0.174614478905489 1
ion Ni   0.108541282973615   0.643285526939333   0.100391508191970 1
ion Ni  -0.262551350650680   0.781392076340653   0.069353549550702 1
ion Co   0.465011033131084   0.516091295433900   0.157924344106055 1
ion Co   0.231554640138150   0.185355139050107   0.072979700791020 1
ion V  -0.252118457717401   0.253748072862638   0.072780820312415 1
ion V   0.000000000000000   0.000000000000000  -0.050000000000000 0
ion V   0.500000000000000   0.000000000000000  -0.050000000000000 0
ion V   0.000000000000000   0.500000000000000  -0.050000000000000 0
ion V   0.500000000000000   0.500000000000000  -0.050000000000000 0
ion V   0.250000000000000   0.250000000000000  -0.150000000000000 0
ion V  -0.250000000000000   0.750000000000000  -0.150000000000000 0
ion Cr   0.250000000000000   0.750000000000000  -0.150000000000000 0
ion Cr  -0.250000000000000   0.250000000000000  -0.150000000000000 0
ion O   0.276606731770681   0.252702052538337   0.167516789727436 1
ion O   0.245996028846727   0.790136180681991   0.166292842780394 1
ion O  -0.306376700932601   0.237063519251555   0.156487335562013 1
ion O  -0.331236071104395   0.779051295453021   0.160136763120946 1
ion O  -0.043156855413100   0.017259950862810   0.049418296997919 1
ion O   0.522382493481029   0.042234859342146   0.044963930423087 1
ion O   0.001769338893666   0.440498230571483   0.045408385191664 1
ion O   0.557815895447570   0.503274654631681   0.053927293142849 1
ion O   0.250000000000000   0.250000000000000  -0.050000000000000 0
ion O   0.250000000000000   0.750000000000000  -0.050000000000000 0
ion O  -0.250000000000000   0.250000000000000  -0.050000000000000 0
ion O  -0.250000000000000   0.750000000000000  -0.050000000000000 0
ion O   0.000000000000000   0.000000000000000  -0.150000000000000 0
ion O   0.500000000000000   0.000000000000000  -0.150000000000000 0
ion O   0.000000000000000   0.500000000000000  -0.150000000000000 0
ion O   0.500000000000000   0.500000000000000  -0.150000000000000 0
ion O  -0.060107107250109  -0.137105977413117   0.264656125122883 1

# Forces in Lattice coordinates:
force Ni   0.002756697328922  -0.004178491233689  -0.001522188639601 1
force Ni   0.000375700937656  -0.021867326004592   0.000494800830309 1
force Ni   0.005983049929626  -0.004475754828022  -0.041785904671789 1
force Ni   0.005971041484245   0.004362938104794   0.053982397101402 1
force Ni  -0.001436408470809  -0.007538378541116   0.006158850222449 1
force Co  -0.005772780243605   0.003874107794065  -0.013620879466056 1
force Co   0.000722239711224  -0.003448196170099  -0.010069806789475 1
force V   0.000599502706628  -0.001710831187425  -0.030156433292065 1
force V  -0.083115424727071  -0.037144694670022   1.224548520127834 0
force V  -0.056495934011844   0.005168370605651   1.083135031066112 0
force V  -0.022636672052567   0.014300687554147   1.068584139547330 0
force V  -0.054878029758912   0.051354682521218   1.598337146154155 0
force V   0.048819313273734  -0.001859632198168  -0.562485706714747 0
force V   0.050199716585722   0.003395243066792  -0.551742212659060 0
force Cr   0.017862342614804   0.001814217061270  -1.495978549419537 0
force Cr   0.016418665676383  -0.002011533227859  -1.545595456931065 0
force O  -0.005523836090681   0.006325730485930   0.026438241974063 1
force O  -0.004334657421374   0.001776994641457   0.002048550524632 1
force O  -0.005070920178548   0.001894166481572   0.016668170855128 1
force O  -0.009416179979571   0.002934728673338   0.002017649319602 1
force O   0.001582539414514   0.002643512322479   0.000740767102894 1
force O  -0.000165573816912   0.003704281085866   0.004453680985148 1
force O  -0.003097267166863  -0.007382636900780  -0.018853967244816 1
force O   0.002456547747133  -0.001475515945903   0.021141720502863 1
force O  -0.016937864225843  -0.020581533721790  -0.608297295220865 0
force O  -0.007076625209490   0.005539047917122   0.398043556316390 0
force O  -0.001671282065566   0.017901220870209   0.388736419216080 0
force O  -0.010041081935681   0.009300012904105  -0.459141118056367 0
force O   0.044510683181611  -0.006888875891375  -0.149085502241958 0
force O   0.034229367251413  -0.002500452873602  -0.187719063743153 0
force O   0.032458046954957   0.013270463866910  -0.138534268092714 0
force O   0.032670976544147  -0.008219253872096  -0.089644335691743 0
force O  -0.002578215664020  -0.009091751307788  -0.029456088659650 1

# Energy components:
   Eewald =     4848.2423040465737358
       EH =     6628.1587844751575176
     Eloc =   -13618.5030770638495596
      Enl =     -503.3696513087434710
   Epulay =       -0.0004847078171675
      Exc =     -243.0336983342908184
       KE =      909.0917431658201622
        U =        1.3559491849133771
-------------------------------------
     Etot =    -1978.0581305422351761
       TS =        0.0006776411397370
-------------------------------------
        F =    -1978.0588081833748220

IonicMinimize: Iter:  89  F: -1978.058808183374822  |grad|_K:  5.199e-04  alpha:  1.000e+00  linmin: -5.738e-04  t[s]: 239937.40

#--- Lowdin population analysis ---
# oxidation-state Ni +3.375 +3.405 +3.425 +2.777 +3.503
# magnetic-moments Ni +0.371 -0.033 +0.702 -0.093 -0.899
# oxidation-state Co +1.236 +1.213
# magnetic-moments Co -2.671 +2.646
# oxidation-state V +1.297 +1.101 +1.112 +1.109 +1.114 +1.011 +1.012
# magnetic-moments V -1.196 -2.639 +2.578 -2.603 +2.656 -2.941 +2.935
# oxidation-state Cr +2.900 +2.902
# magnetic-moments Cr -3.877 +3.886
# oxidation-state O -0.757 -0.521 -0.649 -0.586 -0.806 -0.805 -0.734 -0.826 -0.896 -0.917 -0.919 -0.873 -0.904 -0.904 -0.903 -0.902 -0.284
# magnetic-moments O +0.097 -0.010 +0.073 -0.126 +0.014 -0.081 +0.051 -0.135 +0.021 -0.069 +0.060 -0.036 +0.009 -0.010 +0.010 -0.013 +1.255


-------- Electronic minimization -----------
	FillingsUpdate:  mu: +0.109998439  nElectrons: 345.000000  magneticMoment: [ Abs: 36.07006  Tot: +0.00000 ]
ElecMinimize: Iter:   0  F: -1977.903817974886806  |grad|_K:  6.559e-05  alpha:  1.000e+00
	FillingsUpdate:  mu: +0.113771816  nElectrons: 345.000000  magneticMoment: [ Abs: 36.07290  Tot: +0.00000 ]
	SubspaceRotationAdjust: set factor to 0.836
ElecMinimize: Iter:   1  F: -1978.049821669475250  |grad|_K:  1.205e-05  alpha:  1.968e-01  linmin:  1.390e-03  t[s]: 240053.62
	FillingsUpdate:  mu: +0.110693045  nElectrons: 345.000000  magneticMoment: [ Abs: 36.03845  Tot: -0.00000 ]
	SubspaceRotationAdjust: set factor to 0.571
ElecMinimize: Iter:   2  F: -1978.055705348358060  |grad|_K:  8.601e-06  alpha:  2.354e-01  linmin:  3.533e-04  t[s]: 240121.65
	FillingsUpdate:  mu: +0.109580591  nElectrons: 345.000000  magneticMoment: [ Abs: 36.08202  Tot: +0.00000 ]
	SubspaceRotationAdjust: set factor to 0.38
ElecMinimize: Iter:   3  F: -1978.057023462900133  |grad|_K:  4.843e-06  alpha:  1.185e-01  linmin:  5.283e-04  t[s]: 240189.13
	FillingsUpdate:  mu: +0.113267701  nElectrons: 345.000000  magneticMoment: [ Abs: 36.07128  Tot: -0.00000 ]
	SubspaceRotationAdjust: set factor to 0.497
ElecMinimize: Iter:   4  F: -1978.058044550656632  |grad|_K:  2.721e-06  alpha:  2.564e-01  linmin: -2.373e-04  t[s]: 240256.90
	FillingsUpdate:  mu: +0.114115033  nElectrons: 345.000000  magneticMoment: [ Abs: 36.05810  Tot: -0.00000 ]
	SubspaceRotationAdjust: set factor to 0.428
ElecMinimize: Iter:   5  F: -1978.058469324705811  |grad|_K:  2.198e-06  alpha:  3.249e-01  linmin:  1.000e-04  t[s]: 240324.66
	FillingsUpdate:  mu: +0.111201910  nElectrons: 345.000000  magneticMoment: [ Abs: 36.06834  Tot: +0.00000 ]
	SubspaceRotationAdjust: set factor to 0.343
ElecMinimize: Iter:   6  F: -1978.058636819454932  |grad|_K:  1.478e-06  alpha:  2.038e-01  linmin:  2.473e-06  t[s]: 240392.64
	FillingsUpdate:  mu: +0.112060851  nElectrons: 345.000000  magneticMoment: [ Abs: 36.06702  Tot: -0.00000 ]
	SubspaceRotationAdjust: set factor to 0.466
ElecMinimize: Iter:   7  F: -1978.058763244458078  |grad|_K:  9.696e-07  alpha:  3.322e-01  linmin: -3.974e-06  t[s]: 240460.95
	FillingsUpdate:  mu: +0.112928003  nElectrons: 345.000000  magneticMoment: [ Abs: 36.06249  Tot: +0.00000 ]
	SubspaceRotationAdjust: set factor to 0.421
ElecMinimize: Iter:   8  F: -1978.058807608366351  |grad|_K:  6.904e-07  alpha:  2.706e-01  linmin:  1.507e-05  t[s]: 240528.56
	FillingsUpdate:  mu: +0.112080156  nElectrons: 345.000000  magneticMoment: [ Abs: 36.06451  Tot: -0.00000 ]
	SubspaceRotationAdjust: set factor to 0.354
ElecMinimize: Iter:   9  F: -1978.058828913645129  |grad|_K:  4.545e-07  alpha:  2.571e-01  linmin: -1.430e-05  t[s]: 240596.03
	FillingsUpdate:  mu: +0.112360766  nElectrons: 345.000000  magneticMoment: [ Abs: 36.06350  Tot: -0.00000 ]
	SubspaceRotationAdjust: set factor to 0.419
ElecMinimize: Iter:  10  F: -1978.058839157009743  |grad|_K:  2.737e-07  alpha:  2.844e-01  linmin:  5.880e-07  t[s]: 240664.02
	FillingsUpdate:  mu: +0.112522197  nElectrons: 345.000000  magneticMoment: [ Abs: 36.06275  Tot: -0.00000 ]
	SubspaceRotationAdjust: set factor to 0.43
ElecMinimize: Iter:  11  F: -1978.058843134038852  |grad|_K:  1.941e-07  alpha:  3.050e-01  linmin:  9.585e-07  t[s]: 240731.52
	FillingsUpdate:  mu: +0.112274248  nElectrons: 345.000000  magneticMoment: [ Abs: 36.06333  Tot: -0.00000 ]
	SubspaceRotationAdjust: set factor to 0.364
ElecMinimize: Iter:  12  F: -1978.058844904137459  |grad|_K:  1.328e-07  alpha:  2.700e-01  linmin: -3.769e-06  t[s]: 240799.12
	FillingsUpdate:  mu: +0.112380015  nElectrons: 345.000000  magneticMoment: [ Abs: 36.06267  Tot: +0.00000 ]
	SubspaceRotationAdjust: set factor to 0.377
ElecMinimize: Iter:  13  F: -1978.058845811071023  |grad|_K:  9.129e-08  alpha:  2.952e-01  linmin:  1.471e-06  t[s]: 240867.45
	FillingsUpdate:  mu: +0.112409834  nElectrons: 345.000000  magneticMoment: [ Abs: 36.06242  Tot: +0.00000 ]
	SubspaceRotationAdjust: set factor to 0.444
ElecMinimize: Iter:  14  F: -1978.058846317886719  |grad|_K:  7.072e-08  alpha:  3.494e-01  linmin:  2.303e-06  t[s]: 240935.68
	FillingsUpdate:  mu: +0.112336968  nElectrons: 345.000000  magneticMoment: [ Abs: 36.06249  Tot: +0.00000 ]
	SubspaceRotationAdjust: set factor to 0.455
ElecMinimize: Iter:  15  F: -1978.058846596777357  |grad|_K:  5.982e-08  alpha:  3.200e-01  linmin: -9.088e-06  t[s]: 241003.91
	FillingsUpdate:  mu: +0.112382304  nElectrons: 345.000000  magneticMoment: [ Abs: 36.06204  Tot: +0.00000 ]
	SubspaceRotationAdjust: set factor to 0.462
ElecMinimize: Iter:  16  F: -1978.058846827495699  |grad|_K:  5.387e-08  alpha:  3.696e-01  linmin: -1.597e-05  t[s]: 241072.44
	FillingsUpdate:  mu: +0.112360239  nElectrons: 345.000000  magneticMoment: [ Abs: 36.06190  Tot: +0.00000 ]
	SubspaceRotationAdjust: set factor to 0.524
ElecMinimize: Iter:  17  F: -1978.058847018578945  |grad|_K:  5.175e-08  alpha:  3.775e-01  linmin: -7.980e-06  t[s]: 241140.78
ElecMinimize: Converged (|Delta F|<1.000000e-06 for 5 iters).
Setting wave functions to eigenvectors of Hamiltonian

# Ionic positions in lattice coordinates:
ion Ni  -0.046640530576152  -0.206502149238564   0.188764569040040 1
ion Ni   0.466150353302154   0.009624930047170   0.166346047699842 1
ion Ni  -0.015688474091774   0.350777123390503   0.174423707829972 1
ion Ni   0.108189675234015   0.643080456612973   0.100460135763067 1
ion Ni  -0.262210360270892   0.780999088300121   0.069346177620372 1
ion Co   0.464442856015278   0.515527521480965   0.157790510485594 1
ion Co   0.231646147567672   0.184874923270603   0.073110407937678 1
ion V  -0.252149988901211   0.253544019627264   0.072828391801004 1
ion V   0.000000000000000   0.000000000000000  -0.050000000000000 0
ion V   0.500000000000000   0.000000000000000  -0.050000000000000 0
ion V   0.000000000000000   0.500000000000000  -0.050000000000000 0
ion V   0.500000000000000   0.500000000000000  -0.050000000000000 0
ion V   0.250000000000000   0.250000000000000  -0.150000000000000 0
ion V  -0.250000000000000   0.750000000000000  -0.150000000000000 0
ion Cr   0.250000000000000   0.750000000000000  -0.150000000000000 0
ion Cr  -0.250000000000000   0.250000000000000  -0.150000000000000 0
ion O   0.276491416350069   0.251796932443557   0.167807759168309 1
ion O   0.245594708480670   0.789559169412760   0.166575022567159 1
ion O  -0.306483757955060   0.236770245515655   0.156506992750127 1
ion O  -0.331558793372312   0.778259252344593   0.160129175033068 1
ion O  -0.043039535026647   0.016988614087623   0.049467076707262 1
ion O   0.522433342578300   0.042277963491601   0.044958483531518 1
ion O   0.001206957031368   0.440475170930366   0.045396595224115 1
ion O   0.557771670418438   0.502989969962535   0.054016024650204 1
ion O   0.250000000000000   0.250000000000000  -0.050000000000000 0
ion O   0.250000000000000   0.750000000000000  -0.050000000000000 0
ion O  -0.250000000000000   0.250000000000000  -0.050000000000000 0
ion O  -0.250000000000000   0.750000000000000  -0.050000000000000 0
ion O   0.000000000000000   0.000000000000000  -0.150000000000000 0
ion O   0.500000000000000   0.000000000000000  -0.150000000000000 0
ion O   0.000000000000000   0.500000000000000  -0.150000000000000 0
ion O   0.500000000000000   0.500000000000000  -0.150000000000000 0
ion O  -0.061976934839464  -0.137947612090727   0.264586484111836 1

# Forces in Lattice coordinates:
force Ni  -0.001968394783785  -0.004152661264951   0.009286378205027 1
force Ni  -0.003732634281247  -0.016739409017181   0.014859343918425 1
force Ni   0.001070328085557  -0.008998468249419  -0.039118487441033 1
force Ni   0.004269573808233  -0.002867718038574   0.056669403846127 1
force Ni  -0.003730312486388  -0.007574758946399   0.006019255711793 1
force Co  -0.003701042964852   0.001111949625851  -0.008076813864776 1
force Co  -0.002839705672357  -0.001355520186766  -0.018775164172769 1
force V   0.002299290569079  -0.002196499871224  -0.040873875993626 1
force V  -0.082884605098840  -0.036886508245550   1.226233562128115 0
force V  -0.056560463971107   0.005566373588006   1.081215872538120 0
force V  -0.023071209561041   0.013759971808189   1.068321455264259 0
force V  -0.055041177935512   0.050492141767918   1.598810788155652 0
force V   0.048785803355397  -0.001844347152890  -0.560451724123145 0
force V   0.050253643210317   0.003387041925862  -0.550211625587572 0
force Cr   0.017807637249406   0.001824099896993  -1.494260876477250 0
force Cr   0.016455552426691  -0.002020103480930  -1.543429353047085 0
force O   0.002898313313914   0.004153558101851   0.012100337398991 1
force O  -0.002437174715189   0.001601332850920  -0.031249965918457 1
force O  -0.007563343706930  -0.001507657258612   0.012592256060875 1
force O  -0.008850415383839   0.001973477608549  -0.020211011708579 1
force O   0.001640586217868   0.002551765393651  -0.005922162297311 1
force O  -0.001556023784270   0.000683761202604   0.008687784355253 1
force O   0.001598571619916  -0.004748235154713  -0.011191081988002 1
force O   0.001022729960805   0.000609891642340   0.012408932775744 1
force O  -0.017202924671111  -0.020341162557746  -0.608265076103311 0
force O  -0.007132102518782   0.005408483304620   0.398251198223711 0
force O  -0.001609491746623   0.017561609693670   0.385879385650931 0
force O  -0.010120056242986   0.009135390072893  -0.457933617734650 0
force O   0.044499299951129  -0.006886178946165  -0.148039472407991 0
force O   0.034186482420562  -0.002601155141087  -0.186817221397013 0
force O   0.032645977838147   0.013308405157600  -0.137776675689310 0
force O   0.032663774621308  -0.008044520325487  -0.088294766731037 0
force O   0.003652478300214  -0.007963847714452  -0.010211805458624 1

# Energy components:
   Eewald =     4849.2922300296813773
       EH =     6629.1856589434792113
     Eloc =   -13620.5800619589608687
      Enl =     -503.3666472988013538
   Epulay =       -0.0004847078171675
      Exc =     -243.0337943100888936
       KE =      909.0890665437175358
        U =        1.3558634727822887
-------------------------------------
     Etot =    -1978.0581692860082512
       TS =        0.0006777325706367
-------------------------------------
        F =    -1978.0588470185789447

IonicMinimize: Iter:  90  F: -1978.058847018578945  |grad|_K:  4.820e-04  alpha:  1.000e+00  linmin: -9.002e-03  t[s]: 241165.37
IonicMinimize: Converged (|Delta F|<1.000000e-04 for 3 iters).

#--- Lowdin population analysis ---
# oxidation-state Ni +3.376 +3.404 +3.423 +2.774 +3.501
# magnetic-moments Ni +0.369 -0.033 +0.700 -0.092 -0.899
# oxidation-state Co +1.236 +1.213
# magnetic-moments Co -2.671 +2.646
# oxidation-state V +1.297 +1.101 +1.112 +1.110 +1.114 +1.011 +1.012
# magnetic-moments V -1.195 -2.639 +2.578 -2.603 +2.656 -2.941 +2.935
# oxidation-state Cr +2.900 +2.902
# magnetic-moments Cr -3.877 +3.886
# oxidation-state O -0.756 -0.520 -0.649 -0.586 -0.806 -0.805 -0.733 -0.826 -0.896 -0.917 -0.919 -0.873 -0.904 -0.904 -0.903 -0.902 -0.284
# magnetic-moments O +0.098 -0.010 +0.073 -0.127 +0.014 -0.080 +0.050 -0.135 +0.021 -0.069 +0.060 -0.036 +0.009 -0.010 +0.010 -0.013 +1.254


Dumping 'run.ionpos' ... done
Dumping 'run.lattice' ... done
Dumping 'run.Ecomponents' ... done
End date and time: Wed May 21 19:33:13 2025  (Duration: 2-18:59:31.81)
Done!
