/var/spool/slurmd/job44096/slurm_script: line 9: module: command not found
/var/spool/slurmd/job44096/slurm_script: line 10: module: command not found

*************** JDFTx 1.7.0  ***************

Start date and time: Tue May  6 14:54:46 2025
Executable /data2/jt577/jdftx_eat_withLibXC/build/jdftx with command-line: -i /data2/jt577/May_2025/Relax_Mag/rel6+1_6/O/runs/calc_/run.in
Running on hosts (process indices):  node3222 (0-8)
Divided in process groups (process indices):  0 (0)  1 (1)  2 (2)  3 (3)  4 (4)  5 (5)  6 (6)  7 (7)  8 (8)
Resource initialization completed at t[s]:      0.00
Run totals: 9 processes, 36 threads, 0 GPUs


Input parsed successfully to the following command list (including defaults):

add-mix 
add-U 	Ni d 0.22 \
	Co d 0.2 \
	V d 0.12 \
	Cr d 0.16
basis kpoint-dependent
coords-type Lattice
core-overlap-check vector
coulomb-interaction Periodic
davidson-band-ratio 1.1
dump End IonicPositions Lattice Ecomponents
dump-name run.$VAR
elec-cutoff 30
elec-eigen-algo Davidson
elec-ex-corr gga-x-rpbe gga-c-pbe
elec-smearing Fermi 0.001
electronic-minimize  \
	dirUpdateScheme      FletcherReeves \
	linminMethod         DirUpdateRecommended \
	nIterations          1000 \
	history              15 \
	knormThreshold       0 \
	energyDiffThreshold  1e-06 \
	nEnergyDiff          5 \
	alphaTstart          1 \
	alphaTmin            1e-10 \
	updateTestStepSize   yes \
	alphaTreduceFactor   0.1 \
	alphaTincreaseFactor 3 \
	nAlphaAdjustMax      3 \
	wolfeEnergy          0.0001 \
	wolfeGradient        0.9 \
	fdTest               no
exchange-regularization WignerSeitzTruncated
fluid None
fluid-ex-corr (null) lda-PZ
fluid-gummel-loop 10 1.000000e-05
fluid-minimize  \
	dirUpdateScheme      PolakRibiere \
	linminMethod         DirUpdateRecommended \
	nIterations          100 \
	history              15 \
	knormThreshold       0 \
	energyDiffThreshold  0 \
	nEnergyDiff          2 \
	alphaTstart          1 \
	alphaTmin            1e-10 \
	updateTestStepSize   yes \
	alphaTreduceFactor   0.1 \
	alphaTincreaseFactor 3 \
	nAlphaAdjustMax      3 \
	wolfeEnergy          0.0001 \
	wolfeGradient        0.9 \
	fdTest               no
fluid-solvent H2O 55.338 ScalarEOS \
	epsBulk 78.4 \
	pMol 0.92466 \
	epsInf 1.77 \
	Pvap 1.06736e-10 \
	sigmaBulk 4.62e-05 \
	Rvdw 2.61727 \
	Res 1.42 \
	tauNuc 343133 \
	poleEl 15 7 1
forces-output-coords Positions
initial-magnetic-moments  \
	Ni 1 -1 1 1 -1 \
	Co -1 1 \
	V -1 -1 1 -1 1 -1 1 \
	Cr -1 1
initial-state run.$VAR
ion Ni  0.000000000000000   0.000000000000000   0.150000000000000 1
ion Ni  0.500000000000000   0.000000000000000   0.150000000000000 1
ion Ni  0.000000000000000   0.500000000000000   0.150000000000000 1
ion Ni  0.250000000000000   0.750000000000000   0.050000000000000 1
ion Ni -0.250000000000000   0.750000000000000   0.050000000000000 1
ion Co  0.500000000000000   0.500000000000000   0.150000000000000 1
ion Co  0.250000000000000   0.250000000000000   0.050000000000000 1
ion V -0.250000000000000   0.250000000000000   0.050000000000000 1
ion V  0.000000000000000   0.000000000000000  -0.050000000000000 0
ion V  0.500000000000000   0.000000000000000  -0.050000000000000 0
ion V  0.000000000000000   0.500000000000000  -0.050000000000000 0
ion V  0.500000000000000   0.500000000000000  -0.050000000000000 0
ion V  0.250000000000000   0.250000000000000  -0.150000000000000 0
ion V -0.250000000000000   0.750000000000000  -0.150000000000000 0
ion Cr  0.250000000000000   0.750000000000000  -0.150000000000000 0
ion Cr -0.250000000000000   0.250000000000000  -0.150000000000000 0
ion O  0.250000000000000   0.250000000000000   0.150000000000000 1
ion O  0.250000000000000   0.750000000000000   0.150000000000000 1
ion O -0.250000000000000   0.250000000000000   0.150000000000000 1
ion O -0.250000000000000   0.750000000000000   0.150000000000000 1
ion O  0.000000000000000   0.000000000000000   0.050000000000000 1
ion O  0.500000000000000   0.000000000000000   0.050000000000000 1
ion O  0.000000000000000   0.500000000000000   0.050000000000000 1
ion O  0.500000000000000   0.500000000000000   0.050000000000000 1
ion O  0.250000000000000   0.250000000000000  -0.050000000000000 0
ion O  0.250000000000000   0.750000000000000  -0.050000000000000 0
ion O -0.250000000000000   0.250000000000000  -0.050000000000000 0
ion O -0.250000000000000   0.750000000000000  -0.050000000000000 0
ion O  0.000000000000000   0.000000000000000  -0.150000000000000 0
ion O  0.500000000000000   0.000000000000000  -0.150000000000000 0
ion O  0.000000000000000   0.500000000000000  -0.150000000000000 0
ion O  0.500000000000000   0.500000000000000  -0.150000000000000 0
ion O -0.000095572322686   0.000198307128402   0.224876729873325 1
ion-species SG15/$ID_ONCV_PBE.upf
ion-width 0
ionic-minimize  \
	dirUpdateScheme      L-BFGS \
	linminMethod         DirUpdateRecommended \
	nIterations          1000 \
	history              15 \
	knormThreshold       0.0001 \
	energyDiffThreshold  0.0001 \
	nEnergyDiff          3 \
	alphaTstart          1 \
	alphaTmin            1e-10 \
	updateTestStepSize   yes \
	alphaTreduceFactor   0.1 \
	alphaTincreaseFactor 3 \
	nAlphaAdjustMax      3 \
	wolfeEnergy          0.0001 \
	wolfeGradient        0.9 \
	fdTest               no
kpoint   0.500000000000   0.500000000000   0.500000000000  1.00000000000000
kpoint-folding 3 3 1 
latt-move-scale 1 1 1
latt-scale 1 1 1 
lattice  \
	   8.140000000000001    8.140000000000001    0.000000000000000  \
	   8.140000000000001   -8.140000000000001    0.000000000000000  \
	   0.000000000000000    0.000000000000000   40.700000000000003 
lattice-minimize  \
	dirUpdateScheme      L-BFGS \
	linminMethod         DirUpdateRecommended \
	nIterations          0 \
	history              15 \
	knormThreshold       0 \
	energyDiffThreshold  1e-06 \
	nEnergyDiff          2 \
	alphaTstart          1 \
	alphaTmin            1e-10 \
	updateTestStepSize   yes \
	alphaTreduceFactor   0.1 \
	alphaTincreaseFactor 3 \
	nAlphaAdjustMax      3 \
	wolfeEnergy          0.0001 \
	wolfeGradient        0.9 \
	fdTest               no
lcao-params -1 1e-06 0.001
pcm-variant GLSSA13
spintype z-spin
subspace-rotation-factor 1 yes
symmetries none
symmetry-threshold 0.0001


Applied RMS atom displacement 0 bohrs to make symmetries exact.

---------- Initializing the Grid ----------
R = 
[         8.14         8.14            0  ]
[         8.14        -8.14            0  ]
[            0            0         40.7  ]
unit cell volume = 5393.53
G =
[   0.385945   0.385945         -0  ]
[   0.385945  -0.385945         -0  ]
[         -0         -0   0.154378  ]
Minimum fftbox size, Smin = [  60  60  204  ]
Chosen fftbox size, S = [  60  60  210  ]

---------- Exchange Correlation functional ----------
Initialized LibXC exchange functional 'Hammer, Hansen, and Norskov'
Initialized LibXC correlation functional 'Perdew, Burke & Ernzerhof'

---------- Setting up pseudopotentials ----------
Width of ionic core gaussian charges (only for fluid interactions / plotting) set to 0

Reading pseudopotential file '/data2/jt577/jdftx_eat_withLibXC/build/pseudopotentials/SG15/Ni_ONCV_PBE.upf':
  'Ni' pseudopotential, 'PBE' functional
  Generated using ONCVPSP code by D. R. Hamann
  Author: Martin Schlipf and Francois Gygi  Date: 150915.
  18 valence electrons, 4 orbitals, 6 projectors, 1292 radial grid points, with lMax = 2
  Transforming local potential to a uniform radial grid of dG=0.02 with 1419 points.
  Transforming nonlocal projectors to a uniform radial grid of dG=0.02 with 528 points.
    3S    l: 0   occupation:  2.0   eigenvalue: -4.081355
    3P    l: 1   occupation:  6.0   eigenvalue: -2.623460
    4S    l: 0   occupation:  2.0   eigenvalue: -0.207378
    3D    l: 2   occupation:  8.0   eigenvalue: -0.326118
  Transforming atomic orbitals to a uniform radial grid of dG=0.02 with 528 points.
  WARNING: large normalization error in atomic orbital 1s (integral: 0.000006).
  Core radius for overlap checks: 1.99 bohrs.
  Reading pulay file /data2/jt577/jdftx_eat_withLibXC/build/pseudopotentials/SG15/Ni_ONCV_PBE.pulay ... using dE_dnG = -7.250568e-04 computed for Ecut = 30.

Reading pseudopotential file '/data2/jt577/jdftx_eat_withLibXC/build/pseudopotentials/SG15/Co_ONCV_PBE.upf':
  'Co' pseudopotential, 'PBE' functional
  Generated using ONCVPSP code by D. R. Hamann
  Author: Martin Schlipf and Francois Gygi  Date: 150915.
  17 valence electrons, 4 orbitals, 6 projectors, 1388 radial grid points, with lMax = 2
  Transforming local potential to a uniform radial grid of dG=0.02 with 1419 points.
  Transforming nonlocal projectors to a uniform radial grid of dG=0.02 with 528 points.
    3S    l: 0   occupation:  2.0   eigenvalue: -3.763303
    3P    l: 1   occupation:  6.0   eigenvalue: -2.412101
    4S    l: 0   occupation:  2.0   eigenvalue: -0.201022
    3D    l: 2   occupation:  7.0   eigenvalue: -0.301498
  Transforming atomic orbitals to a uniform radial grid of dG=0.02 with 528 points.
  Core radius for overlap checks: 1.94 bohrs.
  Reading pulay file /data2/jt577/jdftx_eat_withLibXC/build/pseudopotentials/SG15/Co_ONCV_PBE.pulay ... using dE_dnG = -9.787391e-05 computed for Ecut = 30.

Reading pseudopotential file '/data2/jt577/jdftx_eat_withLibXC/build/pseudopotentials/SG15/V_ONCV_PBE.upf':
  'V' pseudopotential, 'PBE' functional
  Generated using ONCVPSP code by D. R. Hamann
  Author: Martin Schlipf and Francois Gygi  Date: 150915.
  13 valence electrons, 4 orbitals, 6 projectors, 1536 radial grid points, with lMax = 2
  Transforming local potential to a uniform radial grid of dG=0.02 with 1419 points.
  Transforming nonlocal projectors to a uniform radial grid of dG=0.02 with 528 points.
    3S    l: 0   occupation:  2.0   eigenvalue: -2.581105
    3P    l: 1   occupation:  6.0   eigenvalue: -1.618486
    4S    l: 0   occupation:  2.0   eigenvalue: -0.172804
    3D    l: 2   occupation:  3.0   eigenvalue: -0.189795
  Transforming atomic orbitals to a uniform radial grid of dG=0.02 with 528 points.
  Core radius for overlap checks: 1.80 bohrs.
  Reading pulay file /data2/jt577/jdftx_eat_withLibXC/build/pseudopotentials/SG15/V_ONCV_PBE.pulay ... using dE_dnG = -1.698632e-04 computed for Ecut = 30.

Reading pseudopotential file '/data2/jt577/jdftx_eat_withLibXC/build/pseudopotentials/SG15/Cr_ONCV_PBE.upf':
  'Cr' pseudopotential, 'PBE' functional
  Generated using ONCVPSP code by D. R. Hamann
  Author: Martin Schlipf and Francois Gygi  Date: 150915.
  14 valence electrons, 4 orbitals, 6 projectors, 1160 radial grid points, with lMax = 2
  Transforming local potential to a uniform radial grid of dG=0.02 with 1419 points.
  Transforming nonlocal projectors to a uniform radial grid of dG=0.02 with 528 points.
    3S    l: 0   occupation:  2.0   eigenvalue: -2.865131
    3P    l: 1   occupation:  6.0   eigenvalue: -1.810600
    4S    l: 0   occupation:  2.0   eigenvalue: -0.180525
    3D    l: 2   occupation:  4.0   eigenvalue: -0.220312
  Transforming atomic orbitals to a uniform radial grid of dG=0.02 with 528 points.
  WARNING: large normalization error in atomic orbital 1s (integral: 0.000001).
  Core radius for overlap checks: 2.10 bohrs.
  Reading pulay file /data2/jt577/jdftx_eat_withLibXC/build/pseudopotentials/SG15/Cr_ONCV_PBE.pulay ... using dE_dnG = -9.817895e-06 computed for Ecut = 30.

Reading pseudopotential file '/data2/jt577/jdftx_eat_withLibXC/build/pseudopotentials/SG15/O_ONCV_PBE.upf':
  'O' pseudopotential, 'PBE' functional
  Generated using ONCVPSP code by D. R. Hamann
  Author: Martin Schlipf and Francois Gygi  Date: 150915.
  6 valence electrons, 2 orbitals, 4 projectors, 936 radial grid points, with lMax = 1
  Transforming local potential to a uniform radial grid of dG=0.02 with 1419 points.
  Transforming nonlocal projectors to a uniform radial grid of dG=0.02 with 528 points.
    2S    l: 0   occupation:  2.0   eigenvalue: -0.880572
    2P    l: 1   occupation:  4.0   eigenvalue: -0.331869
  Transforming atomic orbitals to a uniform radial grid of dG=0.02 with 528 points.
  Core radius for overlap checks: 1.29 bohrs.
  Reading pulay file /data2/jt577/jdftx_eat_withLibXC/build/pseudopotentials/SG15/O_ONCV_PBE.pulay ... using dE_dnG = -8.209514e-03 computed for Ecut = 30.

Initialized 5 species with 33 total atoms.

Folded 1 k-points by 3x3x1 to 9 k-points.

---------- Setting up k-points, bands, fillings ----------
No reducable k-points. 
Computing the number of bands and number of electrons
Calculating initial fillings.
nElectrons: 345.000000   nBands: 228   nStates: 18

----- Setting up reduced wavefunction bases (one per k-point) -----
average nbasis = 42312.000 , ideal nbasis = 42330.081

---------- Setting up ewald sum ----------
Optimum gaussian width for ewald sums = 3.906449 bohr.
Real space sum over 605 unit cells with max indices [  5  5  2  ]
Reciprocal space sum over 5915 terms with max indices [  6  6  17  ]

---------- Allocating electronic variables ----------
Initializing wave functions:  linear combination of atomic orbitals
Ni (M=1) pseudo-atom majority spin occupations:   s ( 1 0.5 )  p ( 3 )  d ( 5 )
Ni (M=1) pseudo-atom minority spin occupations:   s ( 1 0 )  p ( 3 )  d ( 4.5 )
Co (M=1) pseudo-atom majority spin occupations:   s ( 1 0 )  p ( 3 )  d ( 5 )
Co (M=1) pseudo-atom minority spin occupations:   s ( 1 0 )  p ( 3 )  d ( 4 )
V (M=1) pseudo-atom majority spin occupations:   s ( 1 0 )  p ( 3 )  d ( 3 )
V (M=1) pseudo-atom minority spin occupations:   s ( 1 0 )  p ( 3 )  d ( 2 )
Cr (M=1) pseudo-atom majority spin occupations:   s ( 1 0 )  p ( 3 )  d ( 3.5 )
Cr (M=1) pseudo-atom minority spin occupations:   s ( 1 0 )  p ( 3 )  d ( 2.5 )
O pseudo-atom occupations:   s ( 2 )  p ( 4 )
	FillingsUpdate:  mu: -0.276727190  nElectrons: 345.000000  magneticMoment: [ Abs: 0.45014  Tot: +0.00000 ]
LCAOMinimize: Iter:   0  F: -1833.9237496588398244  |grad|_K:  1.301e-02  alpha:  1.000e+00
LCAOMinimize: 	Step increased F by 1.576520e+01, reducing alpha to 1.400499e-02.
	FillingsUpdate:  mu: -0.289210306  nElectrons: 345.000000  magneticMoment: [ Abs: 0.41373  Tot: -0.00000 ]
LCAOMinimize: Iter:   1  F: -1836.0036793440801830  |grad|_K:  1.173e-02  alpha:  1.400e-02  linmin: -4.654e-02  cgtest:  1.026e+00  t[s]:    110.60
LCAOMinimize: Encountered beta<0, resetting CG.
LCAOMinimize: 	Predicted alpha/alphaT>3.000000, increasing alphaT to 4.201497e-02.
LCAOMinimize: 	Wrong curvature in test step, increasing alphaT to 1.260449e-01.
	FillingsUpdate:  mu: -0.304182766  nElectrons: 345.000000  magneticMoment: [ Abs: 1.79550  Tot: +0.00000 ]
LCAOMinimize: Iter:   2  F: -1849.9899079544436518  |grad|_K:  1.662e-02  alpha: -1.346e-02  linmin: -9.571e-02  cgtest:  3.987e-01  t[s]:    145.99
LCAOMinimize: 	Step increased F by 3.040050e+02, reducing alpha to 3.496699e-02.
LCAOMinimize: 	Step increased F by 1.158621e+00, reducing alpha to 3.496699e-03.
	FillingsUpdate:  mu: -0.288498617  nElectrons: 345.000000  magneticMoment: [ Abs: 1.05402  Tot: +0.00000 ]
LCAOMinimize: Iter:   3  F: -1852.7091247259293141  |grad|_K:  1.278e-02  alpha:  3.497e-03  linmin: -6.771e-02  cgtest:  9.938e-01  t[s]:    218.88
LCAOMinimize: Encountered beta<0, resetting CG.
LCAOMinimize: 	Wrong curvature in test step, increasing alphaT to 1.049010e-02.
	FillingsUpdate:  mu: -0.272038678  nElectrons: 345.000000  magneticMoment: [ Abs: 1.12476  Tot: -0.00000 ]
LCAOMinimize: Iter:   4  F: -1853.2585730727644204  |grad|_K:  1.306e-02  alpha: -9.061e-02  linmin: -3.864e-02  cgtest:  9.328e-01  t[s]:    245.86
LCAOMinimize: 	Step increased F by 1.926578e+01, reducing alpha to 1.755554e-02.
	FillingsUpdate:  mu: -0.245613306  nElectrons: 345.000000  magneticMoment: [ Abs: 1.95647  Tot: +0.00000 ]
LCAOMinimize: Iter:   5  F: -1855.9269788486228663  |grad|_K:  1.395e-02  alpha:  1.756e-02  linmin: -4.314e-02  cgtest:  8.067e-01  t[s]:    296.73
LCAOMinimize: 	Predicted alpha/alphaT>3.000000, increasing alphaT to 5.266663e-02.
	FillingsUpdate:  mu: -0.363931992  nElectrons: 345.000000  magneticMoment: [ Abs: 5.62674  Tot: -0.00000 ]
LCAOMinimize: Iter:   6  F: -1860.1479692541183795  |grad|_K:  1.802e-02  alpha:  3.334e-02  linmin:  5.113e-03  cgtest:  1.983e-01  t[s]:    334.57
LCAOMinimize: 	Predicted alpha/alphaT>3.000000, increasing alphaT to 1.000165e-01.
	FillingsUpdate:  mu: -0.312860054  nElectrons: 345.000000  magneticMoment: [ Abs: 5.36203  Tot: +0.00000 ]
LCAOMinimize: Iter:   7  F: -1861.9277018393722756  |grad|_K:  1.973e-02  alpha:  5.711e-03  linmin: -2.506e-02  cgtest:  9.018e-01  t[s]:    372.11
LCAOMinimize: 	Wrong curvature in test step, increasing alphaT to 1.713276e-02.
	FillingsUpdate:  mu: -0.359815142  nElectrons: 345.000000  magneticMoment: [ Abs: 6.18907  Tot: -0.00000 ]
LCAOMinimize: Iter:   8  F: -1865.5140782328387559  |grad|_K:  1.667e-02  alpha: -8.765e-03  linmin: -5.743e-02  cgtest:  7.437e-01  t[s]:    399.65
LCAOMinimize: 	Step increased F by 1.649478e+02, reducing alpha to 1.475053e-02.
	FillingsUpdate:  mu: -0.090715523  nElectrons: 345.000000  magneticMoment: [ Abs: 7.10143  Tot: +0.00000 ]
LCAOMinimize: Iter:   9  F: -1871.5076091723640275  |grad|_K:  1.534e-02  alpha:  1.475e-02  linmin: -7.017e-02  cgtest: -5.000e-02  t[s]:    451.06
	FillingsUpdate:  mu: +0.133063158  nElectrons: 345.000000  magneticMoment: [ Abs: 6.29654  Tot: +0.00000 ]
LCAOMinimize: Iter:  10  F: -1877.3733814524464378  |grad|_K:  1.262e-02  alpha:  1.869e-02  linmin: -5.247e-02  cgtest:  3.800e-02  t[s]:    480.80
	FillingsUpdate:  mu: +0.736260246  nElectrons: 345.000000  magneticMoment: [ Abs: 9.74426  Tot: +0.00000 ]
LCAOMinimize: Iter:  11  F: -1880.7560120043528968  |grad|_K:  1.574e-02  alpha:  1.839e-02  linmin:  4.369e-02  cgtest:  1.195e-01  t[s]:    510.39
LCAOMinimize: 	Bad step direction: g.d > 0.
LCAOMinimize: 	Undoing step.
LCAOMinimize: 	Step failed: resetting search direction.
	FillingsUpdate:  mu: +0.736260246  nElectrons: 345.000000  magneticMoment: [ Abs: 9.74426  Tot: +0.00000 ]
LCAOMinimize: Iter:  12  F: -1880.7560120043492589  |grad|_K:  1.574e-02  alpha:  0.000e+00
	FillingsUpdate:  mu: +0.135710767  nElectrons: 345.000000  magneticMoment: [ Abs: 5.12311  Tot: -0.00000 ]
LCAOMinimize: Iter:  13  F: -1881.4262743170907015  |grad|_K:  1.826e-02  alpha:  3.757e-02  linmin:  4.037e-02  cgtest: -8.957e-01  t[s]:    561.39
LCAOMinimize: 	Step increased F by 3.964583e+00, reducing alpha to 1.068099e-03.
	FillingsUpdate:  mu: +0.144369880  nElectrons: 345.000000  magneticMoment: [ Abs: 5.15861  Tot: -0.00000 ]
LCAOMinimize: Iter:  14  F: -1881.5516666815419740  |grad|_K:  1.797e-02  alpha:  1.068e-03  linmin: -1.984e-02  cgtest:  1.027e+00  t[s]:    612.89
LCAOMinimize: Encountered beta<0, resetting CG.
LCAOMinimize: 	Wrong curvature in test step, increasing alphaT to 3.204298e-03.
	FillingsUpdate:  mu: +0.116336355  nElectrons: 345.000000  magneticMoment: [ Abs: 5.26355  Tot: -0.00000 ]
LCAOMinimize: Iter:  15  F: -1881.8951651080226384  |grad|_K:  1.882e-02  alpha: -9.759e-03  linmin: -1.010e-01  cgtest:  9.262e-01  t[s]:    640.03
LCAOMinimize: 	Step increased F by 3.002496e+02, reducing alpha to 1.307816e-02.
	FillingsUpdate:  mu: +0.224477070  nElectrons: 345.000000  magneticMoment: [ Abs: 9.32202  Tot: -0.00000 ]
LCAOMinimize: Iter:  16  F: -1886.9604367126137277  |grad|_K:  8.788e-03  alpha:  1.308e-02  linmin:  1.653e-02  cgtest:  7.184e-02  t[s]:    691.59
LCAOMinimize: 	Wrong curvature in test step, increasing alphaT to 3.923449e-02.
	FillingsUpdate:  mu: +0.183072875  nElectrons: 345.000000  magneticMoment: [ Abs: 9.72594  Tot: -0.00000 ]
LCAOMinimize: Iter:  17  F: -1887.8531302599801620  |grad|_K:  7.824e-03  alpha: -8.937e-01  linmin: -7.068e-02  cgtest:  8.635e-01  t[s]:    718.51
LCAOMinimize: 	Step increased F by 9.775939e+00, reducing alpha to 1.807260e-02.
	FillingsUpdate:  mu: +0.123398244  nElectrons: 345.000000  magneticMoment: [ Abs: 9.57983  Tot: +0.00000 ]
LCAOMinimize: Iter:  18  F: -1888.5590361466147442  |grad|_K:  6.667e-03  alpha:  1.807e-02  linmin: -3.783e-02  cgtest:  3.365e-01  t[s]:    769.75
LCAOMinimize: 	Predicted alpha/alphaT>3.000000, increasing alphaT to 5.421781e-02.
LCAOMinimize: 	Wrong curvature in test step, increasing alphaT to 1.626534e-01.
	FillingsUpdate:  mu: +0.199459828  nElectrons: 345.000000  magneticMoment: [ Abs: 10.36224  Tot: +0.00000 ]
LCAOMinimize: Iter:  19  F: -1891.4195192618569763  |grad|_K:  7.428e-03  alpha: -8.345e-01  linmin: -6.761e-02  cgtest:  1.053e-01  t[s]:    805.10
LCAOMinimize: 	Step increased F by 6.169659e+01, reducing alpha to 1.895466e-02.
	FillingsUpdate:  mu: +0.134689575  nElectrons: 345.000000  magneticMoment: [ Abs: 10.93372  Tot: +0.00000 ]
LCAOMinimize: Iter:  20  F: -1892.9309345497354116  |grad|_K:  1.038e-02  alpha:  1.895e-02  linmin:  2.752e-02  cgtest:  3.676e-01  t[s]:    856.11
LCAOMinimize: 	Bad step direction: g.d > 0.
LCAOMinimize: 	Undoing step.
LCAOMinimize: 	Step failed: resetting search direction.
	FillingsUpdate:  mu: +0.134689575  nElectrons: 345.000000  magneticMoment: [ Abs: 10.93372  Tot: +0.00000 ]
LCAOMinimize: Iter:  21  F: -1892.9309345497354116  |grad|_K:  1.038e-02  alpha:  0.000e+00
	FillingsUpdate:  mu: +0.030705379  nElectrons: 345.000000  magneticMoment: [ Abs: 10.77856  Tot: -0.00000 ]
LCAOMinimize: Iter:  22  F: -1893.4015754068150272  |grad|_K:  4.098e-03  alpha:  1.020e-02  linmin:  1.678e-02  cgtest: -1.479e-01  t[s]:    908.81
LCAOMinimize: 	Predicted alpha/alphaT>3.000000, increasing alphaT to 3.060645e-02.
	FillingsUpdate:  mu: +0.142847631  nElectrons: 345.000000  magneticMoment: [ Abs: 12.42438  Tot: +0.00000 ]
LCAOMinimize: Iter:  23  F: -1893.6895013521530018  |grad|_K:  4.377e-03  alpha:  4.521e-02  linmin:  2.679e-02  cgtest: -1.602e-01  t[s]:    947.88
	FillingsUpdate:  mu: +0.111503143  nElectrons: 345.000000  magneticMoment: [ Abs: 13.84955  Tot: -0.00000 ]
LCAOMinimize: Iter:  24  F: -1893.8693257285860909  |grad|_K:  4.445e-03  alpha:  3.442e-02  linmin:  3.433e-04  cgtest:  8.460e-01  t[s]:    978.11
	FillingsUpdate:  mu: +0.036167793  nElectrons: 345.000000  magneticMoment: [ Abs: 13.68415  Tot: +0.00000 ]
LCAOMinimize: Iter:  25  F: -1894.1190538882533474  |grad|_K:  1.838e-03  alpha:  2.659e-02  linmin:  1.912e-03  cgtest:  2.400e-02  t[s]:   1008.27
	FillingsUpdate:  mu: +0.050136468  nElectrons: 345.000000  magneticMoment: [ Abs: 13.97090  Tot: +0.00000 ]
LCAOMinimize: Iter:  26  F: -1894.1943176366755779  |grad|_K:  1.112e-03  alpha:  4.517e-02  linmin: -1.028e-02  cgtest:  9.213e-02  t[s]:   1039.02
	FillingsUpdate:  mu: +0.082775684  nElectrons: 345.000000  magneticMoment: [ Abs: 15.43821  Tot: +0.00000 ]
LCAOMinimize: Iter:  27  F: -1894.2437616608372082  |grad|_K:  2.526e-03  alpha:  7.629e-02  linmin: -1.277e-04  cgtest: -3.970e-02  t[s]:   1069.09
	FillingsUpdate:  mu: +0.060332872  nElectrons: 345.000000  magneticMoment: [ Abs: 17.51843  Tot: +0.00000 ]
LCAOMinimize: Iter:  28  F: -1894.3237692858556329  |grad|_K:  2.007e-03  alpha:  2.577e-02  linmin:  3.004e-04  cgtest:  8.754e-01  t[s]:   1099.41
LCAOMinimize: Encountered beta<0, resetting CG.
	FillingsUpdate:  mu: +0.045479183  nElectrons: 345.000000  magneticMoment: [ Abs: 17.49994  Tot: -0.00000 ]
LCAOMinimize: Iter:  29  F: -1894.3539227696985563  |grad|_K:  1.383e-03  alpha:  1.621e-02  linmin:  6.857e-04  cgtest:  1.311e-02  t[s]:   1129.59
	FillingsUpdate:  mu: +0.045441676  nElectrons: 345.000000  magneticMoment: [ Abs: 18.16377  Tot: +0.00000 ]
LCAOMinimize: Iter:  30  F: -1894.4000051763996453  |grad|_K:  7.401e-04  alpha:  4.760e-02  linmin: -1.961e-02  cgtest:  1.851e-01  t[s]:   1159.90
LCAOMinimize: None of the convergence criteria satisfied after 30 iterations.


---- Citations for features of the code used in this run ----

   Software package:
      R. Sundararaman, K. Letchworth-Weaver, K.A. Schwarz, D. Gunceler, Y. Ozhabes and T.A. Arias, 'JDFTx: software for joint density-functional theory', SoftwareX 6, 278 (2017)

   Simplified rotationally-invariant DFT+U:
      S. L. Dudarev et al., Phys. Rev. B 57, 1505 (1998)

   LibXC library of exchange-correlation functions:
      M. A. L. Marques, M. J. T. Oliveira and T. Burnus, Comput. Phys. Commun. 183, 2272 (2012)

   Hammer, Hansen, and Norskov exchange functional:
      B. Hammer, L. B. Hansen, and J. K. Nørskov, Phys. Rev. B 59, 7413 (1999)

   Perdew, Burke & Ernzerhof correlation functional:
      J. P. Perdew, K. Burke, and M. Ernzerhof, Phys. Rev. Lett. 77, 3865 (1996)

   Pseudopotentials:
      M Schlipf and F Gygi, Comput. Phys. Commun. 196, 36 (2015)

   Total energy minimization with Auxiliary Hamiltonian:
      C. Freysoldt, S. Boeck, and J. Neugebauer, Phys. Rev. B 79, 241103(R) (2009)

This list may not be complete. Please suggest additional citations or
report any other bugs at https://github.com/shankar1729/jdftx/issues

Initialization completed successfully at t[s]:   1171.02


-------- Electronic minimization -----------
	FillingsUpdate:  mu: +0.045441814  nElectrons: 345.000000  magneticMoment: [ Abs: 18.16377  Tot: +0.00000 ]
ElecMinimize: Iter:   0  F: -1894.400005176403738  |grad|_K:  9.564e-04  alpha:  1.000e+00
	FillingsUpdate:  mu: +0.272543039  nElectrons: 345.000000  magneticMoment: [ Abs: 21.20231  Tot: +0.00000 ]
	SubspaceRotationAdjust: set factor to 0.998
ElecMinimize: Iter:   1  F: -1938.339508191827463  |grad|_K:  1.127e-03  alpha:  4.816e-01  linmin:  1.055e-02  t[s]:   1271.97
	FillingsUpdate:  mu: +0.682944916  nElectrons: 345.000000  magneticMoment: [ Abs: 22.93405  Tot: -0.00000 ]
	SubspaceRotationAdjust: set factor to 0.694
ElecMinimize: Iter:   2  F: -1945.979258232262737  |grad|_K:  1.241e-03  alpha:  1.156e-01  linmin:  6.821e-04  t[s]:   1339.96
ElecMinimize: 	Step increased F by 3.724221e+00, reducing alpha to 3.897021e-03.
	FillingsUpdate:  mu: +0.616780281  nElectrons: 345.000000  magneticMoment: [ Abs: 22.75789  Tot: -0.00000 ]
	SubspaceRotationAdjust: set factor to 0.666
ElecMinimize: Iter:   3  F: -1947.700068217873650  |grad|_K:  9.224e-04  alpha:  3.897e-03  linmin: -5.036e-03  t[s]:   1451.76
ElecMinimize: 	Predicted alpha/alphaT>3.000000, increasing alphaT to 1.169106e-02.
	FillingsUpdate:  mu: +0.475180191  nElectrons: 345.000000  magneticMoment: [ Abs: 22.58861  Tot: +0.00000 ]
	SubspaceRotationAdjust: set factor to 0.408
ElecMinimize: Iter:   4  F: -1951.976174964511074  |grad|_K:  9.284e-04  alpha:  1.753e-02  linmin:  2.510e-03  t[s]:   1538.88
	FillingsUpdate:  mu: +0.702135374  nElectrons: 345.000000  magneticMoment: [ Abs: 22.08824  Tot: +0.00000 ]
	SubspaceRotationAdjust: set factor to 0.271
ElecMinimize: Iter:   5  F: -1952.093606020134075  |grad|_K:  1.134e-03  alpha:  6.657e-03  linmin:  1.038e-03  t[s]:   1606.89
ElecMinimize: 	Predicted alpha/alphaT>3.000000, increasing alphaT to 1.996970e-02.
	FillingsUpdate:  mu: +1.218595994  nElectrons: 345.000000  magneticMoment: [ Abs: 21.40685  Tot: +0.00000 ]
	SubspaceRotationAdjust: set factor to 0.156
ElecMinimize: Iter:   6  F: -1957.777051619143094  |grad|_K:  1.146e-03  alpha:  4.285e-02  linmin:  6.367e-04  t[s]:   1694.36
	FillingsUpdate:  mu: +1.123641467  nElectrons: 345.000000  magneticMoment: [ Abs: 21.82032  Tot: -0.00000 ]
	SubspaceRotationAdjust: set factor to 0.0982
	SubspaceRotationAdjust: resetting CG because factor has changed by 0.0982289
ElecMinimize: 	State modified externally: resetting search direction.
ElecMinimize: Iter:   7  F: -1959.254203596912021  |grad|_K:  7.662e-04  alpha:  3.549e-03
ElecMinimize: 	Predicted alpha/alphaT>3.000000, increasing alphaT to 1.064679e-02.
ElecMinimize: 	Predicted alpha/alphaT>3.000000, increasing alphaT to 3.194036e-02.
ElecMinimize: 	Predicted alpha/alphaT>3.000000, increasing alphaT to 9.582107e-02.
	FillingsUpdate:  mu: +0.293029022  nElectrons: 345.000000  magneticMoment: [ Abs: 24.58358  Tot: +0.00000 ]
	SubspaceRotationAdjust: set factor to 0.0371
ElecMinimize: Iter:   8  F: -1972.789742938353129  |grad|_K:  2.377e-04  alpha:  1.138e-01  linmin:  8.378e-03  t[s]:   1899.31
	FillingsUpdate:  mu: +0.233547833  nElectrons: 345.000000  magneticMoment: [ Abs: 24.42169  Tot: -0.00000 ]
	SubspaceRotationAdjust: set factor to 0.0416
ElecMinimize: Iter:   9  F: -1975.130644297849358  |grad|_K:  1.090e-04  alpha:  2.494e-01  linmin: -2.117e-04  t[s]:   1967.24
	FillingsUpdate:  mu: +0.191788322  nElectrons: 345.000000  magneticMoment: [ Abs: 24.49757  Tot: -0.00000 ]
	SubspaceRotationAdjust: set factor to 0.0464
ElecMinimize: Iter:  10  F: -1975.725294165792093  |grad|_K:  6.194e-05  alpha:  2.873e-01  linmin:  5.488e-05  t[s]:   2036.10
	FillingsUpdate:  mu: +0.154672340  nElectrons: 345.000000  magneticMoment: [ Abs: 24.76918  Tot: -0.00000 ]
	SubspaceRotationAdjust: set factor to 0.0498
ElecMinimize: Iter:  11  F: -1975.964468555916937  |grad|_K:  4.636e-05  alpha:  3.593e-01  linmin: -6.164e-04  t[s]:   2104.36
	FillingsUpdate:  mu: +0.164310189  nElectrons: 345.000000  magneticMoment: [ Abs: 25.03273  Tot: -0.00000 ]
	SubspaceRotationAdjust: set factor to 0.0617
ElecMinimize: Iter:  12  F: -1976.117565679534437  |grad|_K:  3.671e-05  alpha:  3.890e-01  linmin: -3.185e-04  t[s]:   2173.41
	FillingsUpdate:  mu: +0.164281737  nElectrons: 345.000000  magneticMoment: [ Abs: 25.42864  Tot: +0.00000 ]
	SubspaceRotationAdjust: set factor to 0.0742
ElecMinimize: Iter:  13  F: -1976.234020726383505  |grad|_K:  3.796e-05  alpha:  4.720e-01  linmin: -1.929e-04  t[s]:   2241.75
	FillingsUpdate:  mu: +0.135573978  nElectrons: 345.000000  magneticMoment: [ Abs: 26.06301  Tot: -0.00000 ]
	SubspaceRotationAdjust: set factor to 0.0841
ElecMinimize: Iter:  14  F: -1976.361321136998413  |grad|_K:  3.995e-05  alpha:  4.782e-01  linmin: -1.848e-04  t[s]:   2310.43
	FillingsUpdate:  mu: +0.135979040  nElectrons: 345.000000  magneticMoment: [ Abs: 26.79155  Tot: +0.00000 ]
	SubspaceRotationAdjust: set factor to 0.0975
ElecMinimize: Iter:  15  F: -1976.496305723604110  |grad|_K:  4.061e-05  alpha:  4.475e-01  linmin: -2.056e-04  t[s]:   2379.20
	FillingsUpdate:  mu: +0.118767443  nElectrons: 345.000000  magneticMoment: [ Abs: 27.86285  Tot: +0.00000 ]
	SubspaceRotationAdjust: set factor to 0.108
ElecMinimize: Iter:  16  F: -1976.666117485317045  |grad|_K:  4.629e-05  alpha:  5.135e-01  linmin: -1.299e-04  t[s]:   2448.15
	FillingsUpdate:  mu: +0.115120598  nElectrons: 345.000000  magneticMoment: [ Abs: 28.36646  Tot: -0.00000 ]
	SubspaceRotationAdjust: set factor to 0.129
ElecMinimize: Iter:  17  F: -1976.775524575332156  |grad|_K:  4.249e-05  alpha:  1.681e-01  linmin: -7.416e-04  t[s]:   2517.06
	FillingsUpdate:  mu: +0.151776623  nElectrons: 345.000000  magneticMoment: [ Abs: 29.56855  Tot: -0.00000 ]
	SubspaceRotationAdjust: set factor to 0.0844
ElecMinimize: Iter:  18  F: -1976.880697743996052  |grad|_K:  1.004e-04  alpha:  3.138e-01  linmin:  9.891e-04  t[s]:   2585.46
ElecMinimize: 	Bad step direction: g.d > 0.
ElecMinimize: 	Undoing step.
ElecMinimize: 	Step failed: resetting search direction.
	FillingsUpdate:  mu: +0.151776623  nElectrons: 345.000000  magneticMoment: [ Abs: 29.56855  Tot: -0.00000 ]
	SubspaceRotationAdjust: set factor to 0.0619
ElecMinimize: Iter:  19  F: -1976.880697743995597  |grad|_K:  8.600e-05  alpha:  0.000e+00
	FillingsUpdate:  mu: +0.137722929  nElectrons: 345.000000  magneticMoment: [ Abs: 29.50508  Tot: -0.00000 ]
	SubspaceRotationAdjust: set factor to 0.0317
ElecMinimize: Iter:  20  F: -1977.037197036946736  |grad|_K:  3.447e-05  alpha:  1.570e-01  linmin:  7.902e-03  t[s]:   2703.34
ElecMinimize: 	Predicted alpha/alphaT>3.000000, increasing alphaT to 4.711391e-01.
	FillingsUpdate:  mu: +0.114623065  nElectrons: 345.000000  magneticMoment: [ Abs: 29.70808  Tot: -0.00000 ]
	SubspaceRotationAdjust: set factor to 0.0265
ElecMinimize: Iter:  21  F: -1977.124164140485846  |grad|_K:  2.780e-05  alpha:  4.724e-01  linmin:  1.898e-04  t[s]:   2790.72
	FillingsUpdate:  mu: +0.114654282  nElectrons: 345.000000  magneticMoment: [ Abs: 29.91399  Tot: +0.00000 ]
	SubspaceRotationAdjust: set factor to 0.0325
ElecMinimize: Iter:  22  F: -1977.182974619913921  |grad|_K:  2.488e-05  alpha:  4.436e-01  linmin: -1.676e-04  t[s]:   2860.15
	FillingsUpdate:  mu: +0.124382469  nElectrons: 345.000000  magneticMoment: [ Abs: 30.11640  Tot: +0.00000 ]
	SubspaceRotationAdjust: set factor to 0.0369
ElecMinimize: Iter:  23  F: -1977.230580328626729  |grad|_K:  1.876e-05  alpha:  4.336e-01  linmin: -2.980e-04  t[s]:   2929.41
	FillingsUpdate:  mu: +0.120276858  nElectrons: 345.000000  magneticMoment: [ Abs: 30.39850  Tot: -0.00000 ]
	SubspaceRotationAdjust: set factor to 0.0462
ElecMinimize: Iter:  24  F: -1977.261793985423992  |grad|_K:  1.749e-05  alpha:  4.929e-01  linmin: -1.800e-04  t[s]:   2998.67
	FillingsUpdate:  mu: +0.110370040  nElectrons: 345.000000  magneticMoment: [ Abs: 30.88949  Tot: -0.00000 ]
	SubspaceRotationAdjust: set factor to 0.053
ElecMinimize: Iter:  25  F: -1977.296297339048806  |grad|_K:  2.251e-05  alpha:  6.300e-01  linmin: -1.461e-04  t[s]:   3067.06
	FillingsUpdate:  mu: +0.112670638  nElectrons: 345.000000  magneticMoment: [ Abs: 31.64242  Tot: +0.00000 ]
	SubspaceRotationAdjust: set factor to 0.0585
ElecMinimize: Iter:  26  F: -1977.351325227967891  |grad|_K:  2.712e-05  alpha:  5.959e-01  linmin: -1.944e-04  t[s]:   3136.08
	FillingsUpdate:  mu: +0.135391724  nElectrons: 345.000000  magneticMoment: [ Abs: 32.37813  Tot: -0.00000 ]
	SubspaceRotationAdjust: set factor to 0.065
ElecMinimize: Iter:  27  F: -1977.418205230995000  |grad|_K:  2.960e-05  alpha:  4.819e-01  linmin: -1.489e-04  t[s]:   3204.79
	FillingsUpdate:  mu: +0.113390993  nElectrons: 345.000000  magneticMoment: [ Abs: 33.25410  Tot: -0.00000 ]
	SubspaceRotationAdjust: set factor to 0.0687
ElecMinimize: Iter:  28  F: -1977.506061982267966  |grad|_K:  3.201e-05  alpha:  5.268e-01  linmin: -1.103e-04  t[s]:   3273.27
	FillingsUpdate:  mu: +0.106865468  nElectrons: 345.000000  magneticMoment: [ Abs: 33.93936  Tot: +0.00000 ]
	SubspaceRotationAdjust: set factor to 0.0745
ElecMinimize: Iter:  29  F: -1977.589795142776211  |grad|_K:  3.211e-05  alpha:  4.356e-01  linmin: -3.782e-05  t[s]:   3341.34
ElecMinimize: 	Step increased F by 4.542171e-03, reducing alpha to 2.991934e-04.
ElecMinimize: 	Step increased F by 5.583788e-03, reducing alpha to 2.991934e-05.
ElecMinimize: 	Step increased F by 5.688328e-03, reducing alpha to 2.991934e-06.
ElecMinimize: 	Step failed to reduce F after 3 attempts. Quitting step.
ElecMinimize: 	Undoing step.
ElecMinimize: 	Step failed: resetting search direction.
	FillingsUpdate:  mu: +0.105863651  nElectrons: 345.000000  magneticMoment: [ Abs: 33.93980  Tot: +0.00000 ]
	SubspaceRotationAdjust: set factor to 0.0885
ElecMinimize: Iter:  30  F: -1977.584105653025063  |grad|_K:  3.252e-05  alpha:  2.992e-06
	FillingsUpdate:  mu: +0.120538497  nElectrons: 345.000000  magneticMoment: [ Abs: 33.98596  Tot: +0.00000 ]
	SubspaceRotationAdjust: set factor to 0.096
ElecMinimize: Iter:  31  F: -1977.626368385739397  |grad|_K:  1.963e-05  alpha:  2.269e-01  linmin: -6.671e-04  t[s]:   3607.06
	FillingsUpdate:  mu: +0.122450063  nElectrons: 345.000000  magneticMoment: [ Abs: 34.17379  Tot: +0.00000 ]
	SubspaceRotationAdjust: set factor to 0.104
ElecMinimize: Iter:  32  F: -1977.659701074633631  |grad|_K:  2.046e-05  alpha:  4.864e-01  linmin: -1.409e-03  t[s]:   3675.37
	FillingsUpdate:  mu: +0.116561390  nElectrons: 345.000000  magneticMoment: [ Abs: 34.34766  Tot: -0.00000 ]
	SubspaceRotationAdjust: set factor to 0.113
ElecMinimize: Iter:  33  F: -1977.687995533223329  |grad|_K:  1.516e-05  alpha:  3.752e-01  linmin: -7.397e-05  t[s]:   3743.41
	FillingsUpdate:  mu: +0.119120522  nElectrons: 345.000000  magneticMoment: [ Abs: 34.48674  Tot: +0.00000 ]
	SubspaceRotationAdjust: set factor to 0.12
ElecMinimize: Iter:  34  F: -1977.702713751698184  |grad|_K:  1.381e-05  alpha:  3.667e-01  linmin:  8.094e-05  t[s]:   3811.97
	FillingsUpdate:  mu: +0.116840845  nElectrons: 345.000000  magneticMoment: [ Abs: 34.72424  Tot: -0.00000 ]
	SubspaceRotationAdjust: set factor to 0.12
ElecMinimize: Iter:  35  F: -1977.714118347465501  |grad|_K:  1.099e-05  alpha:  3.450e-01  linmin: -3.415e-04  t[s]:   3879.82
	FillingsUpdate:  mu: +0.124617273  nElectrons: 345.000000  magneticMoment: [ Abs: 34.90643  Tot: +0.00000 ]
	SubspaceRotationAdjust: set factor to 0.106
ElecMinimize: Iter:  36  F: -1977.721307007564292  |grad|_K:  1.098e-05  alpha:  3.358e-01  linmin:  5.442e-04  t[s]:   3948.08
	FillingsUpdate:  mu: +0.116618160  nElectrons: 345.000000  magneticMoment: [ Abs: 35.19724  Tot: +0.00000 ]
	SubspaceRotationAdjust: set factor to 0.101
ElecMinimize: Iter:  37  F: -1977.728197059739841  |grad|_K:  9.877e-06  alpha:  3.403e-01  linmin: -2.658e-04  t[s]:   4016.67
	FillingsUpdate:  mu: +0.121648347  nElectrons: 345.000000  magneticMoment: [ Abs: 35.55003  Tot: +0.00000 ]
	SubspaceRotationAdjust: set factor to 0.105
ElecMinimize: Iter:  38  F: -1977.735552879732722  |grad|_K:  9.816e-06  alpha:  4.292e-01  linmin:  4.726e-04  t[s]:   4084.73
	FillingsUpdate:  mu: +0.122646260  nElectrons: 345.000000  magneticMoment: [ Abs: 35.96874  Tot: +0.00000 ]
	SubspaceRotationAdjust: set factor to 0.123
ElecMinimize: Iter:  39  F: -1977.742872765938728  |grad|_K:  9.843e-06  alpha:  4.599e-01  linmin: -1.227e-04  t[s]:   4153.13
	FillingsUpdate:  mu: +0.123333160  nElectrons: 345.000000  magneticMoment: [ Abs: 36.45260  Tot: +0.00000 ]
	SubspaceRotationAdjust: set factor to 0.135
ElecMinimize: Iter:  40  F: -1977.751769056424564  |grad|_K:  9.585e-06  alpha:  5.180e-01  linmin: -4.867e-05  t[s]:   4221.76
	FillingsUpdate:  mu: +0.124495080  nElectrons: 345.000000  magneticMoment: [ Abs: 36.86961  Tot: -0.00000 ]
	SubspaceRotationAdjust: set factor to 0.149
ElecMinimize: Iter:  41  F: -1977.758437861675020  |grad|_K:  9.489e-06  alpha:  4.117e-01  linmin:  4.006e-05  t[s]:   4290.00
	FillingsUpdate:  mu: +0.117269358  nElectrons: 345.000000  magneticMoment: [ Abs: 37.17650  Tot: -0.00000 ]
	SubspaceRotationAdjust: set factor to 0.122
ElecMinimize: Iter:  42  F: -1977.762831592983275  |grad|_K:  1.039e-05  alpha:  2.531e-01  linmin: -5.717e-04  t[s]:   4358.87
	FillingsUpdate:  mu: +0.111987375  nElectrons: 345.000000  magneticMoment: [ Abs: 37.62237  Tot: -0.00000 ]
	SubspaceRotationAdjust: set factor to 0.0991
ElecMinimize: Iter:  43  F: -1977.767538411311534  |grad|_K:  1.245e-05  alpha:  2.038e-01  linmin:  4.097e-04  t[s]:   4427.98
	FillingsUpdate:  mu: +0.110136602  nElectrons: 345.000000  magneticMoment: [ Abs: 37.83447  Tot: +0.00000 ]
	SubspaceRotationAdjust: set factor to 0.0737
ElecMinimize: Iter:  44  F: -1977.769281359701154  |grad|_K:  1.430e-05  alpha:  4.613e-02  linmin: -2.818e-03  t[s]:   4496.72
	FillingsUpdate:  mu: +0.108926588  nElectrons: 345.000000  magneticMoment: [ Abs: 38.92017  Tot: -0.00000 ]
	SubspaceRotationAdjust: set factor to 0.0449
ElecMinimize: Iter:  45  F: -1977.774581803336787  |grad|_K:  2.808e-05  alpha:  1.378e-01  linmin:  2.002e-03  t[s]:   4565.76
	FillingsUpdate:  mu: +0.110918409  nElectrons: 345.000000  magneticMoment: [ Abs: 39.11092  Tot: -0.00000 ]
	SubspaceRotationAdjust: set factor to 0.0315
ElecMinimize: Iter:  46  F: -1977.775801636620145  |grad|_K:  2.406e-05  alpha:  6.660e-03  linmin: -3.681e-04  t[s]:   4635.57
	FillingsUpdate:  mu: +0.114107259  nElectrons: 345.000000  magneticMoment: [ Abs: 39.39737  Tot: +0.00000 ]
	SubspaceRotationAdjust: set factor to 0.0281
ElecMinimize: Iter:  47  F: -1977.777513335543290  |grad|_K:  2.080e-05  alpha:  1.611e-02  linmin:  1.887e-04  t[s]:   4704.42
	FillingsUpdate:  mu: +0.115359532  nElectrons: 345.000000  magneticMoment: [ Abs: 39.56994  Tot: +0.00000 ]
	SubspaceRotationAdjust: set factor to 0.0298
ElecMinimize: Iter:  48  F: -1977.778730358279745  |grad|_K:  1.899e-05  alpha:  1.683e-02  linmin: -3.948e-04  t[s]:   4772.94
	FillingsUpdate:  mu: +0.114772585  nElectrons: 345.000000  magneticMoment: [ Abs: 39.76573  Tot: -0.00000 ]
	SubspaceRotationAdjust: set factor to 0.0331
ElecMinimize: Iter:  49  F: -1977.781064625263753  |grad|_K:  1.700e-05  alpha:  3.030e-02  linmin: -1.183e-03  t[s]:   4841.33
	FillingsUpdate:  mu: +0.111322400  nElectrons: 345.000000  magneticMoment: [ Abs: 39.97039  Tot: -0.00000 ]
	SubspaceRotationAdjust: set factor to 0.0347
ElecMinimize: Iter:  50  F: -1977.784466513834559  |grad|_K:  1.432e-05  alpha:  5.301e-02  linmin: -1.874e-04  t[s]:   4910.07
	FillingsUpdate:  mu: +0.106717944  nElectrons: 345.000000  magneticMoment: [ Abs: 40.07346  Tot: +0.00000 ]
	SubspaceRotationAdjust: set factor to 0.0392
ElecMinimize: Iter:  51  F: -1977.786182192792239  |grad|_K:  1.302e-05  alpha:  4.650e-02  linmin: -2.315e-05  t[s]:   4979.19
	FillingsUpdate:  mu: +0.104426106  nElectrons: 345.000000  magneticMoment: [ Abs: 40.14404  Tot: -0.00000 ]
	SubspaceRotationAdjust: set factor to 0.05
ElecMinimize: Iter:  52  F: -1977.787514536058325  |grad|_K:  1.243e-05  alpha:  4.496e-02  linmin: -8.068e-06  t[s]:   5048.07
	FillingsUpdate:  mu: +0.103753185  nElectrons: 345.000000  magneticMoment: [ Abs: 40.19413  Tot: +0.00000 ]
	SubspaceRotationAdjust: set factor to 0.0673
ElecMinimize: Iter:  53  F: -1977.788632930829635  |grad|_K:  1.224e-05  alpha:  4.147e-02  linmin:  2.138e-05  t[s]:   5116.55
	FillingsUpdate:  mu: +0.102359568  nElectrons: 345.000000  magneticMoment: [ Abs: 40.22884  Tot: +0.00000 ]
	SubspaceRotationAdjust: set factor to 0.0846
ElecMinimize: Iter:  54  F: -1977.789555145238182  |grad|_K:  1.236e-05  alpha:  3.529e-02  linmin:  1.980e-05  t[s]:   5185.21
	FillingsUpdate:  mu: +0.106224780  nElectrons: 345.000000  magneticMoment: [ Abs: 40.25604  Tot: -0.00000 ]
	SubspaceRotationAdjust: set factor to 0.0922
ElecMinimize: Iter:  55  F: -1977.790356039520475  |grad|_K:  1.278e-05  alpha:  3.012e-02  linmin:  6.201e-06  t[s]:   5253.92
	FillingsUpdate:  mu: +0.111930895  nElectrons: 345.000000  magneticMoment: [ Abs: 40.28395  Tot: -0.00000 ]
	SubspaceRotationAdjust: set factor to 0.0891
ElecMinimize: Iter:  56  F: -1977.791134319015555  |grad|_K:  1.335e-05  alpha:  2.738e-02  linmin: -1.883e-05  t[s]:   5322.56
	FillingsUpdate:  mu: +0.115899502  nElectrons: 345.000000  magneticMoment: [ Abs: 40.31984  Tot: +0.00000 ]
	SubspaceRotationAdjust: set factor to 0.0822
ElecMinimize: Iter:  57  F: -1977.791972580284437  |grad|_K:  1.374e-05  alpha:  2.696e-02  linmin: -5.182e-05  t[s]:   5391.19
	FillingsUpdate:  mu: +0.118472156  nElectrons: 345.000000  magneticMoment: [ Abs: 40.36855  Tot: -0.00000 ]
	SubspaceRotationAdjust: set factor to 0.0799
ElecMinimize: Iter:  58  F: -1977.792901394899218  |grad|_K:  1.381e-05  alpha:  2.803e-02  linmin: -6.530e-05  t[s]:   5459.68
	FillingsUpdate:  mu: +0.117620813  nElectrons: 345.000000  magneticMoment: [ Abs: 40.42996  Tot: -0.00000 ]
	SubspaceRotationAdjust: set factor to 0.0883
ElecMinimize: Iter:  59  F: -1977.793882027181780  |grad|_K:  1.381e-05  alpha:  2.920e-02  linmin: -5.590e-05  t[s]:   5528.44
	FillingsUpdate:  mu: +0.113530152  nElectrons: 345.000000  magneticMoment: [ Abs: 40.50025  Tot: -0.00000 ]
	SubspaceRotationAdjust: set factor to 0.11
ElecMinimize: Iter:  60  F: -1977.794866390069728  |grad|_K:  1.412e-05  alpha:  2.935e-02  linmin: -5.443e-05  t[s]:   5596.80
	FillingsUpdate:  mu: +0.108114354  nElectrons: 345.000000  magneticMoment: [ Abs: 40.57681  Tot: +0.00000 ]
	SubspaceRotationAdjust: set factor to 0.138
ElecMinimize: Iter:  61  F: -1977.795868957814491  |grad|_K:  1.501e-05  alpha:  2.856e-02  linmin: -6.606e-05  t[s]:   5665.00
	FillingsUpdate:  mu: +0.110437707  nElectrons: 345.000000  magneticMoment: [ Abs: 40.65919  Tot: -0.00000 ]
	SubspaceRotationAdjust: set factor to 0.16
ElecMinimize: Iter:  62  F: -1977.796964954063014  |grad|_K:  1.647e-05  alpha:  2.756e-02  linmin: -8.051e-05  t[s]:   5733.56
	FillingsUpdate:  mu: +0.112423437  nElectrons: 345.000000  magneticMoment: [ Abs: 40.74512  Tot: -0.00000 ]
	SubspaceRotationAdjust: set factor to 0.177
ElecMinimize: Iter:  63  F: -1977.798244058587898  |grad|_K:  1.803e-05  alpha:  2.658e-02  linmin: -8.641e-05  t[s]:   5801.87
	FillingsUpdate:  mu: +0.112910380  nElectrons: 345.000000  magneticMoment: [ Abs: 40.82554  Tot: +0.00000 ]
	SubspaceRotationAdjust: set factor to 0.206
ElecMinimize: Iter:  64  F: -1977.799703788120496  |grad|_K:  1.906e-05  alpha:  2.522e-02  linmin: -7.478e-05  t[s]:   5870.47
	FillingsUpdate:  mu: +0.112759363  nElectrons: 345.000000  magneticMoment: [ Abs: 40.88998  Tot: +0.00000 ]
	SubspaceRotationAdjust: set factor to 0.264
ElecMinimize: Iter:  65  F: -1977.801210228861009  |grad|_K:  1.967e-05  alpha:  2.330e-02  linmin: -5.117e-05  t[s]:   5938.42
	FillingsUpdate:  mu: +0.116520768  nElectrons: 345.000000  magneticMoment: [ Abs: 40.93695  Tot: +0.00000 ]
	SubspaceRotationAdjust: set factor to 0.328
ElecMinimize: Iter:  66  F: -1977.802640899305288  |grad|_K:  2.076e-05  alpha:  2.086e-02  linmin: -2.902e-05  t[s]:   6006.63
	FillingsUpdate:  mu: +0.118374087  nElectrons: 345.000000  magneticMoment: [ Abs: 40.97647  Tot: -0.00000 ]
	SubspaceRotationAdjust: set factor to 0.333
ElecMinimize: Iter:  67  F: -1977.804049600770213  |grad|_K:  2.313e-05  alpha:  1.855e-02  linmin: -2.367e-05  t[s]:   6075.12
	FillingsUpdate:  mu: +0.120376453  nElectrons: 345.000000  magneticMoment: [ Abs: 41.02493  Tot: -0.00000 ]
	SubspaceRotationAdjust: set factor to 0.306
ElecMinimize: Iter:  68  F: -1977.805637861502191  |grad|_K:  2.521e-05  alpha:  1.690e-02  linmin: -3.577e-05  t[s]:   6143.50
	FillingsUpdate:  mu: +0.126162713  nElectrons: 345.000000  magneticMoment: [ Abs: 41.09134  Tot: -0.00000 ]
	SubspaceRotationAdjust: set factor to 0.314
ElecMinimize: Iter:  69  F: -1977.807416084238639  |grad|_K:  2.474e-05  alpha:  1.585e-02  linmin: -4.496e-05  t[s]:   6212.13
	FillingsUpdate:  mu: +0.129358779  nElectrons: 345.000000  magneticMoment: [ Abs: 41.16660  Tot: +0.00000 ]
	SubspaceRotationAdjust: set factor to 0.435
ElecMinimize: Iter:  70  F: -1977.809093367880905  |grad|_K:  2.317e-05  alpha:  1.544e-02  linmin: -4.200e-05  t[s]:   6280.55
	FillingsUpdate:  mu: +0.120447907  nElectrons: 345.000000  magneticMoment: [ Abs: 41.24100  Tot: -0.00000 ]
	SubspaceRotationAdjust: set factor to 0.542
ElecMinimize: Iter:  71  F: -1977.810597263621503  |grad|_K:  2.368e-05  alpha:  1.579e-02  linmin: -4.620e-05  t[s]:   6348.93
	FillingsUpdate:  mu: +0.122777031  nElectrons: 345.000000  magneticMoment: [ Abs: 41.31614  Tot: -0.00000 ]
	SubspaceRotationAdjust: set factor to 0.577
ElecMinimize: Iter:  72  F: -1977.812277842303729  |grad|_K:  2.693e-05  alpha:  1.682e-02  linmin: -6.468e-05  t[s]:   6417.12
	FillingsUpdate:  mu: +0.128825435  nElectrons: 345.000000  magneticMoment: [ Abs: 41.38066  Tot: -0.00000 ]
	SubspaceRotationAdjust: set factor to 0.573
ElecMinimize: Iter:  73  F: -1977.814581973311078  |grad|_K:  2.835e-05  alpha:  1.766e-02  linmin: -6.892e-05  t[s]:   6485.57
	FillingsUpdate:  mu: +0.126883838  nElectrons: 345.000000  magneticMoment: [ Abs: 41.39722  Tot: +0.00000 ]
	SubspaceRotationAdjust: set factor to 0.841
	SubspaceRotationAdjust: resetting CG because factor has changed by 8.56579
ElecMinimize: 	State modified externally: resetting search direction.
ElecMinimize: Iter:  74  F: -1977.816695049482178  |grad|_K:  2.503e-05  alpha:  1.462e-02
ElecMinimize: 	Predicted alpha/alphaT>3.000000, increasing alphaT to 4.385929e-02.
	FillingsUpdate:  mu: +0.122783045  nElectrons: 345.000000  magneticMoment: [ Abs: 41.24900  Tot: -0.00000 ]
	SubspaceRotationAdjust: set factor to 0.478
ElecMinimize: Iter:  75  F: -1977.823428398316537  |grad|_K:  4.793e-05  alpha:  6.517e-02  linmin:  2.127e-03  t[s]:   6671.88
	FillingsUpdate:  mu: +0.123380007  nElectrons: 345.000000  magneticMoment: [ Abs: 41.14029  Tot: +0.00000 ]
	SubspaceRotationAdjust: set factor to 0.313
ElecMinimize: Iter:  76  F: -1977.850811481306664  |grad|_K:  3.522e-05  alpha:  7.851e-02  linmin: -1.651e-04  t[s]:   6739.93
	FillingsUpdate:  mu: +0.125924517  nElectrons: 345.000000  magneticMoment: [ Abs: 41.24847  Tot: -0.00000 ]
	SubspaceRotationAdjust: set factor to 0.202
ElecMinimize: Iter:  77  F: -1977.856721953528449  |grad|_K:  2.176e-05  alpha:  3.182e-02  linmin:  1.091e-03  t[s]:   6808.26
ElecMinimize: 	Predicted alpha/alphaT>3.000000, increasing alphaT to 9.545343e-02.
	FillingsUpdate:  mu: +0.130611826  nElectrons: 345.000000  magneticMoment: [ Abs: 41.28717  Tot: +0.00000 ]
	SubspaceRotationAdjust: set factor to 0.138
ElecMinimize: Iter:  78  F: -1977.868085978758927  |grad|_K:  2.146e-05  alpha:  1.525e-01  linmin: -2.461e-04  t[s]:   6895.32
	FillingsUpdate:  mu: +0.125408327  nElectrons: 345.000000  magneticMoment: [ Abs: 41.21284  Tot: -0.00000 ]
	SubspaceRotationAdjust: set factor to 0.146
ElecMinimize: Iter:  79  F: -1977.875064273108137  |grad|_K:  1.269e-05  alpha:  8.351e-02  linmin: -1.107e-04  t[s]:   6963.29
	FillingsUpdate:  mu: +0.128646487  nElectrons: 345.000000  magneticMoment: [ Abs: 41.19227  Tot: +0.00000 ]
	SubspaceRotationAdjust: set factor to 0.106
	SubspaceRotationAdjust: resetting CG because factor has changed by 0.126568
ElecMinimize: 	State modified externally: resetting search direction.
ElecMinimize: Iter:  80  F: -1977.879437489380052  |grad|_K:  1.012e-05  alpha:  1.544e-01
	FillingsUpdate:  mu: +0.121248590  nElectrons: 345.000000  magneticMoment: [ Abs: 41.23750  Tot: -0.00000 ]
	SubspaceRotationAdjust: set factor to 0.101
ElecMinimize: Iter:  81  F: -1977.881775319762710  |grad|_K:  4.226e-06  alpha:  1.322e-01  linmin: -2.965e-03  t[s]:   7130.07
ElecMinimize: 	Predicted alpha/alphaT>3.000000, increasing alphaT to 3.964727e-01.
	FillingsUpdate:  mu: +0.120695271  nElectrons: 345.000000  magneticMoment: [ Abs: 41.21809  Tot: +0.00000 ]
	SubspaceRotationAdjust: set factor to 0.105
ElecMinimize: Iter:  82  F: -1977.883297866490011  |grad|_K:  4.028e-06  alpha:  4.822e-01  linmin:  6.593e-05  t[s]:   7217.28
	FillingsUpdate:  mu: +0.119672133  nElectrons: 345.000000  magneticMoment: [ Abs: 41.21454  Tot: +0.00000 ]
	SubspaceRotationAdjust: set factor to 0.119
ElecMinimize: Iter:  83  F: -1977.884507233009572  |grad|_K:  3.447e-06  alpha:  4.286e-01  linmin:  8.778e-06  t[s]:   7285.88
	FillingsUpdate:  mu: +0.119760029  nElectrons: 345.000000  magneticMoment: [ Abs: 41.21651  Tot: -0.00000 ]
	SubspaceRotationAdjust: set factor to 0.131
ElecMinimize: Iter:  84  F: -1977.885471751086470  |grad|_K:  3.022e-06  alpha:  4.664e-01  linmin: -1.125e-05  t[s]:   7354.27
	FillingsUpdate:  mu: +0.121189444  nElectrons: 345.000000  magneticMoment: [ Abs: 41.21068  Tot: +0.00000 ]
	SubspaceRotationAdjust: set factor to 0.143
ElecMinimize: Iter:  85  F: -1977.885962787477183  |grad|_K:  2.351e-06  alpha:  3.084e-01  linmin:  9.525e-06  t[s]:   7422.45
	FillingsUpdate:  mu: +0.120203306  nElectrons: 345.000000  magneticMoment: [ Abs: 41.21891  Tot: +0.00000 ]
	SubspaceRotationAdjust: set factor to 0.132
ElecMinimize: Iter:  86  F: -1977.886273555457819  |grad|_K:  2.283e-06  alpha:  3.227e-01  linmin: -1.599e-04  t[s]:   7490.62
	FillingsUpdate:  mu: +0.121454783  nElectrons: 345.000000  magneticMoment: [ Abs: 41.20946  Tot: +0.00000 ]
	SubspaceRotationAdjust: set factor to 0.112
ElecMinimize: Iter:  87  F: -1977.886523462100513  |grad|_K:  2.084e-06  alpha:  2.732e-01  linmin:  1.496e-05  t[s]:   7558.86
	FillingsUpdate:  mu: +0.120557322  nElectrons: 345.000000  magneticMoment: [ Abs: 41.21607  Tot: +0.00000 ]
	SubspaceRotationAdjust: set factor to 0.117
ElecMinimize: Iter:  88  F: -1977.886811124849373  |grad|_K:  2.079e-06  alpha:  3.785e-01  linmin: -1.658e-04  t[s]:   7627.40
	FillingsUpdate:  mu: +0.120246771  nElectrons: 345.000000  magneticMoment: [ Abs: 41.21558  Tot: -0.00000 ]
	SubspaceRotationAdjust: set factor to 0.131
ElecMinimize: Iter:  89  F: -1977.887172884753682  |grad|_K:  2.051e-06  alpha:  4.728e-01  linmin: -1.519e-05  t[s]:   7696.03
	FillingsUpdate:  mu: +0.120881742  nElectrons: 345.000000  magneticMoment: [ Abs: 41.20830  Tot: +0.00000 ]
	SubspaceRotationAdjust: set factor to 0.134
ElecMinimize: Iter:  90  F: -1977.887493135834802  |grad|_K:  2.131e-06  alpha:  4.364e-01  linmin:  1.453e-05  t[s]:   7764.45
	FillingsUpdate:  mu: +0.120770354  nElectrons: 345.000000  magneticMoment: [ Abs: 41.21071  Tot: +0.00000 ]
	SubspaceRotationAdjust: set factor to 0.119
ElecMinimize: Iter:  91  F: -1977.887752986676105  |grad|_K:  1.896e-06  alpha:  3.312e-01  linmin: -4.167e-05  t[s]:   7832.47
	FillingsUpdate:  mu: +0.121712288  nElectrons: 345.000000  magneticMoment: [ Abs: 41.20447  Tot: +0.00000 ]
	SubspaceRotationAdjust: set factor to 0.105
ElecMinimize: Iter:  92  F: -1977.887964252088295  |grad|_K:  1.785e-06  alpha:  3.361e-01  linmin: -3.832e-05  t[s]:   7900.93
	FillingsUpdate:  mu: +0.121722500  nElectrons: 345.000000  magneticMoment: [ Abs: 41.20803  Tot: +0.00000 ]
	SubspaceRotationAdjust: set factor to 0.127
ElecMinimize: Iter:  93  F: -1977.888174165124383  |grad|_K:  1.572e-06  alpha:  3.766e-01  linmin: -1.137e-05  t[s]:   7968.86
	FillingsUpdate:  mu: +0.122012114  nElectrons: 345.000000  magneticMoment: [ Abs: 41.21598  Tot: -0.00000 ]
	SubspaceRotationAdjust: set factor to 0.14
ElecMinimize: Iter:  94  F: -1977.888376098451090  |grad|_K:  1.704e-06  alpha:  4.685e-01  linmin: -2.440e-05  t[s]:   8036.50
	FillingsUpdate:  mu: +0.121870660  nElectrons: 345.000000  magneticMoment: [ Abs: 41.22303  Tot: +0.00000 ]
	SubspaceRotationAdjust: set factor to 0.135
ElecMinimize: Iter:  95  F: -1977.888566139596833  |grad|_K:  1.710e-06  alpha:  3.728e-01  linmin:  2.156e-05  t[s]:   8105.41
	FillingsUpdate:  mu: +0.121321984  nElectrons: 345.000000  magneticMoment: [ Abs: 41.24602  Tot: +0.00000 ]
	SubspaceRotationAdjust: set factor to 0.152
ElecMinimize: Iter:  96  F: -1977.888749355858863  |grad|_K:  1.631e-06  alpha:  3.603e-01  linmin:  1.578e-04  t[s]:   8173.75
	FillingsUpdate:  mu: +0.120565394  nElectrons: 345.000000  magneticMoment: [ Abs: 41.27371  Tot: +0.00000 ]
	SubspaceRotationAdjust: set factor to 0.2
ElecMinimize: Iter:  97  F: -1977.888931654024873  |grad|_K:  1.752e-06  alpha:  4.018e-01  linmin:  2.987e-05  t[s]:   8242.79
	FillingsUpdate:  mu: +0.119202271  nElectrons: 345.000000  magneticMoment: [ Abs: 41.30429  Tot: +0.00000 ]
	SubspaceRotationAdjust: set factor to 0.222
ElecMinimize: Iter:  98  F: -1977.889121042261422  |grad|_K:  1.830e-06  alpha:  3.558e-01  linmin: -2.330e-05  t[s]:   8310.83
	FillingsUpdate:  mu: +0.118897202  nElectrons: 345.000000  magneticMoment: [ Abs: 41.35513  Tot: -0.00000 ]
	SubspaceRotationAdjust: set factor to 0.271
ElecMinimize: Iter:  99  F: -1977.889338782597179  |grad|_K:  1.972e-06  alpha:  3.723e-01  linmin:  4.193e-05  t[s]:   8379.01
	FillingsUpdate:  mu: +0.118027981  nElectrons: 345.000000  magneticMoment: [ Abs: 41.40170  Tot: +0.00000 ]
	SubspaceRotationAdjust: set factor to 0.285
ElecMinimize: Iter: 100  F: -1977.889529969615751  |grad|_K:  2.095e-06  alpha:  2.798e-01  linmin:  1.952e-05  t[s]:   8447.43
	FillingsUpdate:  mu: +0.118540203  nElectrons: 345.000000  magneticMoment: [ Abs: 41.44014  Tot: -0.00000 ]
	SubspaceRotationAdjust: set factor to 0.336
ElecMinimize: Iter: 101  F: -1977.889703132862905  |grad|_K:  2.080e-06  alpha:  2.273e-01  linmin: -4.286e-05  t[s]:   8515.97
	FillingsUpdate:  mu: +0.119186451  nElectrons: 345.000000  magneticMoment: [ Abs: 41.48633  Tot: -0.00000 ]
	SubspaceRotationAdjust: set factor to 0.452
ElecMinimize: Iter: 102  F: -1977.889904001795230  |grad|_K:  1.827e-06  alpha:  2.623e-01  linmin: -4.650e-04  t[s]:   8584.30
	FillingsUpdate:  mu: +0.119926081  nElectrons: 345.000000  magneticMoment: [ Abs: 41.53258  Tot: -0.00000 ]
	SubspaceRotationAdjust: set factor to 0.343
ElecMinimize: Iter: 103  F: -1977.890084163292386  |grad|_K:  2.716e-06  alpha:  2.960e-01  linmin:  2.542e-04  t[s]:   8652.84
	FillingsUpdate:  mu: +0.121094908  nElectrons: 345.000000  magneticMoment: [ Abs: 41.55451  Tot: -0.00000 ]
	SubspaceRotationAdjust: set factor to 0.409
ElecMinimize: Iter: 104  F: -1977.890200974854679  |grad|_K:  2.205e-06  alpha:  6.562e-02  linmin: -2.243e-03  t[s]:   8721.26
	FillingsUpdate:  mu: +0.124061878  nElectrons: 345.000000  magneticMoment: [ Abs: 41.60777  Tot: +0.00000 ]
	SubspaceRotationAdjust: set factor to 0.253
ElecMinimize: Iter: 105  F: -1977.890409005244010  |grad|_K:  4.197e-06  alpha:  1.756e-01  linmin:  4.278e-05  t[s]:   8789.89
	FillingsUpdate:  mu: +0.126640383  nElectrons: 345.000000  magneticMoment: [ Abs: 41.67612  Tot: -0.00000 ]
	SubspaceRotationAdjust: set factor to 0.186
ElecMinimize: Iter: 106  F: -1977.890651288606477  |grad|_K:  4.547e-06  alpha:  5.325e-02  linmin: -1.278e-03  t[s]:   8858.44
	FillingsUpdate:  mu: +0.129238091  nElectrons: 345.000000  magneticMoment: [ Abs: 41.81971  Tot: +0.00000 ]
	SubspaceRotationAdjust: set factor to 0.139
ElecMinimize: Iter: 107  F: -1977.890993675917116  |grad|_K:  7.042e-06  alpha:  8.438e-02  linmin:  1.296e-03  t[s]:   8927.18
	FillingsUpdate:  mu: +0.129499743  nElectrons: 345.000000  magneticMoment: [ Abs: 41.83717  Tot: -0.00000 ]
	SubspaceRotationAdjust: set factor to 0.112
ElecMinimize: Iter: 108  F: -1977.891007046851882  |grad|_K:  6.808e-06  alpha:  4.187e-03  linmin: -9.442e-05  t[s]:   8995.93
ElecMinimize: 	Predicted alpha/alphaT>3.000000, increasing alphaT to 1.256016e-02.
	FillingsUpdate:  mu: +0.129313640  nElectrons: 345.000000  magneticMoment: [ Abs: 41.93166  Tot: -0.00000 ]
	SubspaceRotationAdjust: set factor to 0.0906
ElecMinimize: Iter: 109  F: -1977.891197887945054  |grad|_K:  7.696e-06  alpha:  2.469e-02  linmin:  2.883e-04  t[s]:   9083.58
	FillingsUpdate:  mu: +0.129339226  nElectrons: 345.000000  magneticMoment: [ Abs: 41.98188  Tot: +0.00000 ]
	SubspaceRotationAdjust: set factor to 0.0776
ElecMinimize: Iter: 110  F: -1977.891298220410590  |grad|_K:  7.622e-06  alpha:  1.160e-02  linmin: -1.498e-05  t[s]:   9152.94
	FillingsUpdate:  mu: +0.129811376  nElectrons: 345.000000  magneticMoment: [ Abs: 42.03720  Tot: +0.00000 ]
	SubspaceRotationAdjust: set factor to 0.0716
ElecMinimize: Iter: 111  F: -1977.891445612512598  |grad|_K:  7.377e-06  alpha:  1.447e-02  linmin:  1.420e-05  t[s]:   9221.57
	FillingsUpdate:  mu: +0.129907351  nElectrons: 345.000000  magneticMoment: [ Abs: 42.08280  Tot: -0.00000 ]
	SubspaceRotationAdjust: set factor to 0.0728
ElecMinimize: Iter: 112  F: -1977.891576453696416  |grad|_K:  7.028e-06  alpha:  1.394e-02  linmin:  3.688e-06  t[s]:   9289.43
	FillingsUpdate:  mu: +0.129539150  nElectrons: 345.000000  magneticMoment: [ Abs: 42.12149  Tot: -0.00000 ]
	SubspaceRotationAdjust: set factor to 0.0828
ElecMinimize: Iter: 113  F: -1977.891692618334673  |grad|_K:  6.722e-06  alpha:  1.353e-02  linmin:  1.185e-05  t[s]:   9357.57
	FillingsUpdate:  mu: +0.128360938  nElectrons: 345.000000  magneticMoment: [ Abs: 42.15367  Tot: +0.00000 ]
	SubspaceRotationAdjust: set factor to 0.104
ElecMinimize: Iter: 114  F: -1977.891788471382824  |grad|_K:  6.535e-06  alpha:  1.224e-02  linmin:  1.518e-05  t[s]:   9425.84
	FillingsUpdate:  mu: +0.126423370  nElectrons: 345.000000  magneticMoment: [ Abs: 42.18022  Tot: +0.00000 ]
	SubspaceRotationAdjust: set factor to 0.141
ElecMinimize: Iter: 115  F: -1977.891866439930482  |grad|_K:  6.454e-06  alpha:  1.053e-02  linmin:  1.545e-05  t[s]:   9494.07
	FillingsUpdate:  mu: +0.124038033  nElectrons: 345.000000  magneticMoment: [ Abs: 42.20204  Tot: +0.00000 ]
	SubspaceRotationAdjust: set factor to 0.189
ElecMinimize: Iter: 116  F: -1977.891929692752910  |grad|_K:  6.448e-06  alpha:  8.746e-03  linmin:  1.434e-05  t[s]:   9562.49
	FillingsUpdate:  mu: +0.121639154  nElectrons: 345.000000  magneticMoment: [ Abs: 42.22014  Tot: -0.00000 ]
	SubspaceRotationAdjust: set factor to 0.252
ElecMinimize: Iter: 117  F: -1977.891981516541591  |grad|_K:  6.463e-06  alpha:  7.174e-03  linmin:  1.282e-05  t[s]:   9631.05
	FillingsUpdate:  mu: +0.119588033  nElectrons: 345.000000  magneticMoment: [ Abs: 42.23555  Tot: +0.00000 ]
	SubspaceRotationAdjust: set factor to 0.337
ElecMinimize: Iter: 118  F: -1977.892025379783718  |grad|_K:  6.563e-06  alpha:  6.049e-03  linmin:  1.236e-05  t[s]:   9699.06
	FillingsUpdate:  mu: +0.118532380  nElectrons: 345.000000  magneticMoment: [ Abs: 42.24913  Tot: +0.00000 ]
	SubspaceRotationAdjust: set factor to 0.395
ElecMinimize: Iter: 119  F: -1977.892064485483843  |grad|_K:  6.845e-06  alpha:  5.236e-03  linmin:  1.071e-05  t[s]:   9767.22
	FillingsUpdate:  mu: +0.118393597  nElectrons: 345.000000  magneticMoment: [ Abs: 42.26157  Tot: -0.00000 ]
	SubspaceRotationAdjust: set factor to 0.408
ElecMinimize: Iter: 120  F: -1977.892101931476645  |grad|_K:  7.181e-06  alpha:  4.610e-03  linmin:  8.304e-06  t[s]:   9834.96
	FillingsUpdate:  mu: +0.119048304  nElectrons: 345.000000  magneticMoment: [ Abs: 42.27331  Tot: -0.00000 ]
	SubspaceRotationAdjust: set factor to 0.38
ElecMinimize: Iter: 121  F: -1977.892140535738918  |grad|_K:  7.507e-06  alpha:  4.317e-03  linmin:  6.664e-06  t[s]:   9903.05
	FillingsUpdate:  mu: +0.119802251  nElectrons: 345.000000  magneticMoment: [ Abs: 42.28447  Tot: +0.00000 ]
	SubspaceRotationAdjust: set factor to 0.332
ElecMinimize: Iter: 122  F: -1977.892182374359891  |grad|_K:  7.717e-06  alpha:  4.279e-03  linmin:  4.071e-06  t[s]:   9971.65
	FillingsUpdate:  mu: +0.120001365  nElectrons: 345.000000  magneticMoment: [ Abs: 42.29487  Tot: -0.00000 ]
	SubspaceRotationAdjust: set factor to 0.282
ElecMinimize: Iter: 123  F: -1977.892228510508403  |grad|_K:  7.734e-06  alpha:  4.459e-03  linmin:  6.663e-07  t[s]:  10039.90
	FillingsUpdate:  mu: +0.120063639  nElectrons: 345.000000  magneticMoment: [ Abs: 42.30414  Tot: -0.00000 ]
	SubspaceRotationAdjust: set factor to 0.241
ElecMinimize: Iter: 124  F: -1977.892278673856708  |grad|_K:  7.548e-06  alpha:  4.817e-03  linmin: -3.356e-06  t[s]:  10107.86
	FillingsUpdate:  mu: +0.120541998  nElectrons: 345.000000  magneticMoment: [ Abs: 42.31190  Tot: +0.00000 ]
	SubspaceRotationAdjust: set factor to 0.213
ElecMinimize: Iter: 125  F: -1977.892331413921966  |grad|_K:  7.215e-06  alpha:  5.305e-03  linmin: -7.570e-06  t[s]:  10175.60
	FillingsUpdate:  mu: +0.121505967  nElectrons: 345.000000  magneticMoment: [ Abs: 42.31794  Tot: -0.00000 ]
	SubspaceRotationAdjust: set factor to 0.201
ElecMinimize: Iter: 126  F: -1977.892384700581715  |grad|_K:  6.825e-06  alpha:  5.852e-03  linmin: -1.140e-05  t[s]:  10243.43
	FillingsUpdate:  mu: +0.122604937  nElectrons: 345.000000  magneticMoment: [ Abs: 42.32230  Tot: +0.00000 ]
	SubspaceRotationAdjust: set factor to 0.206
ElecMinimize: Iter: 127  F: -1977.892436658036331  |grad|_K:  6.463e-06  alpha:  6.364e-03  linmin: -1.420e-05  t[s]:  10311.98
	FillingsUpdate:  mu: +0.123395730  nElectrons: 345.000000  magneticMoment: [ Abs: 42.32514  Tot: -0.00000 ]
	SubspaceRotationAdjust: set factor to 0.231
ElecMinimize: Iter: 128  F: -1977.892486020865135  |grad|_K:  6.178e-06  alpha:  6.736e-03  linmin: -1.578e-05  t[s]:  10380.00
	FillingsUpdate:  mu: +0.123607354  nElectrons: 345.000000  magneticMoment: [ Abs: 42.32682  Tot: -0.00000 ]
	SubspaceRotationAdjust: set factor to 0.28
ElecMinimize: Iter: 129  F: -1977.892532240489800  |grad|_K:  5.992e-06  alpha:  6.900e-03  linmin: -1.638e-05  t[s]:  10448.19
	FillingsUpdate:  mu: +0.123763096  nElectrons: 345.000000  magneticMoment: [ Abs: 42.32764  Tot: +0.00000 ]
	SubspaceRotationAdjust: set factor to 0.355
ElecMinimize: Iter: 130  F: -1977.892575409958226  |grad|_K:  5.912e-06  alpha:  6.853e-03  linmin: -1.641e-05  t[s]:  10516.58
	FillingsUpdate:  mu: +0.123969555  nElectrons: 345.000000  magneticMoment: [ Abs: 42.32799  Tot: -0.00000 ]
	SubspaceRotationAdjust: set factor to 0.444
ElecMinimize: Iter: 131  F: -1977.892616231995817  |grad|_K:  5.954e-06  alpha:  6.660e-03  linmin: -1.636e-05  t[s]:  10584.38
	FillingsUpdate:  mu: +0.124501620  nElectrons: 345.000000  magneticMoment: [ Abs: 42.32838  Tot: +0.00000 ]
	SubspaceRotationAdjust: set factor to 0.519
ElecMinimize: Iter: 132  F: -1977.892656061268553  |grad|_K:  6.130e-06  alpha:  6.408e-03  linmin: -1.662e-05  t[s]:  10652.27
	FillingsUpdate:  mu: +0.125318550  nElectrons: 345.000000  magneticMoment: [ Abs: 42.32934  Tot: +0.00000 ]
	SubspaceRotationAdjust: set factor to 0.557
ElecMinimize: Iter: 133  F: -1977.892696748407388  |grad|_K:  6.392e-06  alpha:  6.177e-03  linmin: -1.798e-05  t[s]:  10720.12
	FillingsUpdate:  mu: +0.126287902  nElectrons: 345.000000  magneticMoment: [ Abs: 42.33147  Tot: +0.00000 ]
	SubspaceRotationAdjust: set factor to 0.565
ElecMinimize: Iter: 134  F: -1977.892740046641165  |grad|_K:  6.622e-06  alpha:  6.040e-03  linmin: -2.134e-05  t[s]:  10788.35
	FillingsUpdate:  mu: +0.126964810  nElectrons: 345.000000  magneticMoment: [ Abs: 42.33524  Tot: +0.00000 ]
	SubspaceRotationAdjust: set factor to 0.569
ElecMinimize: Iter: 135  F: -1977.892786816283888  |grad|_K:  6.711e-06  alpha:  6.065e-03  linmin: -2.560e-05  t[s]:  10856.41
	FillingsUpdate:  mu: +0.126933628  nElectrons: 345.000000  magneticMoment: [ Abs: 42.34080  Tot: +0.00000 ]
	SubspaceRotationAdjust: set factor to 0.6
ElecMinimize: Iter: 136  F: -1977.892836322819903  |grad|_K:  6.634e-06  alpha:  6.231e-03  linmin: -2.540e-05  t[s]:  10924.88
	FillingsUpdate:  mu: +0.126140232  nElectrons: 345.000000  magneticMoment: [ Abs: 42.34788  Tot: +0.00000 ]
	SubspaceRotationAdjust: set factor to 0.683
ElecMinimize: Iter: 137  F: -1977.892885853210373  |grad|_K:  6.460e-06  alpha:  6.378e-03  linmin: -1.715e-05  t[s]:  10993.00
	FillingsUpdate:  mu: +0.124975557  nElectrons: 345.000000  magneticMoment: [ Abs: 42.35571  Tot: -0.00000 ]
	SubspaceRotationAdjust: set factor to 0.823
	SubspaceRotationAdjust: resetting CG because factor has changed by 7.73013
ElecMinimize: 	State modified externally: resetting search direction.
ElecMinimize: Iter: 138  F: -1977.892932249143541  |grad|_K:  6.597e-06  alpha:  6.327e-03
ElecMinimize: 	Predicted alpha/alphaT>3.000000, increasing alphaT to 1.898141e-02.
ElecMinimize: 	Predicted alpha/alphaT>3.000000, increasing alphaT to 5.694423e-02.
	FillingsUpdate:  mu: +0.122712282  nElectrons: 345.000000  magneticMoment: [ Abs: 42.36837  Tot: -0.00000 ]
	SubspaceRotationAdjust: set factor to 0.446
ElecMinimize: Iter: 139  F: -1977.894025076257094  |grad|_K:  1.092e-05  alpha:  1.551e-01  linmin:  2.553e-03  t[s]:  11197.03
	FillingsUpdate:  mu: +0.121472718  nElectrons: 345.000000  magneticMoment: [ Abs: 42.29979  Tot: -0.00000 ]
	SubspaceRotationAdjust: set factor to 0.272
ElecMinimize: Iter: 140  F: -1977.895003200928841  |grad|_K:  6.860e-06  alpha:  5.614e-02  linmin:  3.652e-04  t[s]:  11265.05
	FillingsUpdate:  mu: +0.127505945  nElectrons: 345.000000  magneticMoment: [ Abs: 42.24037  Tot: +0.00000 ]
	SubspaceRotationAdjust: set factor to 0.181
ElecMinimize: Iter: 141  F: -1977.896024703921285  |grad|_K:  4.901e-06  alpha:  1.206e-01  linmin: -1.473e-03  t[s]:  11333.09
	FillingsUpdate:  mu: +0.125857375  nElectrons: 345.000000  magneticMoment: [ Abs: 42.24464  Tot: -0.00000 ]
	SubspaceRotationAdjust: set factor to 0.123
ElecMinimize: Iter: 142  F: -1977.896729494703322  |grad|_K:  3.009e-06  alpha:  1.521e-01  linmin: -1.824e-04  t[s]:  11401.06
	FillingsUpdate:  mu: +0.123546566  nElectrons: 345.000000  magneticMoment: [ Abs: 42.21392  Tot: +0.00000 ]
	SubspaceRotationAdjust: set factor to 0.16
ElecMinimize: Iter: 143  F: -1977.897349085337964  |grad|_K:  2.443e-06  alpha:  3.878e-01  linmin:  3.027e-05  t[s]:  11469.06
	FillingsUpdate:  mu: +0.124534017  nElectrons: 345.000000  magneticMoment: [ Abs: 42.16950  Tot: +0.00000 ]
	SubspaceRotationAdjust: set factor to 0.165
ElecMinimize: Iter: 144  F: -1977.897737640621244  |grad|_K:  2.267e-06  alpha:  3.748e-01  linmin:  3.211e-05  t[s]:  11537.12
	FillingsUpdate:  mu: +0.125310124  nElectrons: 345.000000  magneticMoment: [ Abs: 42.15323  Tot: +0.00000 ]
	SubspaceRotationAdjust: set factor to 0.143
ElecMinimize: Iter: 145  F: -1977.897991612111582  |grad|_K:  1.940e-06  alpha:  2.809e-01  linmin:  8.655e-05  t[s]:  11605.09
	FillingsUpdate:  mu: +0.125663931  nElectrons: 345.000000  magneticMoment: [ Abs: 42.11737  Tot: -0.00000 ]
	SubspaceRotationAdjust: set factor to 0.145
ElecMinimize: Iter: 146  F: -1977.898197223554234  |grad|_K:  1.590e-06  alpha:  3.152e-01  linmin: -7.879e-05  t[s]:  11673.05
	FillingsUpdate:  mu: +0.125770580  nElectrons: 345.000000  magneticMoment: [ Abs: 42.09525  Tot: +0.00000 ]
	SubspaceRotationAdjust: set factor to 0.17
ElecMinimize: Iter: 147  F: -1977.898369101607614  |grad|_K:  1.416e-06  alpha:  3.882e-01  linmin: -1.648e-05  t[s]:  11741.27
	FillingsUpdate:  mu: +0.125890493  nElectrons: 345.000000  magneticMoment: [ Abs: 42.08341  Tot: -0.00000 ]
	SubspaceRotationAdjust: set factor to 0.174
ElecMinimize: Iter: 148  F: -1977.898503925184286  |grad|_K:  1.537e-06  alpha:  3.855e-01  linmin:  1.481e-04  t[s]:  11809.34
	FillingsUpdate:  mu: +0.125867384  nElectrons: 345.000000  magneticMoment: [ Abs: 42.05336  Tot: -0.00000 ]
	SubspaceRotationAdjust: set factor to 0.149
ElecMinimize: Iter: 149  F: -1977.898621616795936  |grad|_K:  1.540e-06  alpha:  2.903e-01  linmin: -3.288e-05  t[s]:  11877.60
	FillingsUpdate:  mu: +0.125471865  nElectrons: 345.000000  magneticMoment: [ Abs: 42.03784  Tot: +0.00000 ]
	SubspaceRotationAdjust: set factor to 0.143
ElecMinimize: Iter: 150  F: -1977.898773944887807  |grad|_K:  1.488e-06  alpha:  3.719e-01  linmin:  4.356e-04  t[s]:  11945.84
	FillingsUpdate:  mu: +0.125766476  nElectrons: 345.000000  magneticMoment: [ Abs: 42.01366  Tot: +0.00000 ]
	SubspaceRotationAdjust: set factor to 0.168
ElecMinimize: Iter: 151  F: -1977.898925852350658  |grad|_K:  1.459e-06  alpha:  4.093e-01  linmin:  1.676e-05  t[s]:  12014.08
	FillingsUpdate:  mu: +0.126609469  nElectrons: 345.000000  magneticMoment: [ Abs: 41.98834  Tot: +0.00000 ]
	SubspaceRotationAdjust: set factor to 0.175
ElecMinimize: Iter: 152  F: -1977.899067251305723  |grad|_K:  1.458e-06  alpha:  3.828e-01  linmin: -1.690e-04  t[s]:  12082.22
	FillingsUpdate:  mu: +0.126953645  nElectrons: 345.000000  magneticMoment: [ Abs: 41.98708  Tot: +0.00000 ]
	SubspaceRotationAdjust: set factor to 0.153
ElecMinimize: Iter: 153  F: -1977.899180660298271  |grad|_K:  1.514e-06  alpha:  2.972e-01  linmin:  1.447e-04  t[s]:  12150.18
	FillingsUpdate:  mu: +0.126983766  nElectrons: 345.000000  magneticMoment: [ Abs: 41.97065  Tot: -0.00000 ]
	SubspaceRotationAdjust: set factor to 0.15
ElecMinimize: Iter: 154  F: -1977.899288214516901  |grad|_K:  1.322e-06  alpha:  2.734e-01  linmin: -1.521e-04  t[s]:  12218.59
	FillingsUpdate:  mu: +0.126831138  nElectrons: 345.000000  magneticMoment: [ Abs: 41.96613  Tot: -0.00000 ]
	SubspaceRotationAdjust: set factor to 0.171
ElecMinimize: Iter: 155  F: -1977.899420143062571  |grad|_K:  1.315e-06  alpha:  4.275e-01  linmin:  4.975e-05  t[s]:  12287.20
	FillingsUpdate:  mu: +0.126701811  nElectrons: 345.000000  magneticMoment: [ Abs: 41.97123  Tot: -0.00000 ]
	SubspaceRotationAdjust: set factor to 0.177
ElecMinimize: Iter: 156  F: -1977.899526424105261  |grad|_K:  1.338e-06  alpha:  3.529e-01  linmin:  8.798e-05  t[s]:  12355.27
	FillingsUpdate:  mu: +0.126853550  nElectrons: 345.000000  magneticMoment: [ Abs: 41.96327  Tot: +0.00000 ]
	SubspaceRotationAdjust: set factor to 0.148
ElecMinimize: Iter: 157  F: -1977.899601772143114  |grad|_K:  1.261e-06  alpha:  2.477e-01  linmin: -2.616e-05  t[s]:  12423.47
	FillingsUpdate:  mu: +0.126680176  nElectrons: 345.000000  magneticMoment: [ Abs: 41.97398  Tot: +0.00000 ]
	SubspaceRotationAdjust: set factor to 0.142
ElecMinimize: Iter: 158  F: -1977.899684804233402  |grad|_K:  1.061e-06  alpha:  3.002e-01  linmin:  1.427e-04  t[s]:  12491.67
	FillingsUpdate:  mu: +0.126857125  nElectrons: 345.000000  magneticMoment: [ Abs: 41.97920  Tot: -0.00000 ]
	SubspaceRotationAdjust: set factor to 0.164
ElecMinimize: Iter: 159  F: -1977.899760291224538  |grad|_K:  9.237e-07  alpha:  3.908e-01  linmin: -3.613e-05  t[s]:  12559.78
	FillingsUpdate:  mu: +0.127062151  nElectrons: 345.000000  magneticMoment: [ Abs: 41.98254  Tot: -0.00000 ]
	SubspaceRotationAdjust: set factor to 0.174
ElecMinimize: Iter: 160  F: -1977.899817362070053  |grad|_K:  8.552e-07  alpha:  3.826e-01  linmin: -3.387e-05  t[s]:  12627.74
	FillingsUpdate:  mu: +0.127006171  nElectrons: 345.000000  magneticMoment: [ Abs: 41.99446  Tot: +0.00000 ]
	SubspaceRotationAdjust: set factor to 0.156
ElecMinimize: Iter: 161  F: -1977.899855455215175  |grad|_K:  8.879e-07  alpha:  2.973e-01  linmin:  1.800e-05  t[s]:  12696.07
	FillingsUpdate:  mu: +0.127064829  nElectrons: 345.000000  magneticMoment: [ Abs: 41.99569  Tot: +0.00000 ]
	SubspaceRotationAdjust: set factor to 0.137
ElecMinimize: Iter: 162  F: -1977.899891268346664  |grad|_K:  7.463e-07  alpha:  2.617e-01  linmin: -2.620e-05  t[s]:  12763.96
	FillingsUpdate:  mu: +0.126975204  nElectrons: 345.000000  magneticMoment: [ Abs: 42.00626  Tot: -0.00000 ]
	SubspaceRotationAdjust: set factor to 0.153
ElecMinimize: Iter: 163  F: -1977.899927480270890  |grad|_K:  6.790e-07  alpha:  3.725e-01  linmin:  1.694e-05  t[s]:  12832.27
	FillingsUpdate:  mu: +0.126918569  nElectrons: 345.000000  magneticMoment: [ Abs: 42.01528  Tot: +0.00000 ]
	SubspaceRotationAdjust: set factor to 0.173
ElecMinimize: Iter: 164  F: -1977.899956481094023  |grad|_K:  6.202e-07  alpha:  3.621e-01  linmin:  6.142e-06  t[s]:  12900.32
	FillingsUpdate:  mu: +0.127039184  nElectrons: 345.000000  magneticMoment: [ Abs: 42.01794  Tot: +0.00000 ]
	SubspaceRotationAdjust: set factor to 0.166
ElecMinimize: Iter: 165  F: -1977.899979691237832  |grad|_K:  6.642e-07  alpha:  3.469e-01  linmin: -1.196e-05  t[s]:  12968.32
	FillingsUpdate:  mu: +0.127005895  nElectrons: 345.000000  magneticMoment: [ Abs: 42.02942  Tot: +0.00000 ]
	SubspaceRotationAdjust: set factor to 0.143
ElecMinimize: Iter: 166  F: -1977.900000454922974  |grad|_K:  6.500e-07  alpha:  2.698e-01  linmin:  3.586e-06  t[s]:  13036.53
	FillingsUpdate:  mu: +0.127177450  nElectrons: 345.000000  magneticMoment: [ Abs: 42.03599  Tot: +0.00000 ]
	SubspaceRotationAdjust: set factor to 0.153
ElecMinimize: Iter: 167  F: -1977.900027162865399  |grad|_K:  5.897e-07  alpha:  3.630e-01  linmin: -1.507e-05  t[s]:  13104.27
	FillingsUpdate:  mu: +0.127259065  nElectrons: 345.000000  magneticMoment: [ Abs: 42.04464  Tot: -0.00000 ]
	SubspaceRotationAdjust: set factor to 0.172
ElecMinimize: Iter: 168  F: -1977.900052826274305  |grad|_K:  5.938e-07  alpha:  4.228e-01  linmin: -3.502e-06  t[s]:  13172.51
	FillingsUpdate:  mu: +0.127169903  nElectrons: 345.000000  magneticMoment: [ Abs: 42.05609  Tot: +0.00000 ]
	SubspaceRotationAdjust: set factor to 0.169
ElecMinimize: Iter: 169  F: -1977.900075671785316  |grad|_K:  6.383e-07  alpha:  3.719e-01  linmin:  3.927e-06  t[s]:  13240.98
	FillingsUpdate:  mu: +0.127167375  nElectrons: 345.000000  magneticMoment: [ Abs: 42.05745  Tot: -0.00000 ]
	SubspaceRotationAdjust: set factor to 0.143
ElecMinimize: Iter: 170  F: -1977.900095000245983  |grad|_K:  6.346e-07  alpha:  2.730e-01  linmin: -3.669e-06  t[s]:  13309.12
	FillingsUpdate:  mu: +0.126962638  nElectrons: 345.000000  magneticMoment: [ Abs: 42.06724  Tot: -0.00000 ]
	SubspaceRotationAdjust: set factor to 0.145
ElecMinimize: Iter: 171  F: -1977.900118487142663  |grad|_K:  5.867e-07  alpha:  3.349e-01  linmin:  1.363e-05  t[s]:  13377.14
	FillingsUpdate:  mu: +0.126969780  nElectrons: 345.000000  magneticMoment: [ Abs: 42.07347  Tot: +0.00000 ]
	SubspaceRotationAdjust: set factor to 0.167
ElecMinimize: Iter: 172  F: -1977.900144488600063  |grad|_K:  5.973e-07  alpha:  4.345e-01  linmin:  3.831e-06  t[s]:  13445.38
	FillingsUpdate:  mu: +0.127175203  nElectrons: 345.000000  magneticMoment: [ Abs: 42.07442  Tot: -0.00000 ]
	SubspaceRotationAdjust: set factor to 0.169
ElecMinimize: Iter: 173  F: -1977.900169385504114  |grad|_K:  6.714e-07  alpha:  4.012e-01  linmin: -1.757e-05  t[s]:  13513.96
	FillingsUpdate:  mu: +0.127126197  nElectrons: 345.000000  magneticMoment: [ Abs: 42.08275  Tot: +0.00000 ]
	SubspaceRotationAdjust: set factor to 0.149
ElecMinimize: Iter: 174  F: -1977.900192183687750  |grad|_K:  7.075e-07  alpha:  2.896e-01  linmin:  3.740e-06  t[s]:  13582.23
	FillingsUpdate:  mu: +0.127155891  nElectrons: 345.000000  magneticMoment: [ Abs: 42.08238  Tot: -0.00000 ]
	SubspaceRotationAdjust: set factor to 0.154
ElecMinimize: Iter: 175  F: -1977.900225462286016  |grad|_K:  7.279e-07  alpha:  3.814e-01  linmin: -4.454e-05  t[s]:  13650.41
	FillingsUpdate:  mu: +0.127036915  nElectrons: 345.000000  magneticMoment: [ Abs: 42.08470  Tot: +0.00000 ]
	SubspaceRotationAdjust: set factor to 0.171
ElecMinimize: Iter: 176  F: -1977.900269133881466  |grad|_K:  8.202e-07  alpha:  4.712e-01  linmin:  8.925e-06  t[s]:  13718.98
	FillingsUpdate:  mu: +0.126856191  nElectrons: 345.000000  magneticMoment: [ Abs: 42.08945  Tot: +0.00000 ]
	SubspaceRotationAdjust: set factor to 0.176
ElecMinimize: Iter: 177  F: -1977.900318312504169  |grad|_K:  9.732e-07  alpha:  4.195e-01  linmin:  4.246e-05  t[s]:  13787.11
	FillingsUpdate:  mu: +0.126988658  nElectrons: 345.000000  magneticMoment: [ Abs: 42.08065  Tot: +0.00000 ]
	SubspaceRotationAdjust: set factor to 0.153
ElecMinimize: Iter: 178  F: -1977.900371338215564  |grad|_K:  1.075e-06  alpha:  3.257e-01  linmin: -3.992e-05  t[s]:  13855.58
	FillingsUpdate:  mu: +0.126918146  nElectrons: 345.000000  magneticMoment: [ Abs: 42.08444  Tot: -0.00000 ]
	SubspaceRotationAdjust: set factor to 0.145
ElecMinimize: Iter: 179  F: -1977.900437038173095  |grad|_K:  1.057e-06  alpha:  3.245e-01  linmin:  1.068e-04  t[s]:  13923.58
	FillingsUpdate:  mu: +0.127163915  nElectrons: 345.000000  magneticMoment: [ Abs: 42.07948  Tot: +0.00000 ]
	SubspaceRotationAdjust: set factor to 0.168
ElecMinimize: Iter: 180  F: -1977.900515415570453  |grad|_K:  1.051e-06  alpha:  4.104e-01  linmin:  2.603e-05  t[s]:  13991.84
	FillingsUpdate:  mu: +0.127378894  nElectrons: 345.000000  magneticMoment: [ Abs: 42.07008  Tot: -0.00000 ]
	SubspaceRotationAdjust: set factor to 0.177
ElecMinimize: Iter: 181  F: -1977.900588549847726  |grad|_K:  1.075e-06  alpha:  3.821e-01  linmin: -5.473e-05  t[s]:  14059.91
	FillingsUpdate:  mu: +0.127333497  nElectrons: 345.000000  magneticMoment: [ Abs: 42.07316  Tot: +0.00000 ]
	SubspaceRotationAdjust: set factor to 0.171
ElecMinimize: Iter: 182  F: -1977.900647556931972  |grad|_K:  1.093e-06  alpha:  2.876e-01  linmin:  4.662e-05  t[s]:  14128.14
	FillingsUpdate:  mu: +0.127425209  nElectrons: 345.000000  magneticMoment: [ Abs: 42.06304  Tot: +0.00000 ]
	SubspaceRotationAdjust: set factor to 0.192
ElecMinimize: Iter: 183  F: -1977.900712706118611  |grad|_K:  1.033e-06  alpha:  3.146e-01  linmin: -9.269e-05  t[s]:  14196.81
	FillingsUpdate:  mu: +0.127610636  nElectrons: 345.000000  magneticMoment: [ Abs: 42.05788  Tot: +0.00000 ]
	SubspaceRotationAdjust: set factor to 0.234
ElecMinimize: Iter: 184  F: -1977.900785493008470  |grad|_K:  1.051e-06  alpha:  3.870e-01  linmin:  3.829e-05  t[s]:  14264.88
	FillingsUpdate:  mu: +0.127763189  nElectrons: 345.000000  magneticMoment: [ Abs: 42.05937  Tot: -0.00000 ]
	SubspaceRotationAdjust: set factor to 0.227
ElecMinimize: Iter: 185  F: -1977.900851254625877  |grad|_K:  1.248e-06  alpha:  3.420e-01  linmin:  1.062e-04  t[s]:  14333.17
	FillingsUpdate:  mu: +0.127882785  nElectrons: 345.000000  magneticMoment: [ Abs: 42.04725  Tot: +0.00000 ]
	SubspaceRotationAdjust: set factor to 0.218
ElecMinimize: Iter: 186  F: -1977.900909460825687  |grad|_K:  1.251e-06  alpha:  2.226e-01  linmin:  4.962e-06  t[s]:  14402.30
	FillingsUpdate:  mu: +0.127877292  nElectrons: 345.000000  magneticMoment: [ Abs: 42.04984  Tot: -0.00000 ]
	SubspaceRotationAdjust: set factor to 0.239
ElecMinimize: Iter: 187  F: -1977.900991088965156  |grad|_K:  1.210e-06  alpha:  3.040e-01  linmin:  2.539e-04  t[s]:  14470.15
	FillingsUpdate:  mu: +0.127970859  nElectrons: 345.000000  magneticMoment: [ Abs: 42.04519  Tot: -0.00000 ]
	SubspaceRotationAdjust: set factor to 0.3
[...]
	SubspaceRotationAdjust: set factor to 0.358
ElecMinimize: Iter:  15  F: -1977.955457940471661  |grad|_K:  9.812e-08  alpha:  2.587e-01  linmin:  7.872e-06  t[s]:  67868.41
	FillingsUpdate:  mu: +0.119488595  nElectrons: 345.000000  magneticMoment: [ Abs: 41.52479  Tot: +0.00000 ]
	SubspaceRotationAdjust: set factor to 0.388
ElecMinimize: Iter:  16  F: -1977.955458398741030  |grad|_K:  6.908e-08  alpha:  2.735e-01  linmin: -5.987e-06  t[s]:  67937.19
	FillingsUpdate:  mu: +0.119495690  nElectrons: 345.000000  magneticMoment: [ Abs: 41.52518  Tot: +0.00000 ]
	SubspaceRotationAdjust: set factor to 0.465
ElecMinimize: Iter:  17  F: -1977.955458704456987  |grad|_K:  5.564e-08  alpha:  3.679e-01  linmin:  4.930e-06  t[s]:  68005.89
	FillingsUpdate:  mu: +0.119528287  nElectrons: 345.000000  magneticMoment: [ Abs: 41.52499  Tot: +0.00000 ]
	SubspaceRotationAdjust: set factor to 0.493
ElecMinimize: Iter:  18  F: -1977.955458885520784  |grad|_K:  5.154e-08  alpha:  3.354e-01  linmin: -4.267e-06  t[s]:  68073.99
	FillingsUpdate:  mu: +0.119472471  nElectrons: 345.000000  magneticMoment: [ Abs: 41.52577  Tot: +0.00000 ]
	SubspaceRotationAdjust: set factor to 0.442
ElecMinimize: Iter:  19  F: -1977.955459005903322  |grad|_K:  4.992e-08  alpha:  2.602e-01  linmin: -2.536e-05  t[s]:  68142.52
ElecMinimize: Converged (|Delta F|<1.000000e-06 for 5 iters).
Setting wave functions to eigenvectors of Hamiltonian

# Ionic positions in lattice coordinates:
ion Ni   0.007069879321459  -0.013274466065371   0.172464879871641 1
ion Ni   0.495916065088420  -0.001619137536925   0.155462185872546 1
ion Ni   0.006116785759606   0.513562921284576   0.146458913506398 1
ion Ni   0.252440551301117   0.756313559220417   0.058203275696689 1
ion Ni  -0.251013632469462   0.749394314499860   0.057361212169031 1
ion Co   0.494723403216347   0.516329792565057   0.157053989654705 1
ion Co   0.248960691736110   0.230270158412379   0.061049738613025 1
ion V  -0.251751024581738   0.239804195435810   0.063248938405751 1
ion V   0.000000000000000   0.000000000000000  -0.050000000000000 0
ion V   0.500000000000000   0.000000000000000  -0.050000000000000 0
ion V   0.000000000000000   0.500000000000000  -0.050000000000000 0
ion V   0.500000000000000   0.500000000000000  -0.050000000000000 0
ion V   0.250000000000000   0.250000000000000  -0.150000000000000 0
ion V  -0.250000000000000   0.750000000000000  -0.150000000000000 0
ion Cr   0.250000000000000   0.750000000000000  -0.150000000000000 0
ion Cr  -0.250000000000000   0.250000000000000  -0.150000000000000 0
ion O   0.245380567270202   0.269927413389582   0.155340469669769 1
ion O   0.239975724617674   0.759362366719644   0.151458609198406 1
ion O  -0.243806266879610   0.252024579724268   0.149991648896559 1
ion O  -0.241471801910235   0.752490238189875   0.150618598724952 1
ion O  -0.008619254112254  -0.004517803012710   0.049679221550245 1
ion O   0.524094094863788   0.008686238033132   0.045101209152255 1
ion O  -0.023523937843442   0.477204466414321   0.049848193789213 1
ion O   0.506812981627226   0.499627197379094   0.053494690241547 1
ion O   0.250000000000000   0.250000000000000  -0.050000000000000 0
ion O   0.250000000000000   0.750000000000000  -0.050000000000000 0
ion O  -0.250000000000000   0.250000000000000  -0.050000000000000 0
ion O  -0.250000000000000   0.750000000000000  -0.050000000000000 0
ion O   0.000000000000000   0.000000000000000  -0.150000000000000 0
ion O   0.500000000000000   0.000000000000000  -0.150000000000000 0
ion O   0.000000000000000   0.500000000000000  -0.150000000000000 0
ion O   0.500000000000000   0.500000000000000  -0.150000000000000 0
ion O  -0.010924106781125   0.016257090185241   0.250939101529722 1

# Forces in Lattice coordinates:
force Ni  -0.002093496084335  -0.001825687338860   0.002350979911323 1
force Ni   0.001976603749840  -0.001039025627333   0.008031759193757 1
force Ni   0.000416549916052   0.001693854698379   0.032335508312661 1
force Ni   0.003902338146397   0.002190815083826   0.000682814850002 1
force Ni  -0.003400537672524   0.002153624507982  -0.010223067436913 1
force Co  -0.003264689220338  -0.000360801176194   0.009328781963078 1
force Co   0.001068437124343   0.001546130539898   0.026922828752062 1
force V  -0.007382605570463  -0.003211492922970  -0.018872301969571 1
force V  -0.054184021199103  -0.058655939641104   0.901387770851715 0
force V  -0.035910337227530  -0.029222815741947   0.531685884269644 0
force V  -0.045479637991831   0.045727183021556   0.877674778912708 0
force V  -0.063897324681906   0.026366439572773   1.105546871639894 0
force V   0.067625223208590  -0.003161389410475  -0.567782200711396 0
force V   0.028020060801224   0.003440283525271  -0.561526805732206 0
force Cr   0.031133870499090   0.000538172805426  -1.613345482063357 0
force Cr  -0.011575067027886  -0.003112290065466  -1.688408700253304 0
force O   0.000879981651101   0.003884952917282  -0.004156864683132 1
force O   0.000532976215649  -0.000618167180825  -0.004669210095610 1
force O  -0.000265936086684   0.003374979093369   0.010175153578540 1
force O   0.000018006569622   0.005445758399151   0.005927194258356 1
force O   0.001229407678165   0.001380600039373  -0.010025341353238 1
force O   0.006209682940716   0.008109523696932  -0.001047794140669 1
force O  -0.003407788999340  -0.004445131703447   0.003407112073999 1
force O   0.003228335283724  -0.003486438233038   0.015271920430672 1
force O  -0.132322797395701  -0.010170286881789  -0.137995780129655 0
force O  -0.123179217212334   0.007943370651487   0.950814684118024 0
force O   0.105283490397272  -0.008257915633008   1.044167024863506 0
force O   0.091970317931073   0.000062191031771  -0.216067336607902 0
force O   0.043592872706035  -0.007158139830632  -0.136802401980391 0
force O   0.030193862874729   0.005495580087422  -0.297345767389396 0
force O   0.043805048072668   0.008736087586652  -0.090582225621719 0
force O   0.035160239827183  -0.004366631910789  -0.261387746905812 0
force O   0.001743961794638   0.006864206509155   0.024795760036973 1

# Energy components:
   Eewald =     5282.1146382098495451
       EH =     7064.2330009212118966
     Eloc =   -14488.4923805252292368
      Enl =     -504.5146361158524542
   Epulay =       -0.0004847078171675
      Exc =     -243.2750479080293360
       KE =      910.6149425469690186
        U =        1.3652616302970628
-------------------------------------
     Etot =    -1977.9547059486003491
       TS =        0.0007530573029348
-------------------------------------
        F =    -1977.9554590059033217

IonicMinimize: Iter:  17  F: -1977.955459005903322  |grad|_K:  3.179e-04  alpha:  1.000e+00  linmin: -3.224e-03  t[s]:  68166.74

#--- Lowdin population analysis ---
# oxidation-state Ni +3.777 +3.406 +3.788 +3.373 +3.557
# magnetic-moments Ni +0.923 -0.592 +1.032 -0.804 -0.980
# oxidation-state Co +1.309 +1.270
# magnetic-moments Co -2.782 +2.731
# oxidation-state V +1.225 +1.080 +0.991 +1.081 +0.990 +1.021 +1.021
# magnetic-moments V -1.950 -2.621 +2.824 -2.645 +2.884 -2.938 +2.941
# oxidation-state Cr +2.920 +2.917
# magnetic-moments Cr -3.924 +3.944
# oxidation-state O -0.841 -0.708 -0.694 -0.723 -0.841 -0.812 -0.824 -0.889 -0.922 -0.903 -0.935 -0.875 -0.911 -0.912 -0.909 -0.911 -0.244
# magnetic-moments O +0.261 +0.161 +0.274 +0.025 -0.085 -0.118 +0.036 -0.158 +0.037 -0.059 +0.073 -0.032 +0.011 -0.015 +0.013 -0.014 +1.559


-------- Electronic minimization -----------
	FillingsUpdate:  mu: +0.164433882  nElectrons: 345.000000  magneticMoment: [ Abs: 41.52001  Tot: +0.00000 ]
ElecMinimize: Iter:   0  F: -1977.552683113917283  |grad|_K:  1.080e-04  alpha:  1.000e+00
	FillingsUpdate:  mu: +0.111832713  nElectrons: 345.000000  magneticMoment: [ Abs: 41.24930  Tot: -0.00000 ]
	SubspaceRotationAdjust: set factor to 0.301
ElecMinimize: Iter:   1  F: -1977.915233831196019  |grad|_K:  2.905e-05  alpha:  1.537e-01  linmin: -1.963e-02  t[s]:  68283.55
	FillingsUpdate:  mu: +0.120681919  nElectrons: 345.000000  magneticMoment: [ Abs: 41.51435  Tot: +0.00000 ]
	SubspaceRotationAdjust: set factor to 0.283
ElecMinimize: Iter:   2  F: -1977.941477627902714  |grad|_K:  1.115e-05  alpha:  1.566e-01  linmin: -5.649e-03  t[s]:  68352.13
	FillingsUpdate:  mu: +0.125079227  nElectrons: 345.000000  magneticMoment: [ Abs: 41.42732  Tot: -0.00000 ]
	SubspaceRotationAdjust: set factor to 0.244
ElecMinimize: Iter:   3  F: -1977.947733481322302  |grad|_K:  7.642e-06  alpha:  2.712e-01  linmin:  2.142e-03  t[s]:  68420.44
	FillingsUpdate:  mu: +0.118247992  nElectrons: 345.000000  magneticMoment: [ Abs: 41.48887  Tot: -0.00000 ]
	SubspaceRotationAdjust: set factor to 0.291
ElecMinimize: Iter:   4  F: -1977.950413989474782  |grad|_K:  5.179e-06  alpha:  2.871e-01  linmin: -2.106e-04  t[s]:  68489.41
	FillingsUpdate:  mu: +0.118502274  nElectrons: 345.000000  magneticMoment: [ Abs: 41.50523  Tot: +0.00000 ]
	SubspaceRotationAdjust: set factor to 0.372
ElecMinimize: Iter:   5  F: -1977.952391952924245  |grad|_K:  4.441e-06  alpha:  4.179e-01  linmin:  6.535e-06  t[s]:  68557.69
	FillingsUpdate:  mu: +0.123030219  nElectrons: 345.000000  magneticMoment: [ Abs: 41.47505  Tot: -0.00000 ]
	SubspaceRotationAdjust: set factor to 0.382
ElecMinimize: Iter:   6  F: -1977.953632011527361  |grad|_K:  4.324e-06  alpha:  3.603e-01  linmin:  4.044e-05  t[s]:  68625.88
	FillingsUpdate:  mu: +0.118879544  nElectrons: 345.000000  magneticMoment: [ Abs: 41.52494  Tot: -0.00000 ]
	SubspaceRotationAdjust: set factor to 0.342
ElecMinimize: Iter:   7  F: -1977.954528662815392  |grad|_K:  3.377e-06  alpha:  2.802e-01  linmin: -4.655e-05  t[s]:  68694.57
	FillingsUpdate:  mu: +0.119602064  nElectrons: 345.000000  magneticMoment: [ Abs: 41.51218  Tot: -0.00000 ]
	SubspaceRotationAdjust: set factor to 0.36
ElecMinimize: Iter:   8  F: -1977.955095072627273  |grad|_K:  2.030e-06  alpha:  2.828e-01  linmin:  1.792e-05  t[s]:  68763.05
	FillingsUpdate:  mu: +0.119620775  nElectrons: 345.000000  magneticMoment: [ Abs: 41.50726  Tot: +0.00000 ]
	SubspaceRotationAdjust: set factor to 0.39
ElecMinimize: Iter:   9  F: -1977.955340449485902  |grad|_K:  1.240e-06  alpha:  3.430e-01  linmin:  1.269e-06  t[s]:  68831.41
	FillingsUpdate:  mu: +0.118903763  nElectrons: 345.000000  magneticMoment: [ Abs: 41.51539  Tot: +0.00000 ]
	SubspaceRotationAdjust: set factor to 0.342
ElecMinimize: Iter:  10  F: -1977.955411612875878  |grad|_K:  8.696e-07  alpha:  2.663e-01  linmin: -1.049e-05  t[s]:  68899.70
	FillingsUpdate:  mu: +0.119661514  nElectrons: 345.000000  magneticMoment: [ Abs: 41.50741  Tot: -0.00000 ]
	SubspaceRotationAdjust: set factor to 0.258
ElecMinimize: Iter:  11  F: -1977.955442326885532  |grad|_K:  5.940e-07  alpha:  2.327e-01  linmin:  5.792e-05  t[s]:  68968.47
	FillingsUpdate:  mu: +0.119341186  nElectrons: 345.000000  magneticMoment: [ Abs: 41.50999  Tot: +0.00000 ]
	SubspaceRotationAdjust: set factor to 0.286
ElecMinimize: Iter:  12  F: -1977.955459302033660  |grad|_K:  3.603e-07  alpha:  2.774e-01  linmin: -8.022e-06  t[s]:  69037.35
	FillingsUpdate:  mu: +0.119220382  nElectrons: 345.000000  magneticMoment: [ Abs: 41.51005  Tot: +0.00000 ]
	SubspaceRotationAdjust: set factor to 0.317
ElecMinimize: Iter:  13  F: -1977.955466766527024  |grad|_K:  2.592e-07  alpha:  3.301e-01  linmin:  3.797e-07  t[s]:  69105.81
	FillingsUpdate:  mu: +0.119421448  nElectrons: 345.000000  magneticMoment: [ Abs: 41.50732  Tot: -0.00000 ]
	SubspaceRotationAdjust: set factor to 0.292
ElecMinimize: Iter:  14  F: -1977.955470196823853  |grad|_K:  1.958e-07  alpha:  2.932e-01  linmin:  1.583e-05  t[s]:  69174.15
	FillingsUpdate:  mu: +0.119292508  nElectrons: 345.000000  magneticMoment: [ Abs: 41.50862  Tot: +0.00000 ]
	SubspaceRotationAdjust: set factor to 0.306
ElecMinimize: Iter:  15  F: -1977.955472124732069  |grad|_K:  1.365e-07  alpha:  2.891e-01  linmin: -1.126e-06  t[s]:  69242.51
	FillingsUpdate:  mu: +0.119302233  nElectrons: 345.000000  magneticMoment: [ Abs: 41.50846  Tot: +0.00000 ]
	SubspaceRotationAdjust: set factor to 0.379
ElecMinimize: Iter:  16  F: -1977.955473287859149  |grad|_K:  9.977e-08  alpha:  3.585e-01  linmin: -1.251e-06  t[s]:  69310.84
	FillingsUpdate:  mu: +0.119357472  nElectrons: 345.000000  magneticMoment: [ Abs: 41.50757  Tot: +0.00000 ]
	SubspaceRotationAdjust: set factor to 0.399
ElecMinimize: Iter:  17  F: -1977.955473855661921  |grad|_K:  8.530e-08  alpha:  3.276e-01  linmin:  2.019e-06  t[s]:  69380.38
	FillingsUpdate:  mu: +0.119283596  nElectrons: 345.000000  magneticMoment: [ Abs: 41.50829  Tot: +0.00000 ]
	SubspaceRotationAdjust: set factor to 0.377
ElecMinimize: Iter:  18  F: -1977.955474215814320  |grad|_K:  7.173e-08  alpha:  2.842e-01  linmin: -1.467e-06  t[s]:  69449.95
	FillingsUpdate:  mu: +0.119337418  nElectrons: 345.000000  magneticMoment: [ Abs: 41.50785  Tot: -0.00000 ]
	SubspaceRotationAdjust: set factor to 0.384
ElecMinimize: Iter:  19  F: -1977.955474475756318  |grad|_K:  5.694e-08  alpha:  2.902e-01  linmin: -4.777e-06  t[s]:  69520.05
	FillingsUpdate:  mu: +0.119322812  nElectrons: 345.000000  magneticMoment: [ Abs: 41.50810  Tot: +0.00000 ]
	SubspaceRotationAdjust: set factor to 0.451
ElecMinimize: Iter:  20  F: -1977.955474684982391  |grad|_K:  4.783e-08  alpha:  3.707e-01  linmin:  1.358e-05  t[s]:  69589.06
	FillingsUpdate:  mu: +0.119310851  nElectrons: 345.000000  magneticMoment: [ Abs: 41.50813  Tot: -0.00000 ]
	SubspaceRotationAdjust: set factor to 0.535
ElecMinimize: Iter:  21  F: -1977.955474847911773  |grad|_K:  4.384e-08  alpha:  4.094e-01  linmin: -4.160e-06  t[s]:  69658.55
ElecMinimize: Converged (|Delta F|<1.000000e-06 for 5 iters).
Setting wave functions to eigenvectors of Hamiltonian

# Ionic positions in lattice coordinates:
ion Ni   0.006509506690493  -0.013571023961675   0.173268412265584 1
ion Ni   0.496468676529062  -0.001175839958617   0.155655816766056 1
ion Ni   0.006077948557352   0.514186110243375   0.146935595660226 1
ion Ni   0.252125730102357   0.756425702353375   0.058433307603711 1
ion Ni  -0.250634695357392   0.749206379530231   0.057611765207337 1
ion Co   0.494699722764536   0.516708965617235   0.157205227610376 1
ion Co   0.248883634871815   0.230013520748199   0.061275137822453 1
ion V  -0.251581070089915   0.239104637929005   0.063452774772273 1
ion V   0.000000000000000   0.000000000000000  -0.050000000000000 0
ion V   0.500000000000000   0.000000000000000  -0.050000000000000 0
ion V   0.000000000000000   0.500000000000000  -0.050000000000000 0
ion V   0.500000000000000   0.500000000000000  -0.050000000000000 0
ion V   0.250000000000000   0.250000000000000  -0.150000000000000 0
ion V  -0.250000000000000   0.750000000000000  -0.150000000000000 0
ion Cr   0.250000000000000   0.750000000000000  -0.150000000000000 0
ion Cr  -0.250000000000000   0.250000000000000  -0.150000000000000 0
ion O   0.245182545917752   0.270169698890325   0.155662265700558 1
ion O   0.239841542221232   0.760133841390495   0.151649507726520 1
ion O  -0.243964154561154   0.251660036160378   0.150248113439113 1
ion O  -0.241043412647974   0.753109841350608   0.150773211346169 1
ion O  -0.008579620890970  -0.004888699743483   0.049466660365645 1
ion O   0.524209889898261   0.008951811709078   0.045142846140842 1
ion O  -0.023328858281775   0.476564843546715   0.050052154666217 1
ion O   0.507147771653601   0.499446822581361   0.053760940978066 1
ion O   0.250000000000000   0.250000000000000  -0.050000000000000 0
ion O   0.250000000000000   0.750000000000000  -0.050000000000000 0
ion O  -0.250000000000000   0.250000000000000  -0.050000000000000 0
ion O  -0.250000000000000   0.750000000000000  -0.050000000000000 0
ion O   0.000000000000000   0.000000000000000  -0.150000000000000 0
ion O   0.500000000000000   0.000000000000000  -0.150000000000000 0
ion O   0.000000000000000   0.500000000000000  -0.150000000000000 0
ion O   0.500000000000000   0.500000000000000  -0.150000000000000 0
ion O  -0.011308131380293   0.017485495339637   0.251696124573850 1

# Forces in Lattice coordinates:
force Ni   0.002452225056219   0.002002147452171   0.022049344673674 1
force Ni  -0.003290209708397   0.000209771766967   0.014506480481887 1
force Ni   0.004506301285605  -0.006396277503448   0.003306779139867 1
force Ni   0.004587509036888   0.000765324610877   0.001027660792602 1
force Ni  -0.005054892490636   0.001613130695679  -0.029110634892238 1
force Co  -0.004384360043945  -0.000599844935791   0.017475114255138 1
force Co   0.000126825572791   0.002953921994068   0.029715873268161 1
force V  -0.003312854867587   0.009395628389777  -0.006485862522284 1
force V  -0.054163483698715  -0.058582592192222   0.897809823214312 0
force V  -0.035808450007462  -0.029400809524872   0.543071566846648 0
force V  -0.045940524275825   0.044601825991731   0.900371663119192 0
force V  -0.063605991521074   0.026462412485134   1.125862791314784 0
force V   0.067032543470286  -0.003376616576891  -0.567823540162420 0
force V   0.028596744769681   0.003610999254726  -0.561420114884623 0
force Cr   0.030642220190593   0.000715278806459  -1.613722596591344 0
force Cr  -0.010862186883186  -0.003313565207150  -1.687950687387001 0
force O   0.001279301616626   0.005963537002617  -0.030545577878609 1
force O   0.001776887390437  -0.002822530480625   0.005903925817371 1
force O   0.000640853167366   0.003681724397426  -0.021249968623987 1
force O  -0.002951381195742   0.004044564550519   0.018903147332574 1
force O   0.000473033163611   0.002991028553732   0.006634877100899 1
force O   0.004053775057982   0.002237112706044  -0.004284421957857 1
force O  -0.003337108291755  -0.000115367962475  -0.003258755689131 1
force O   0.001108116885297  -0.002669994211810  -0.001766552586996 1
force O  -0.130700721586077  -0.010580562341254  -0.141403538702989 0
force O  -0.121496466568701   0.007843685124928   0.949937164202277 0
force O   0.104071341638904  -0.008644715646962   1.040719498588480 0
force O   0.090294454948152   0.000170693697217  -0.215728950113521 0
force O   0.043478174029936  -0.007001223086657  -0.140295288957814 0
force O   0.030121464480189   0.005413824259957  -0.296665439940259 0
force O   0.043721709564574   0.008776861248918  -0.091010137022447 0
force O   0.035060476784770  -0.004331262797018  -0.257385294168095 0
force O   0.006298486603794   0.007375782181956  -0.009714227321503 1

# Energy components:
   Eewald =     5270.1483247087307973
       EH =     7052.2508804773069642
     Eloc =   -14464.5319743312375067
      Enl =     -504.5060728499238962
   Epulay =       -0.0004847078171675
      Exc =     -243.2675086462031970
       KE =      910.5864824670884445
        U =        1.3656485199120800
-------------------------------------
     Etot =    -1977.9547043621441844
       TS =        0.0007704857676741
-------------------------------------
        F =    -1977.9554748479117734

IonicMinimize: Iter:  18  F: -1977.955474847911773  |grad|_K:  3.587e-04  alpha:  1.000e+00  linmin:  2.144e-03  t[s]:  69682.94
IonicMinimize: Converged (|Delta F|<1.000000e-04 for 3 iters).

#--- Lowdin population analysis ---
# oxidation-state Ni +3.780 +3.405 +3.790 +3.374 +3.559
# magnetic-moments Ni +0.923 -0.591 +1.033 -0.803 -0.980
# oxidation-state Co +1.309 +1.271
# magnetic-moments Co -2.783 +2.732
# oxidation-state V +1.226 +1.080 +0.992 +1.081 +0.992 +1.021 +1.021
# magnetic-moments V -1.947 -2.619 +2.822 -2.648 +2.883 -2.938 +2.941
# oxidation-state Cr +2.920 +2.917
# magnetic-moments Cr -3.924 +3.943
# oxidation-state O -0.841 -0.708 -0.694 -0.723 -0.841 -0.812 -0.825 -0.890 -0.922 -0.903 -0.935 -0.875 -0.911 -0.912 -0.909 -0.911 -0.246
# magnetic-moments O +0.260 +0.162 +0.274 +0.025 -0.086 -0.116 +0.035 -0.157 +0.037 -0.059 +0.073 -0.032 +0.011 -0.015 +0.013 -0.014 +1.556


Dumping 'run.ionpos' ... done
Dumping 'run.lattice' ... done
Dumping 'run.Ecomponents' ... done
End date and time: Wed May  7 10:16:15 2025  (Duration: 0-19:21:29.24)
Done!
