
*************** JDFTx 1.7.0  ***************

Start date and time: Wed Apr 30 13:34:08 2025
Executable /data2/jt577/jdftx_eat_withLibXC/build/jdftx with command-line: -i /data2/jt577/March_2025/pure_RSO/ionic_relax_noMagnetism/pure_VO/runs/calc_20250430-133407/O/O.in
Running on hosts (process indices):  node3220 (0-8)
Divided in process groups (process indices):  0 (0)  1 (1)  2 (2)  3 (3)  4 (4)  5 (5)  6 (6)  7 (7)  8 (8)
Resource initialization completed at t[s]:      0.00
Run totals: 9 processes, 36 threads, 0 GPUs


Input parsed successfully to the following command list (including defaults):

add-mix 
basis kpoint-dependent
coords-type Lattice
core-overlap-check vector
coulomb-interaction Periodic
davidson-band-ratio 1.1
dump End IonicPositions Lattice Ecomponents
dump-name O.$VAR
elec-cutoff 30
elec-eigen-algo Davidson
elec-ex-corr gga-x-rpbe gga-c-pbe
elec-smearing Fermi 0.001
electronic-minimize  \
	dirUpdateScheme      FletcherReeves \
	linminMethod         DirUpdateRecommended \
	nIterations          1000 \
	history              15 \
	knormThreshold       0 \
	energyDiffThreshold  1e-06 \
	nEnergyDiff          5 \
	alphaTstart          1 \
	alphaTmin            1e-10 \
	updateTestStepSize   yes \
	alphaTreduceFactor   0.1 \
	alphaTincreaseFactor 3 \
	nAlphaAdjustMax      3 \
	wolfeEnergy          0.0001 \
	wolfeGradient        0.9 \
	fdTest               no
exchange-regularization WignerSeitzTruncated
fluid None
fluid-ex-corr (null) lda-PZ
fluid-gummel-loop 10 1.000000e-05
fluid-minimize  \
	dirUpdateScheme      PolakRibiere \
	linminMethod         DirUpdateRecommended \
	nIterations          100 \
	history              15 \
	knormThreshold       0 \
	energyDiffThreshold  0 \
	nEnergyDiff          2 \
	alphaTstart          1 \
	alphaTmin            1e-10 \
	updateTestStepSize   yes \
	alphaTreduceFactor   0.1 \
	alphaTincreaseFactor 3 \
	nAlphaAdjustMax      3 \
	wolfeEnergy          0.0001 \
	wolfeGradient        0.9 \
	fdTest               no
fluid-solvent H2O 55.338 ScalarEOS \
	epsBulk 78.4 \
	pMol 0.92466 \
	epsInf 1.77 \
	Pvap 1.06736e-10 \
	sigmaBulk 4.62e-05 \
	Rvdw 2.61727 \
	Res 1.42 \
	tauNuc 343133 \
	poleEl 15 7 1
forces-output-coords Positions
initial-state O.$VAR
ion V  0.000000000000000   0.000000000000000   0.150000000000000 1
ion V  0.500000000000000   0.000000000000000   0.150000000000000 1
ion V  0.000000000000000   0.500000000000000   0.150000000000000 1
ion V  0.500000000000000   0.500000000000000   0.150000000000000 1
ion V  0.250000000000000   0.250000000000000   0.050000000000000 1
ion V  0.250000000000000   0.750000000000000   0.050000000000000 1
ion V -0.250000000000000   0.250000000000000   0.050000000000000 1
ion V -0.250000000000000   0.750000000000000   0.050000000000000 1
ion V  0.000000000000000   0.000000000000000  -0.050000000000000 0
ion V  0.500000000000000   0.000000000000000  -0.050000000000000 0
ion V  0.000000000000000   0.500000000000000  -0.050000000000000 0
ion V  0.500000000000000   0.500000000000000  -0.050000000000000 0
ion V  0.250000000000000   0.250000000000000  -0.150000000000000 0
ion V  0.250000000000000   0.750000000000000  -0.150000000000000 0
ion V -0.250000000000000   0.250000000000000  -0.150000000000000 0
ion V -0.250000000000000   0.750000000000000  -0.150000000000000 0
ion O  0.250000000000000   0.250000000000000   0.150000000000000 1
ion O  0.250000000000000   0.750000000000000   0.150000000000000 1
ion O -0.250000000000000   0.250000000000000   0.150000000000000 1
ion O -0.250000000000000   0.750000000000000   0.150000000000000 1
ion O  0.000000000000000   0.000000000000000   0.050000000000000 1
ion O  0.500000000000000   0.000000000000000   0.050000000000000 1
ion O  0.000000000000000   0.500000000000000   0.050000000000000 1
ion O  0.500000000000000   0.500000000000000   0.050000000000000 1
ion O  0.250000000000000   0.250000000000000  -0.050000000000000 0
ion O  0.250000000000000   0.750000000000000  -0.050000000000000 0
ion O -0.250000000000000   0.250000000000000  -0.050000000000000 0
ion O -0.250000000000000   0.750000000000000  -0.050000000000000 0
ion O  0.000000000000000   0.000000000000000  -0.150000000000000 0
ion O  0.500000000000000   0.000000000000000  -0.150000000000000 0
ion O  0.000000000000000   0.500000000000000  -0.150000000000000 0
ion O  0.500000000000000   0.500000000000000  -0.150000000000000 0
ion O  0.000000000000000   0.000000000000000   0.230000000000000 1
ion-species SG15/$ID_ONCV_PBE.upf
ion-width 0
ionic-minimize  \
	dirUpdateScheme      L-BFGS \
	linminMethod         DirUpdateRecommended \
	nIterations          1000 \
	history              15 \
	knormThreshold       0.0001 \
	energyDiffThreshold  0.0001 \
	nEnergyDiff          3 \
	alphaTstart          1 \
	alphaTmin            1e-10 \
	updateTestStepSize   yes \
	alphaTreduceFactor   0.1 \
	alphaTincreaseFactor 3 \
	nAlphaAdjustMax      3 \
	wolfeEnergy          0.0001 \
	wolfeGradient        0.9 \
	fdTest               no
kpoint   0.500000000000   0.500000000000   0.500000000000  1.00000000000000
kpoint-folding 3 3 1 
latt-move-scale 1 1 1
latt-scale 1 1 1 
lattice  \
	   8.260000000000000    8.260000000000000    0.000000000000000  \
	   8.260000000000000   -8.260000000000000    0.000000000000000  \
	   0.000000000000000    0.000000000000000   41.299999999999997 
lattice-minimize  \
	dirUpdateScheme      L-BFGS \
	linminMethod         DirUpdateRecommended \
	nIterations          0 \
	history              15 \
	knormThreshold       0 \
	energyDiffThreshold  1e-06 \
	nEnergyDiff          2 \
	alphaTstart          1 \
	alphaTmin            1e-10 \
	updateTestStepSize   yes \
	alphaTreduceFactor   0.1 \
	alphaTincreaseFactor 3 \
	nAlphaAdjustMax      3 \
	wolfeEnergy          0.0001 \
	wolfeGradient        0.9 \
	fdTest               no
lcao-params -1 1e-06 0.001
pcm-variant GLSSA13
spintype no-spin
subspace-rotation-factor 1 yes
symmetries none
symmetry-threshold 0.0001


Applied RMS atom displacement 0 bohrs to make symmetries exact.

---------- Initializing the Grid ----------
R = 
[         8.26         8.26            0  ]
[         8.26        -8.26            0  ]
[            0            0         41.3  ]
unit cell volume = 5635.6
G =
[   0.380338   0.380338         -0  ]
[   0.380338  -0.380338         -0  ]
[         -0         -0   0.152135  ]
Minimum fftbox size, Smin = [  60  60  204  ]
Chosen fftbox size, S = [  60  60  210  ]

---------- Exchange Correlation functional ----------
Initialized LibXC exchange functional 'Hammer, Hansen, and Norskov'
Initialized LibXC correlation functional 'Perdew, Burke & Ernzerhof'

---------- Setting up pseudopotentials ----------
Width of ionic core gaussian charges (only for fluid interactions / plotting) set to 0

Reading pseudopotential file '/data2/jt577/jdftx_eat_withLibXC/build/pseudopotentials/SG15/V_ONCV_PBE.upf':
  'V' pseudopotential, 'PBE' functional
  Generated using ONCVPSP code by D. R. Hamann
  Author: Martin Schlipf and Francois Gygi  Date: 150915.
  13 valence electrons, 4 orbitals, 6 projectors, 1536 radial grid points, with lMax = 2
  Transforming local potential to a uniform radial grid of dG=0.02 with 1398 points.
  Transforming nonlocal projectors to a uniform radial grid of dG=0.02 with 528 points.
    3S    l: 0   occupation:  2.0   eigenvalue: -2.581105
    3P    l: 1   occupation:  6.0   eigenvalue: -1.618486
    4S    l: 0   occupation:  2.0   eigenvalue: -0.172804
    3D    l: 2   occupation:  3.0   eigenvalue: -0.189795
  Transforming atomic orbitals to a uniform radial grid of dG=0.02 with 528 points.
  Core radius for overlap checks: 1.80 bohrs.
  Reading pulay file /data2/jt577/jdftx_eat_withLibXC/build/pseudopotentials/SG15/V_ONCV_PBE.pulay ... using dE_dnG = -1.698632e-04 computed for Ecut = 30.

Reading pseudopotential file '/data2/jt577/jdftx_eat_withLibXC/build/pseudopotentials/SG15/O_ONCV_PBE.upf':
  'O' pseudopotential, 'PBE' functional
  Generated using ONCVPSP code by D. R. Hamann
  Author: Martin Schlipf and Francois Gygi  Date: 150915.
  6 valence electrons, 2 orbitals, 4 projectors, 936 radial grid points, with lMax = 1
  Transforming local potential to a uniform radial grid of dG=0.02 with 1398 points.
  Transforming nonlocal projectors to a uniform radial grid of dG=0.02 with 528 points.
    2S    l: 0   occupation:  2.0   eigenvalue: -0.880572
    2P    l: 1   occupation:  4.0   eigenvalue: -0.331869
  Transforming atomic orbitals to a uniform radial grid of dG=0.02 with 528 points.
  Core radius for overlap checks: 1.29 bohrs.
  Reading pulay file /data2/jt577/jdftx_eat_withLibXC/build/pseudopotentials/SG15/O_ONCV_PBE.pulay ... using dE_dnG = -8.209514e-03 computed for Ecut = 30.

Initialized 2 species with 33 total atoms.

Folded 1 k-points by 3x3x1 to 9 k-points.

---------- Setting up k-points, bands, fillings ----------
No reducable k-points. 
Computing the number of bands and number of electrons
Calculating initial fillings.
nElectrons: 310.000000   nBands: 228   nStates: 9

----- Setting up reduced wavefunction bases (one per k-point) -----
average nbasis = 44217.778 , ideal nbasis = 44229.907

---------- Setting up ewald sum ----------
Optimum gaussian width for ewald sums = 3.964038 bohr.
Real space sum over 605 unit cells with max indices [  5  5  2  ]
Reciprocal space sum over 5915 terms with max indices [  6  6  17  ]

---------- Allocating electronic variables ----------
Initializing wave functions:  linear combination of atomic orbitals
V pseudo-atom occupations:   s ( 2 0 )  p ( 6 )  d ( 5 )
O pseudo-atom occupations:   s ( 2 )  p ( 4 )
	FillingsUpdate:  mu: -0.330887831  nElectrons: 310.000000
LCAOMinimize: Iter:   0  F: -1387.5147665705746931  |grad|_K:  1.269e-02  alpha:  1.000e+00
	FillingsUpdate:  mu: +0.315010326  nElectrons: 310.000000
LCAOMinimize: Iter:   1  F: -1391.1621758296198550  |grad|_K:  2.318e-02  alpha:  1.140e-01  linmin:  1.244e-02  cgtest: -3.958e-01  t[s]:     43.57
	FillingsUpdate:  mu: +0.396308138  nElectrons: 310.000000
LCAOMinimize: Iter:   2  F: -1392.0938630209550411  |grad|_K:  3.096e-02  alpha:  6.528e-03  linmin: -7.507e-03  cgtest:  7.741e-01  t[s]:     58.40
	FillingsUpdate:  mu: +0.583421327  nElectrons: 310.000000
LCAOMinimize: Iter:   3  F: -1396.5832587440979751  |grad|_K:  2.947e-02  alpha:  1.457e-02  linmin: -2.426e-02  cgtest:  6.208e-01  t[s]:     73.34
LCAOMinimize: 	Predicted alpha/alphaT>3.000000, increasing alphaT to 4.370964e-02.
	FillingsUpdate:  mu: +0.207467778  nElectrons: 310.000000
LCAOMinimize: Iter:   4  F: -1402.4617043082444070  |grad|_K:  1.698e-02  alpha:  1.280e-02  linmin: -9.602e-02  cgtest:  9.002e-01  t[s]:     92.86
LCAOMinimize: Encountered beta<0, resetting CG.
	FillingsUpdate:  mu: +0.062332173  nElectrons: 310.000000
LCAOMinimize: Iter:   5  F: -1403.8193285332220057  |grad|_K:  1.053e-02  alpha:  1.900e-02  linmin: -3.169e-02  cgtest:  1.361e-01  t[s]:    108.23
	FillingsUpdate:  mu: -0.135039048  nElectrons: 310.000000
LCAOMinimize: Iter:   6  F: -1404.1005808182219425  |grad|_K:  2.547e-02  alpha:  3.459e-02  linmin:  5.251e-02  cgtest: -3.679e-01  t[s]:    123.03
LCAOMinimize: 	Bad step direction: g.d > 0.
LCAOMinimize: 	Undoing step.
LCAOMinimize: 	Step failed: resetting search direction.
	FillingsUpdate:  mu: -0.135039048  nElectrons: 310.000000
LCAOMinimize: Iter:   7  F: -1404.1005808182237615  |grad|_K:  2.547e-02  alpha:  0.000e+00
	FillingsUpdate:  mu: -0.008657874  nElectrons: 310.000000
LCAOMinimize: Iter:   8  F: -1405.3391371513910144  |grad|_K:  1.336e-02  alpha:  8.920e-03  linmin:  6.997e-02  cgtest: -3.805e-01  t[s]:    148.67
	FillingsUpdate:  mu: +0.225424664  nElectrons: 310.000000
LCAOMinimize: Iter:   9  F: -1405.9609881280787249  |grad|_K:  1.444e-02  alpha:  2.615e-02  linmin:  4.521e-03  cgtest:  6.960e-01  t[s]:    163.55
	FillingsUpdate:  mu: +0.155891602  nElectrons: 310.000000
LCAOMinimize: Iter:  10  F: -1406.7051443974598897  |grad|_K:  9.594e-03  alpha:  1.336e-02  linmin: -2.970e-02  cgtest:  7.219e-02  t[s]:    179.00
	FillingsUpdate:  mu: +0.031100170  nElectrons: 310.000000
LCAOMinimize: Iter:  11  F: -1407.2698715446902042  |grad|_K:  9.136e-03  alpha:  2.731e-02  linmin:  3.668e-02  cgtest: -1.419e-01  t[s]:    194.80
	FillingsUpdate:  mu: -0.031203739  nElectrons: 310.000000
LCAOMinimize: Iter:  12  F: -1407.7027023305720377  |grad|_K:  1.488e-02  alpha:  3.284e-02  linmin: -3.018e-03  cgtest:  6.842e-01  t[s]:    210.08
	FillingsUpdate:  mu: +0.165318266  nElectrons: 310.000000
LCAOMinimize: Iter:  13  F: -1408.5071833151268947  |grad|_K:  6.209e-03  alpha:  1.455e-02  linmin:  2.349e-03  cgtest: -3.624e-01  t[s]:    225.18
	FillingsUpdate:  mu: +0.230026290  nElectrons: 310.000000
LCAOMinimize: Iter:  14  F: -1408.5839865440757421  |grad|_K:  3.412e-03  alpha:  9.073e-03  linmin:  9.555e-04  cgtest:  2.565e-01  t[s]:    240.19
LCAOMinimize: 	Predicted alpha/alphaT>3.000000, increasing alphaT to 2.721941e-02.
	FillingsUpdate:  mu: +0.186662324  nElectrons: 310.000000
LCAOMinimize: Iter:  15  F: -1408.6802834134409750  |grad|_K:  3.467e-03  alpha:  3.522e-02  linmin:  6.939e-04  cgtest:  3.155e-02  t[s]:    259.44
	FillingsUpdate:  mu: +0.194339424  nElectrons: 310.000000
LCAOMinimize: Iter:  16  F: -1408.7119622984059788  |grad|_K:  2.490e-03  alpha:  1.114e-02  linmin: -6.797e-04  cgtest: -3.190e-02  t[s]:    274.35
	FillingsUpdate:  mu: +0.207688668  nElectrons: 310.000000
LCAOMinimize: Iter:  17  F: -1408.7519937059198583  |grad|_K:  1.244e-03  alpha:  2.754e-02  linmin:  4.181e-03  cgtest: -2.168e-01  t[s]:    289.18
	FillingsUpdate:  mu: +0.194633010  nElectrons: 310.000000
LCAOMinimize: Iter:  18  F: -1408.7623370508795233  |grad|_K:  9.835e-04  alpha:  2.927e-02  linmin:  7.216e-04  cgtest:  1.954e-02  t[s]:    304.11
	FillingsUpdate:  mu: +0.192970242  nElectrons: 310.000000
LCAOMinimize: Iter:  19  F: -1408.7648946886390604  |grad|_K:  7.472e-04  alpha:  1.090e-02  linmin: -2.707e-03  cgtest:  6.413e-02  t[s]:    319.36
	FillingsUpdate:  mu: +0.199465731  nElectrons: 310.000000
LCAOMinimize: Iter:  20  F: -1408.7675735944828830  |grad|_K:  3.276e-04  alpha:  1.982e-02  linmin: -1.511e-03  cgtest: -5.760e-02  t[s]:    334.30
LCAOMinimize: 	Predicted alpha/alphaT>3.000000, increasing alphaT to 5.944944e-02.
	FillingsUpdate:  mu: +0.201011128  nElectrons: 310.000000
LCAOMinimize: Iter:  21  F: -1408.7704506702539220  |grad|_K:  6.413e-04  alpha:  1.149e-01  linmin:  1.207e-03  cgtest: -1.820e-03  t[s]:    353.70
	FillingsUpdate:  mu: +0.203633773  nElectrons: 310.000000
LCAOMinimize: Iter:  22  F: -1408.7715146471512071  |grad|_K:  4.671e-04  alpha:  9.243e-03  linmin: -9.788e-03  cgtest:  3.822e-01  t[s]:    368.59
	FillingsUpdate:  mu: +0.208498519  nElectrons: 310.000000
LCAOMinimize: Iter:  23  F: -1408.7729172504582493  |grad|_K:  2.923e-04  alpha:  2.464e-02  linmin: -8.465e-04  cgtest: -2.674e-01  t[s]:    383.78
	FillingsUpdate:  mu: +0.207686682  nElectrons: 310.000000
LCAOMinimize: Iter:  24  F: -1408.7732831302816976  |grad|_K:  3.497e-04  alpha:  1.788e-02  linmin:  8.345e-05  cgtest:  4.669e-02  t[s]:    398.82
	FillingsUpdate:  mu: +0.207879449  nElectrons: 310.000000
LCAOMinimize: Iter:  25  F: -1408.7739493348562974  |grad|_K:  2.857e-04  alpha:  2.322e-02  linmin:  8.347e-04  cgtest:  3.720e-02  t[s]:    413.79
	FillingsUpdate:  mu: +0.210871145  nElectrons: 310.000000
LCAOMinimize: Iter:  26  F: -1408.7746089577071871  |grad|_K:  3.094e-04  alpha:  3.494e-02  linmin:  9.030e-04  cgtest:  1.481e-02  t[s]:    428.64
	FillingsUpdate:  mu: +0.210546995  nElectrons: 310.000000
LCAOMinimize: Iter:  27  F: -1408.7754612075293608  |grad|_K:  5.248e-04  alpha:  3.843e-02  linmin: -1.402e-06  cgtest:  1.861e-02  t[s]:    443.59
	FillingsUpdate:  mu: +0.211321543  nElectrons: 310.000000
LCAOMinimize: Iter:  28  F: -1408.7761687914755839  |grad|_K:  1.372e-04  alpha:  9.908e-03  linmin: -7.727e-03  cgtest:  2.828e-01  t[s]:    458.72
LCAOMinimize: Encountered beta<0, resetting CG.
	FillingsUpdate:  mu: +0.210349128  nElectrons: 310.000000
LCAOMinimize: Iter:  29  F: -1408.7762576590625940  |grad|_K:  7.022e-05  alpha:  1.998e-02  linmin: -1.325e-03  cgtest:  5.376e-03  t[s]:    473.58
	FillingsUpdate:  mu: +0.210849280  nElectrons: 310.000000
LCAOMinimize: Iter:  30  F: -1408.7762844823823798  |grad|_K:  7.833e-05  alpha:  2.299e-02  linmin: -3.611e-05  cgtest: -3.671e-03  t[s]:    488.59
LCAOMinimize: None of the convergence criteria satisfied after 30 iterations.


---- Citations for features of the code used in this run ----

   Software package:
      R. Sundararaman, K. Letchworth-Weaver, K.A. Schwarz, D. Gunceler, Y. Ozhabes and T.A. Arias, 'JDFTx: software for joint density-functional theory', SoftwareX 6, 278 (2017)

   LibXC library of exchange-correlation functions:
      M. A. L. Marques, M. J. T. Oliveira and T. Burnus, Comput. Phys. Commun. 183, 2272 (2012)

   Hammer, Hansen, and Norskov exchange functional:
      B. Hammer, L. B. Hansen, and J. K. Nørskov, Phys. Rev. B 59, 7413 (1999)

   Perdew, Burke & Ernzerhof correlation functional:
      J. P. Perdew, K. Burke, and M. Ernzerhof, Phys. Rev. Lett. 77, 3865 (1996)

   Pseudopotentials:
      M Schlipf and F Gygi, Comput. Phys. Commun. 196, 36 (2015)

   Total energy minimization with Auxiliary Hamiltonian:
      C. Freysoldt, S. Boeck, and J. Neugebauer, Phys. Rev. B 79, 241103(R) (2009)

This list may not be complete. Please suggest additional citations or
report any other bugs at https://github.com/shankar1729/jdftx/issues

Initialization completed successfully at t[s]:    493.60


-------- Electronic minimization -----------
	FillingsUpdate:  mu: +0.210849282  nElectrons: 310.000000
ElecMinimize: Iter:   0  F: -1408.776284482386473  |grad|_K:  1.429e-04  alpha:  1.000e+00
	FillingsUpdate:  mu: +0.137039072  nElectrons: 310.000000
	SubspaceRotationAdjust: set factor to 0.548
ElecMinimize: Iter:   1  F: -1409.596647150624676  |grad|_K:  2.769e-04  alpha:  4.414e-01  linmin:  1.411e-05  t[s]:    542.25
ElecMinimize: 	Step increased F by 9.291455e-03, reducing alpha to 1.247148e-03.
	FillingsUpdate:  mu: +0.153135151  nElectrons: 310.000000
	SubspaceRotationAdjust: set factor to 0.369
ElecMinimize: Iter:   2  F: -1409.614237431678930  |grad|_K:  1.613e-04  alpha:  1.247e-03  linmin: -2.998e-03  t[s]:    597.25
ElecMinimize: 	Predicted alpha/alphaT>3.000000, increasing alphaT to 3.741444e-03.
	FillingsUpdate:  mu: +0.177295187  nElectrons: 310.000000
	SubspaceRotationAdjust: set factor to 0.232
ElecMinimize: Iter:   3  F: -1409.642671261105988  |grad|_K:  9.503e-05  alpha:  6.951e-03  linmin:  1.999e-05  t[s]:    639.91
ElecMinimize: 	Predicted alpha/alphaT>3.000000, increasing alphaT to 2.085251e-02.
	FillingsUpdate:  mu: +0.135585706  nElectrons: 310.000000
	SubspaceRotationAdjust: set factor to 0.154
ElecMinimize: Iter:   4  F: -1409.663702350831045  |grad|_K:  1.473e-04  alpha:  2.576e-02  linmin:  2.996e-06  t[s]:    682.60
	FillingsUpdate:  mu: +0.111478703  nElectrons: 310.000000
	SubspaceRotationAdjust: set factor to 0.0829
	SubspaceRotationAdjust: resetting CG because factor has changed by 0.0828634
ElecMinimize: 	State modified externally: resetting search direction.
ElecMinimize: Iter:   5  F: -1409.732372721724005  |grad|_K:  1.517e-04  alpha:  3.481e-02
	FillingsUpdate:  mu: +0.175514567  nElectrons: 310.000000
	SubspaceRotationAdjust: set factor to 0.038
ElecMinimize: Iter:   6  F: -1409.872406407518611  |grad|_K:  4.679e-05  alpha:  6.709e-02  linmin:  9.552e-04  t[s]:    764.63
ElecMinimize: 	Predicted alpha/alphaT>3.000000, increasing alphaT to 2.012689e-01.
ElecMinimize: 	Predicted alpha/alphaT>3.000000, increasing alphaT to 6.038068e-01.
	FillingsUpdate:  mu: +0.171185156  nElectrons: 310.000000
	SubspaceRotationAdjust: set factor to 0.0334
ElecMinimize: Iter:   7  F: -1409.993646343492628  |grad|_K:  4.148e-05  alpha:  6.118e-01  linmin:  1.288e-04  t[s]:    817.59
	FillingsUpdate:  mu: +0.159799374  nElectrons: 310.000000
	SubspaceRotationAdjust: set factor to 0.0386
ElecMinimize: Iter:   8  F: -1410.074673998498383  |grad|_K:  2.582e-05  alpha:  5.202e-01  linmin:  7.424e-05  t[s]:    851.22
	FillingsUpdate:  mu: +0.155367497  nElectrons: 310.000000
	SubspaceRotationAdjust: set factor to 0.0395
ElecMinimize: Iter:   9  F: -1410.096900122411853  |grad|_K:  1.725e-05  alpha:  3.676e-01  linmin: -1.455e-06  t[s]:    885.99
	FillingsUpdate:  mu: +0.148175136  nElectrons: 310.000000
	SubspaceRotationAdjust: set factor to 0.0331
ElecMinimize: Iter:  10  F: -1410.108525101403302  |grad|_K:  1.743e-05  alpha:  4.291e-01  linmin: -6.463e-05  t[s]:    919.34
	FillingsUpdate:  mu: +0.150048207  nElectrons: 310.000000
	SubspaceRotationAdjust: set factor to 0.027
ElecMinimize: Iter:  11  F: -1410.117683457203839  |grad|_K:  1.265e-05  alpha:  3.300e-01  linmin: -5.991e-05  t[s]:    952.62
	FillingsUpdate:  mu: +0.150967247  nElectrons: 310.000000
	SubspaceRotationAdjust: set factor to 0.0318
ElecMinimize: Iter:  12  F: -1410.126456135326407  |grad|_K:  1.097e-05  alpha:  5.967e-01  linmin: -9.423e-05  t[s]:    986.38
	FillingsUpdate:  mu: +0.150357113  nElectrons: 310.000000
	SubspaceRotationAdjust: set factor to 0.0347
ElecMinimize: Iter:  13  F: -1410.134944854610694  |grad|_K:  1.161e-05  alpha:  7.630e-01  linmin: -6.098e-05  t[s]:   1019.93
	FillingsUpdate:  mu: +0.147750702  nElectrons: 310.000000
	SubspaceRotationAdjust: set factor to 0.0317
ElecMinimize: Iter:  14  F: -1410.141331563977701  |grad|_K:  1.148e-05  alpha:  5.153e-01  linmin: -5.200e-05  t[s]:   1053.37
	FillingsUpdate:  mu: +0.147553577  nElectrons: 310.000000
	SubspaceRotationAdjust: set factor to 0.0248
ElecMinimize: Iter:  15  F: -1410.146255703536781  |grad|_K:  1.063e-05  alpha:  4.060e-01  linmin: -4.597e-05  t[s]:   1086.89
	FillingsUpdate:  mu: +0.149444873  nElectrons: 310.000000
	SubspaceRotationAdjust: set factor to 0.0242
ElecMinimize: Iter:  16  F: -1410.151935697211002  |grad|_K:  9.674e-06  alpha:  5.441e-01  linmin: -4.603e-05  t[s]:   1120.38
	FillingsUpdate:  mu: +0.148333113  nElectrons: 310.000000
	SubspaceRotationAdjust: set factor to 0.0266
ElecMinimize: Iter:  17  F: -1410.156602165351387  |grad|_K:  8.201e-06  alpha:  5.385e-01  linmin: -2.721e-05  t[s]:   1153.64
	FillingsUpdate:  mu: +0.147754375  nElectrons: 310.000000
	SubspaceRotationAdjust: set factor to 0.0241
ElecMinimize: Iter:  18  F: -1410.159623039106464  |grad|_K:  7.215e-06  alpha:  4.892e-01  linmin: -1.058e-05  t[s]:   1187.01
	FillingsUpdate:  mu: +0.148548530  nElectrons: 310.000000
	SubspaceRotationAdjust: set factor to 0.021
ElecMinimize: Iter:  19  F: -1410.161945031408322  |grad|_K:  6.097e-06  alpha:  4.887e-01  linmin: -4.745e-06  t[s]:   1220.24
	FillingsUpdate:  mu: +0.149550394  nElectrons: 310.000000
	SubspaceRotationAdjust: set factor to 0.0224
ElecMinimize: Iter:  20  F: -1410.163697657413877  |grad|_K:  5.054e-06  alpha:  5.175e-01  linmin: -8.118e-06  t[s]:   1253.63
	FillingsUpdate:  mu: +0.149821345  nElectrons: 310.000000
	SubspaceRotationAdjust: set factor to 0.024
ElecMinimize: Iter:  21  F: -1410.164941479150229  |grad|_K:  4.523e-06  alpha:  5.338e-01  linmin: -9.751e-06  t[s]:   1286.97
	FillingsUpdate:  mu: +0.150219888  nElectrons: 310.000000
	SubspaceRotationAdjust: set factor to 0.0234
ElecMinimize: Iter:  22  F: -1410.165840064891881  |grad|_K:  3.761e-06  alpha:  4.813e-01  linmin: -8.458e-06  t[s]:   1320.44
	FillingsUpdate:  mu: +0.150975190  nElectrons: 310.000000
	SubspaceRotationAdjust: set factor to 0.0248
ElecMinimize: Iter:  23  F: -1410.166523233529688  |grad|_K:  3.241e-06  alpha:  5.296e-01  linmin: -9.874e-06  t[s]:   1354.28
	FillingsUpdate:  mu: +0.151486099  nElectrons: 310.000000
	SubspaceRotationAdjust: set factor to 0.0281
ElecMinimize: Iter:  24  F: -1410.167053160995692  |grad|_K:  3.024e-06  alpha:  5.528e-01  linmin: -8.501e-06  t[s]:   1387.74
	FillingsUpdate:  mu: +0.151777734  nElectrons: 310.000000
	SubspaceRotationAdjust: set factor to 0.0304
ElecMinimize: Iter:  25  F: -1410.167520994184997  |grad|_K:  2.962e-06  alpha:  5.608e-01  linmin: -7.903e-06  t[s]:   1420.90
	FillingsUpdate:  mu: +0.152212388  nElectrons: 310.000000
	SubspaceRotationAdjust: set factor to 0.0304
ElecMinimize: Iter:  26  F: -1410.167980388554952  |grad|_K:  3.103e-06  alpha:  5.738e-01  linmin: -8.226e-06  t[s]:   1454.25
	FillingsUpdate:  mu: +0.152540858  nElectrons: 310.000000
	SubspaceRotationAdjust: set factor to 0.0285
ElecMinimize: Iter:  27  F: -1410.168464851947192  |grad|_K:  3.185e-06  alpha:  5.510e-01  linmin: -6.082e-06  t[s]:   1488.05
	FillingsUpdate:  mu: +0.153236988  nElectrons: 310.000000
	SubspaceRotationAdjust: set factor to 0.0273
ElecMinimize: Iter:  28  F: -1410.168959725932382  |grad|_K:  3.018e-06  alpha:  5.344e-01  linmin: -5.374e-06  t[s]:   1521.67
	FillingsUpdate:  mu: +0.153556621  nElectrons: 310.000000
	SubspaceRotationAdjust: set factor to 0.0281
ElecMinimize: Iter:  29  F: -1410.169406826325712  |grad|_K:  2.680e-06  alpha:  5.380e-01  linmin: -4.115e-06  t[s]:   1555.27
	FillingsUpdate:  mu: +0.153819300  nElectrons: 310.000000
	SubspaceRotationAdjust: set factor to 0.0296
ElecMinimize: Iter:  30  F: -1410.169772669051099  |grad|_K:  2.411e-06  alpha:  5.586e-01  linmin: -1.656e-06  t[s]:   1588.58
	FillingsUpdate:  mu: +0.153895753  nElectrons: 310.000000
	SubspaceRotationAdjust: set factor to 0.0288
ElecMinimize: Iter:  31  F: -1410.170033523975462  |grad|_K:  2.066e-06  alpha:  4.930e-01  linmin:  3.981e-07  t[s]:   1622.33
	FillingsUpdate:  mu: +0.153679848  nElectrons: 310.000000
	SubspaceRotationAdjust: set factor to 0.0247
ElecMinimize: Iter:  32  F: -1410.170201550755564  |grad|_K:  1.643e-06  alpha:  4.328e-01  linmin:  9.119e-07  t[s]:   1655.47
	FillingsUpdate:  mu: +0.153724930  nElectrons: 310.000000
	SubspaceRotationAdjust: set factor to 0.0221
ElecMinimize: Iter:  33  F: -1410.170308431034755  |grad|_K:  1.275e-06  alpha:  4.354e-01  linmin:  1.542e-06  t[s]:   1688.89
	FillingsUpdate:  mu: +0.153668824  nElectrons: 310.000000
	SubspaceRotationAdjust: set factor to 0.024
ElecMinimize: Iter:  34  F: -1410.170376181140909  |grad|_K:  9.968e-07  alpha:  4.586e-01  linmin:  1.135e-06  t[s]:   1722.94
	FillingsUpdate:  mu: +0.153559503  nElectrons: 310.000000
	SubspaceRotationAdjust: set factor to 0.0253
ElecMinimize: Iter:  35  F: -1410.170417738742344  |grad|_K:  8.045e-07  alpha:  4.599e-01  linmin:  1.203e-06  t[s]:   1756.36
	FillingsUpdate:  mu: +0.153521108  nElectrons: 310.000000
	SubspaceRotationAdjust: set factor to 0.0246
ElecMinimize: Iter:  36  F: -1410.170446540141029  |grad|_K:  6.693e-07  alpha:  4.894e-01  linmin:  1.271e-06  t[s]:   1789.76
	FillingsUpdate:  mu: +0.153412629  nElectrons: 310.000000
	SubspaceRotationAdjust: set factor to 0.0256
ElecMinimize: Iter:  37  F: -1410.170465889035540  |grad|_K:  5.638e-07  alpha:  4.750e-01  linmin:  2.411e-06  t[s]:   1822.87
	FillingsUpdate:  mu: +0.153313206  nElectrons: 310.000000
	SubspaceRotationAdjust: set factor to 0.029
ElecMinimize: Iter:  38  F: -1410.170480377685863  |grad|_K:  4.874e-07  alpha:  5.012e-01  linmin:  4.012e-06  t[s]:   1856.59
	FillingsUpdate:  mu: +0.153226677  nElectrons: 310.000000
	SubspaceRotationAdjust: set factor to 0.0311
ElecMinimize: Iter:  39  F: -1410.170491969807244  |grad|_K:  4.552e-07  alpha:  5.369e-01  linmin:  5.513e-06  t[s]:   1890.02
	FillingsUpdate:  mu: +0.153095089  nElectrons: 310.000000
	SubspaceRotationAdjust: set factor to 0.0298
ElecMinimize: Iter:  40  F: -1410.170501179231223  |grad|_K:  4.346e-07  alpha:  4.890e-01  linmin:  4.060e-06  t[s]:   1923.55
	FillingsUpdate:  mu: +0.153011124  nElectrons: 310.000000
	SubspaceRotationAdjust: set factor to 0.0277
ElecMinimize: Iter:  41  F: -1410.170509256249716  |grad|_K:  3.958e-07  alpha:  4.704e-01  linmin:  2.038e-06  t[s]:   1957.11
	FillingsUpdate:  mu: +0.152904593  nElectrons: 310.000000
	SubspaceRotationAdjust: set factor to 0.0281
ElecMinimize: Iter:  42  F: -1410.170516175144712  |grad|_K:  3.395e-07  alpha:  4.858e-01  linmin: -1.907e-06  t[s]:   1990.43
	FillingsUpdate:  mu: +0.152831312  nElectrons: 310.000000
	SubspaceRotationAdjust: set factor to 0.0308
ElecMinimize: Iter:  43  F: -1410.170521400009420  |grad|_K:  2.912e-07  alpha:  4.980e-01  linmin: -6.008e-06  t[s]:   2023.59
	FillingsUpdate:  mu: +0.152774068  nElectrons: 310.000000
	SubspaceRotationAdjust: set factor to 0.032
ElecMinimize: Iter:  44  F: -1410.170525329309385  |grad|_K:  2.678e-07  alpha:  5.084e-01  linmin: -8.639e-06  t[s]:   2057.20
	FillingsUpdate:  mu: +0.152714443  nElectrons: 310.000000
	SubspaceRotationAdjust: set factor to 0.0293
ElecMinimize: Iter:  45  F: -1410.170528351073244  |grad|_K:  2.454e-07  alpha:  4.621e-01  linmin: -9.831e-06  t[s]:   2091.54
	FillingsUpdate:  mu: +0.152699327  nElectrons: 310.000000
	SubspaceRotationAdjust: set factor to 0.0262
ElecMinimize: Iter:  46  F: -1410.170530683746392  |grad|_K:  2.124e-07  alpha:  4.246e-01  linmin: -7.824e-06  t[s]:   2125.41
	FillingsUpdate:  mu: +0.152657897  nElectrons: 310.000000
	SubspaceRotationAdjust: set factor to 0.0282
ElecMinimize: Iter:  47  F: -1410.170532701376487  |grad|_K:  1.839e-07  alpha:  4.901e-01  linmin: -7.296e-06  t[s]:   2158.90
	FillingsUpdate:  mu: +0.152628443  nElectrons: 310.000000
	SubspaceRotationAdjust: set factor to 0.0314
ElecMinimize: Iter:  48  F: -1410.170534311273968  |grad|_K:  1.692e-07  alpha:  5.215e-01  linmin: -6.295e-06  t[s]:   2192.09
	FillingsUpdate:  mu: +0.152622131  nElectrons: 310.000000
	SubspaceRotationAdjust: set factor to 0.0309
ElecMinimize: Iter:  49  F: -1410.170535595034607  |grad|_K:  1.604e-07  alpha:  4.913e-01  linmin: -3.701e-06  t[s]:   2225.19
	FillingsUpdate:  mu: +0.152603900  nElectrons: 310.000000
	SubspaceRotationAdjust: set factor to 0.0277
ElecMinimize: Iter:  50  F: -1410.170536645332277  |grad|_K:  1.490e-07  alpha:  4.480e-01  linmin: -3.131e-06  t[s]:   2258.39
	FillingsUpdate:  mu: +0.152611938  nElectrons: 310.000000
	SubspaceRotationAdjust: set factor to 0.028
ElecMinimize: Iter:  51  F: -1410.170537601246224  |grad|_K:  1.314e-07  alpha:  4.723e-01  linmin: -1.649e-06  t[s]:   2293.20
	FillingsUpdate:  mu: +0.152620248  nElectrons: 310.000000
	SubspaceRotationAdjust: set factor to 0.0311
ElecMinimize: Iter:  52  F: -1410.170538418722344  |grad|_K:  1.188e-07  alpha:  5.201e-01  linmin: -1.590e-06  t[s]:   2326.66
	FillingsUpdate:  mu: +0.152623002  nElectrons: 310.000000
	SubspaceRotationAdjust: set factor to 0.0314
ElecMinimize: Iter:  53  F: -1410.170539077277226  |grad|_K:  1.121e-07  alpha:  5.129e-01  linmin: -1.227e-06  t[s]:   2359.74
	FillingsUpdate:  mu: +0.152637942  nElectrons: 310.000000
	SubspaceRotationAdjust: set factor to 0.0273
ElecMinimize: Iter:  54  F: -1410.170539580914237  |grad|_K:  1.016e-07  alpha:  4.404e-01  linmin: -5.019e-07  t[s]:   2393.10
	FillingsUpdate:  mu: +0.152640177  nElectrons: 310.000000
	SubspaceRotationAdjust: set factor to 0.025
ElecMinimize: Iter:  55  F: -1410.170539975117208  |grad|_K:  8.457e-08  alpha:  4.200e-01  linmin: -3.437e-07  t[s]:   2426.26
ElecMinimize: Converged (|Delta F|<1.000000e-06 for 5 iters).
Setting wave functions to eigenvectors of Hamiltonian

# Ionic positions in lattice coordinates:
ion V   0.000000000000000   0.000000000000000   0.150000000000000 1
ion V   0.500000000000000   0.000000000000000   0.150000000000000 1
ion V   0.000000000000000   0.500000000000000   0.150000000000000 1
ion V   0.500000000000000   0.500000000000000   0.150000000000000 1
ion V   0.250000000000000   0.250000000000000   0.050000000000000 1
ion V   0.250000000000000   0.750000000000000   0.050000000000000 1
ion V  -0.250000000000000   0.250000000000000   0.050000000000000 1
ion V  -0.250000000000000   0.750000000000000   0.050000000000000 1
ion V   0.000000000000000   0.000000000000000  -0.050000000000000 0
ion V   0.500000000000000   0.000000000000000  -0.050000000000000 0
ion V   0.000000000000000   0.500000000000000  -0.050000000000000 0
ion V   0.500000000000000   0.500000000000000  -0.050000000000000 0
ion V   0.250000000000000   0.250000000000000  -0.150000000000000 0
ion V   0.250000000000000   0.750000000000000  -0.150000000000000 0
ion V  -0.250000000000000   0.250000000000000  -0.150000000000000 0
ion V  -0.250000000000000   0.750000000000000  -0.150000000000000 0
ion O   0.250000000000000   0.250000000000000   0.150000000000000 1
ion O   0.250000000000000   0.750000000000000   0.150000000000000 1
ion O  -0.250000000000000   0.250000000000000   0.150000000000000 1
ion O  -0.250000000000000   0.750000000000000   0.150000000000000 1
ion O   0.000000000000000   0.000000000000000   0.050000000000000 1
ion O   0.500000000000000   0.000000000000000   0.050000000000000 1
ion O   0.000000000000000   0.500000000000000   0.050000000000000 1
ion O   0.500000000000000   0.500000000000000   0.050000000000000 1
ion O   0.250000000000000   0.250000000000000  -0.050000000000000 0
ion O   0.250000000000000   0.750000000000000  -0.050000000000000 0
ion O  -0.250000000000000   0.250000000000000  -0.050000000000000 0
ion O  -0.250000000000000   0.750000000000000  -0.050000000000000 0
ion O   0.000000000000000   0.000000000000000  -0.150000000000000 0
ion O   0.500000000000000   0.000000000000000  -0.150000000000000 0
ion O   0.000000000000000   0.500000000000000  -0.150000000000000 0
ion O   0.500000000000000   0.500000000000000  -0.150000000000000 0
ion O   0.000000000000000   0.000000000000000   0.230000000000000 1

# Forces in Lattice coordinates:
force V   0.000012303501435   0.000001034517365   4.005529677232363 1
force V  -0.000005456163612  -0.000016812391799  -1.482575477051912 1
force V   0.000028910891551  -0.000004777496039  -1.482367118726801 1
force V  -0.000032428099318   0.000027084714341  -1.654109120747680 1
force V   0.018559400438448   0.018556026053463   0.616432986106058 1
force V   0.018572111856098  -0.018553859056076   0.616395152115982 1
force V  -0.018551150709797   0.018535786486447   0.616448764883370 1
force V  -0.018575141611150  -0.018538228700377   0.616435578934591 1
force V   0.000009428747352  -0.000004782563183  -0.199921495333155 0
force V  -0.000014598987432   0.000005970547867  -0.816036853959711 0
force V   0.000012805103731  -0.000002602388117  -0.816034733076525 0
force V  -0.000012797491602   0.000001876254040  -0.987921603909395 0
force V   0.001445223500088   0.001411660762882   1.288735549328497 0
force V   0.001406205422713  -0.001401653254549   1.288776144940331 0
force V  -0.001439697297087   0.001443725055793   1.288666622573141 0
force V  -0.001419719912468  -0.001442788515929   1.288579914761903 0
force O   0.046726621047082   0.046758203813943  -0.296403262261496 1
force O   0.046738593115149  -0.046774308718517  -0.296586252098358 1
force O  -0.046688338127855   0.046766001714064  -0.296588818815835 1
force O  -0.046700305615018  -0.046769150584673  -0.296408320427901 1
force O   0.000030363556999   0.000021837070921  -0.136469621775729 1
force O  -0.000036576038848   0.000044840827952   0.208888202622607 1
force O   0.000037721270488   0.000009317068391   0.208837327978592 1
force O  -0.000013623165371  -0.000068398603503   0.178828742789181 1
force O   0.001741062877152   0.001738080456450  -0.093106709105668 0
force O   0.001730275882420  -0.001747369041953  -0.093109361377285 0
force O  -0.001706487444081   0.001810290853331  -0.093232177997077 0
force O  -0.001717181517158  -0.001788499626158  -0.093148583527380 0
force O  -0.000006689070632   0.000015741035218   0.008497077900296 0
force O   0.000001533578482   0.000039623400098  -0.098147726371497 0
force O   0.000034894613360  -0.000007341397118  -0.098207558356622 0
force O  -0.000037183218795  -0.000029231470393  -0.034234996407198 0
force O   0.000002184988902  -0.000015707565996  -2.669535914338901 1

# Energy components:
   Eewald =     4425.3734192060783244
       EH =     5675.8139914192033757
     Eloc =   -11764.6160526530984498
      Enl =     -213.2786928586511408
   Epulay =       -0.0003062098084384
      Exc =     -195.7094332867776529
       KE =      662.2510033710162816
-------------------------------------
     Etot =    -1410.1660710120377189
       TS =        0.0044689630795671
-------------------------------------
        F =    -1410.1705399751172081

IonicMinimize: Iter:   0  F: -1410.170539975117208  |grad|_K:  1.935e-02  t[s]:   2434.79

#--- Lowdin population analysis ---
# oxidation-state V +1.091 +1.005 +1.005 +0.947 +0.871 +0.871 +0.871 +0.871 +0.870 +0.867 +0.867 +0.871 +0.891 +0.891 +0.891 +0.891
# oxidation-state O -0.797 -0.797 -0.797 -0.797 -0.808 -0.777 -0.777 -0.774 -0.780 -0.780 -0.780 -0.780 -0.813 -0.812 -0.812 -0.809 -0.537


-------- Electronic minimization -----------
	FillingsUpdate:  mu: +0.138200770  nElectrons: 310.000000
ElecMinimize: Iter:   0  F: -1409.216707068619826  |grad|_K:  1.792e-04  alpha:  1.000e+00
	FillingsUpdate:  mu: +0.141832012  nElectrons: 310.000000
	SubspaceRotationAdjust: set factor to 0.0245
ElecMinimize: Iter:   1  F: -1410.002385485882542  |grad|_K:  4.723e-05  alpha:  2.810e-01  linmin:  6.564e-02  t[s]:   2491.09
	FillingsUpdate:  mu: +0.150965252  nElectrons: 310.000000
	SubspaceRotationAdjust: set factor to 0.0258
ElecMinimize: Iter:   2  F: -1410.057062877062663  |grad|_K:  1.620e-05  alpha:  2.819e-01  linmin: -3.737e-03  t[s]:   2524.63
	FillingsUpdate:  mu: +0.151691632  nElectrons: 310.000000
	SubspaceRotationAdjust: set factor to 0.0278
ElecMinimize: Iter:   3  F: -1410.067805574159138  |grad|_K:  1.173e-05  alpha:  4.470e-01  linmin: -8.248e-04  t[s]:   2558.33
	FillingsUpdate:  mu: +0.153210772  nElectrons: 310.000000
	SubspaceRotationAdjust: set factor to 0.0295
ElecMinimize: Iter:   4  F: -1410.074975200845302  |grad|_K:  1.232e-05  alpha:  5.694e-01  linmin: -2.097e-04  t[s]:   2591.71
	FillingsUpdate:  mu: +0.152277640  nElectrons: 310.000000
	SubspaceRotationAdjust: set factor to 0.0294
ElecMinimize: Iter:   5  F: -1410.087836463197164  |grad|_K:  1.808e-05  alpha:  9.218e-01  linmin: -4.093e-04  t[s]:   2626.03
	FillingsUpdate:  mu: +0.152303246  nElectrons: 310.000000
	SubspaceRotationAdjust: set factor to 0.0261
ElecMinimize: Iter:   6  F: -1410.108159714187195  |grad|_K:  2.101e-05  alpha:  6.595e-01  linmin:  2.851e-05  t[s]:   2660.21
	FillingsUpdate:  mu: +0.157049509  nElectrons: 310.000000
	SubspaceRotationAdjust: set factor to 0.024
ElecMinimize: Iter:   7  F: -1410.136951836374919  |grad|_K:  2.045e-05  alpha:  7.152e-01  linmin: -3.988e-04  t[s]:   2694.47
	FillingsUpdate:  mu: +0.154160423  nElectrons: 310.000000
	SubspaceRotationAdjust: set factor to 0.0224
ElecMinimize: Iter:   8  F: -1410.158688257758286  |grad|_K:  1.840e-05  alpha:  5.454e-01  linmin:  9.833e-05  t[s]:   2728.12
	FillingsUpdate:  mu: +0.155632370  nElectrons: 310.000000
	SubspaceRotationAdjust: set factor to 0.0229
ElecMinimize: Iter:   9  F: -1410.174240621404124  |grad|_K:  1.248e-05  alpha:  5.093e-01  linmin: -8.736e-05  t[s]:   2761.32
	FillingsUpdate:  mu: +0.154854200  nElectrons: 310.000000
	SubspaceRotationAdjust: set factor to 0.0233
ElecMinimize: Iter:  10  F: -1410.181023953211252  |grad|_K:  8.109e-06  alpha:  4.763e-01  linmin: -1.788e-05  t[s]:   2794.78
	FillingsUpdate:  mu: +0.154789062  nElectrons: 310.000000
	SubspaceRotationAdjust: set factor to 0.0217
ElecMinimize: Iter:  11  F: -1410.183875273799458  |grad|_K:  5.791e-06  alpha:  4.764e-01  linmin:  7.905e-05  t[s]:   2828.18
	FillingsUpdate:  mu: +0.155181419  nElectrons: 310.000000
	SubspaceRotationAdjust: set factor to 0.0202
ElecMinimize: Iter:  12  F: -1410.185081920453968  |grad|_K:  3.644e-06  alpha:  3.964e-01  linmin:  4.949e-05  t[s]:   2861.28
	FillingsUpdate:  mu: +0.155390650  nElectrons: 310.000000
	SubspaceRotationAdjust: set factor to 0.022
ElecMinimize: Iter:  13  F: -1410.185680856278395  |grad|_K:  2.492e-06  alpha:  4.964e-01  linmin:  1.125e-04  t[s]:   2894.79
	FillingsUpdate:  mu: +0.155458789  nElectrons: 310.000000
	SubspaceRotationAdjust: set factor to 0.0239
ElecMinimize: Iter:  14  F: -1410.185948977462658  |grad|_K:  1.950e-06  alpha:  4.753e-01  linmin:  7.851e-05  t[s]:   2928.38
	FillingsUpdate:  mu: +0.155465291  nElectrons: 310.000000
	SubspaceRotationAdjust: set factor to 0.027
ElecMinimize: Iter:  15  F: -1410.186108831211641  |grad|_K:  1.495e-06  alpha:  4.625e-01  linmin:  2.277e-05  t[s]:   2961.87
	FillingsUpdate:  mu: +0.155512128  nElectrons: 310.000000
	SubspaceRotationAdjust: set factor to 0.0322
ElecMinimize: Iter:  16  F: -1410.186224792434359  |grad|_K:  1.342e-06  alpha:  5.705e-01  linmin: -5.806e-06  t[s]:   2995.05
	FillingsUpdate:  mu: +0.155559981  nElectrons: 310.000000
	SubspaceRotationAdjust: set factor to 0.0387
ElecMinimize: Iter:  17  F: -1410.186317776310943  |grad|_K:  1.277e-06  alpha:  5.674e-01  linmin: -1.950e-05  t[s]:   3028.93
	FillingsUpdate:  mu: +0.155680141  nElectrons: 310.000000
	SubspaceRotationAdjust: set factor to 0.0452
ElecMinimize: Iter:  18  F: -1410.186414249526251  |grad|_K:  1.313e-06  alpha:  6.495e-01  linmin: -2.631e-05  t[s]:   3062.36
	FillingsUpdate:  mu: +0.155882450  nElectrons: 310.000000
	SubspaceRotationAdjust: set factor to 0.0506
ElecMinimize: Iter:  19  F: -1410.186513050709209  |grad|_K:  1.372e-06  alpha:  6.288e-01  linmin: -2.662e-05  t[s]:   3095.77
	FillingsUpdate:  mu: +0.155910431  nElectrons: 310.000000
	SubspaceRotationAdjust: set factor to 0.0482
ElecMinimize: Iter:  20  F: -1410.186601006934779  |grad|_K:  1.650e-06  alpha:  5.126e-01  linmin: -1.636e-05  t[s]:   3129.48
	FillingsUpdate:  mu: +0.156171294  nElectrons: 310.000000
	SubspaceRotationAdjust: set factor to 0.0353
ElecMinimize: Iter:  21  F: -1410.186661270269269  |grad|_K:  1.441e-06  alpha:  2.437e-01  linmin:  5.104e-06  t[s]:   3163.44
	FillingsUpdate:  mu: +0.156294641  nElectrons: 310.000000
	SubspaceRotationAdjust: set factor to 0.0346
ElecMinimize: Iter:  22  F: -1410.186739564279605  |grad|_K:  1.171e-06  alpha:  4.148e-01  linmin: -4.667e-06  t[s]:   3196.86
	FillingsUpdate:  mu: +0.156369390  nElectrons: 310.000000
	SubspaceRotationAdjust: set factor to 0.0385
ElecMinimize: Iter:  23  F: -1410.186804167369019  |grad|_K:  9.957e-07  alpha:  5.180e-01  linmin: -1.217e-05  t[s]:   3230.26
	FillingsUpdate:  mu: +0.156400342  nElectrons: 310.000000
	SubspaceRotationAdjust: set factor to 0.0368
ElecMinimize: Iter:  24  F: -1410.186845142341781  |grad|_K:  9.331e-07  alpha:  4.538e-01  linmin: -7.903e-06  t[s]:   3263.92
	FillingsUpdate:  mu: +0.156310226  nElectrons: 310.000000
	SubspaceRotationAdjust: set factor to 0.0292
ElecMinimize: Iter:  25  F: -1410.186870377332298  |grad|_K:  7.942e-07  alpha:  3.183e-01  linmin:  1.458e-06  t[s]:   3297.34
	FillingsUpdate:  mu: +0.156268985  nElectrons: 310.000000
	SubspaceRotationAdjust: set factor to 0.0311
ElecMinimize: Iter:  26  F: -1410.186893253815242  |grad|_K:  6.168e-07  alpha:  3.986e-01  linmin: -1.689e-06  t[s]:   3330.96
	FillingsUpdate:  mu: +0.156173357  nElectrons: 310.000000
	SubspaceRotationAdjust: set factor to 0.0371
ElecMinimize: Iter:  27  F: -1410.186910113929798  |grad|_K:  5.311e-07  alpha:  4.871e-01  linmin:  5.290e-06  t[s]:   3365.24
	FillingsUpdate:  mu: +0.156044976  nElectrons: 310.000000
	SubspaceRotationAdjust: set factor to 0.0375
ElecMinimize: Iter:  28  F: -1410.186921159985786  |grad|_K:  5.037e-07  alpha:  4.307e-01  linmin:  4.973e-06  t[s]:   3399.00
	FillingsUpdate:  mu: +0.155965362  nElectrons: 310.000000
	SubspaceRotationAdjust: set factor to 0.0342
ElecMinimize: Iter:  29  F: -1410.186929764897513  |grad|_K:  4.663e-07  alpha:  3.729e-01  linmin:  2.506e-06  t[s]:   3432.22
	FillingsUpdate:  mu: +0.155825568  nElectrons: 310.000000
	SubspaceRotationAdjust: set factor to 0.0368
ElecMinimize: Iter:  30  F: -1410.186937869156282  |grad|_K:  3.899e-07  alpha:  4.098e-01  linmin:  1.742e-06  t[s]:   3465.91
	FillingsUpdate:  mu: +0.155695991  nElectrons: 310.000000
	SubspaceRotationAdjust: set factor to 0.043
ElecMinimize: Iter:  31  F: -1410.186945474127242  |grad|_K:  3.574e-07  alpha:  5.499e-01  linmin:  8.080e-08  t[s]:   3499.34
	FillingsUpdate:  mu: +0.155591623  nElectrons: 310.000000
	SubspaceRotationAdjust: set factor to 0.0455
ElecMinimize: Iter:  32  F: -1410.186951248515470  |grad|_K:  3.550e-07  alpha:  4.970e-01  linmin:  5.704e-07  t[s]:   3532.68
	FillingsUpdate:  mu: +0.155485041  nElectrons: 310.000000
	SubspaceRotationAdjust: set factor to 0.0374
ElecMinimize: Iter:  33  F: -1410.186955225366773  |grad|_K:  3.696e-07  alpha:  3.469e-01  linmin: -2.346e-07  t[s]:   3566.55
	FillingsUpdate:  mu: +0.155433446  nElectrons: 310.000000
	SubspaceRotationAdjust: set factor to 0.0316
ElecMinimize: Iter:  34  F: -1410.186959019846881  |grad|_K:  2.764e-07  alpha:  3.054e-01  linmin: -8.428e-07  t[s]:   3600.41
	FillingsUpdate:  mu: +0.155372104  nElectrons: 310.000000
	SubspaceRotationAdjust: set factor to 0.0358
ElecMinimize: Iter:  35  F: -1410.186962601648702  |grad|_K:  2.342e-07  alpha:  5.154e-01  linmin: -4.492e-07  t[s]:   3634.27
	FillingsUpdate:  mu: +0.155334238  nElectrons: 310.000000
	SubspaceRotationAdjust: set factor to 0.0375
ElecMinimize: Iter:  36  F: -1410.186964924869471  |grad|_K:  2.080e-07  alpha:  4.654e-01  linmin:  1.842e-07  t[s]:   3667.74
	FillingsUpdate:  mu: +0.155338115  nElectrons: 310.000000
	SubspaceRotationAdjust: set factor to 0.033
ElecMinimize: Iter:  37  F: -1410.186966452120032  |grad|_K:  1.950e-07  alpha:  3.879e-01  linmin:  2.476e-09  t[s]:   3701.99
	FillingsUpdate:  mu: +0.155333503  nElectrons: 310.000000
	SubspaceRotationAdjust: set factor to 0.0313
ElecMinimize: Iter:  38  F: -1410.186967673880417  |grad|_K:  1.552e-07  alpha:  3.532e-01  linmin: -2.204e-06  t[s]:   3735.62
	FillingsUpdate:  mu: +0.155351167  nElectrons: 310.000000
	SubspaceRotationAdjust: set factor to 0.0378
ElecMinimize: Iter:  39  F: -1410.186968720946425  |grad|_K:  1.340e-07  alpha:  4.780e-01  linmin:  2.463e-06  t[s]:   3768.81
	FillingsUpdate:  mu: +0.155375592  nElectrons: 310.000000
	SubspaceRotationAdjust: set factor to 0.0434
ElecMinimize: Iter:  40  F: -1410.186969534902119  |grad|_K:  1.281e-07  alpha:  4.987e-01  linmin:  5.830e-07  t[s]:   3802.31
	FillingsUpdate:  mu: +0.155396772  nElectrons: 310.000000
	SubspaceRotationAdjust: set factor to 0.0408
ElecMinimize: Iter:  41  F: -1410.186970156015377  |grad|_K:  1.357e-07  alpha:  4.160e-01  linmin:  1.415e-06  t[s]:   3835.75
	FillingsUpdate:  mu: +0.155438668  nElectrons: 310.000000
	SubspaceRotationAdjust: set factor to 0.0348
ElecMinimize: Iter:  42  F: -1410.186970679172418  |grad|_K:  1.144e-07  alpha:  3.124e-01  linmin:  1.317e-06  t[s]:   3869.04
	FillingsUpdate:  mu: +0.155474669  nElectrons: 310.000000
	SubspaceRotationAdjust: set factor to 0.0365
ElecMinimize: Iter:  43  F: -1410.186971198729680  |grad|_K:  9.521e-08  alpha:  4.368e-01  linmin: -5.353e-07  t[s]:   3902.41
	FillingsUpdate:  mu: +0.155507362  nElectrons: 310.000000
	SubspaceRotationAdjust: set factor to 0.0401
ElecMinimize: Iter:  44  F: -1410.186971607489113  |grad|_K:  8.065e-08  alpha:  4.957e-01  linmin:  2.874e-06  t[s]:   3935.97
ElecMinimize: Converged (|Delta F|<1.000000e-06 for 5 iters).
Setting wave functions to eigenvectors of Hamiltonian

# Ionic positions in lattice coordinates:
ion V   0.000000090165134   0.000000007581370   0.152348333916030 1
ion V   0.499999960014982  -0.000000123208143   0.149130806021580 1
ion V   0.000000211870940   0.499999964988538   0.149130928176441 1
ion V   0.499999762353510   0.500000198487960   0.149030240477022 1
ion V   0.250136010943067   0.250135986214182   0.050361398018459 1
ion V   0.250136104097580   0.749864029666469   0.050361375837412 1
ion V  -0.250135950485652   0.250135837890285   0.050361407269131 1
ion V  -0.250136126300875   0.749864144212164   0.050361399538565 1
ion V   0.000000000000000   0.000000000000000  -0.050000000000000 0
ion V   0.500000000000000   0.000000000000000  -0.050000000000000 0
ion V   0.000000000000000   0.500000000000000  -0.050000000000000 0
ion V   0.500000000000000   0.500000000000000  -0.050000000000000 0
ion V   0.250000000000000   0.250000000000000  -0.150000000000000 0
ion V   0.250000000000000   0.750000000000000  -0.150000000000000 0
ion V  -0.250000000000000   0.250000000000000  -0.150000000000000 0
ion V  -0.250000000000000   0.750000000000000  -0.150000000000000 0
ion O   0.250342431956035   0.250342663407579   0.149826226769072 1
ion O   0.250342519692288   0.749657218569036   0.149826119487071 1
ion O  -0.250342151403009   0.250342720553809   0.149826117982274 1
ion O  -0.250342239105692   0.749657256369968   0.149826223803606 1
ion O   0.000000222516672   0.000000160031065   0.049919991544902 1
ion O   0.499999731955698   0.000000328612086   0.050122465514028 1
ion O   0.000000276437032   0.500000068279321   0.050122435687598 1
ion O   0.499999900163824   0.499999498746816   0.050104842464216 1
ion O   0.250000000000000   0.250000000000000  -0.050000000000000 0
ion O   0.250000000000000   0.750000000000000  -0.050000000000000 0
ion O  -0.250000000000000   0.250000000000000  -0.050000000000000 0
ion O  -0.250000000000000   0.750000000000000  -0.050000000000000 0
ion O   0.000000000000000   0.000000000000000  -0.150000000000000 0
ion O   0.500000000000000   0.000000000000000  -0.150000000000000 0
ion O   0.000000000000000   0.500000000000000  -0.150000000000000 0
ion O   0.500000000000000   0.500000000000000  -0.150000000000000 0
ion O   0.000000016012500  -0.000000115111524   0.228434923160516 1

# Forces in Lattice coordinates:
force V   0.000067758070392  -0.000077939516541   2.405563698649860 1
force V  -0.000007807367854   0.000036915535278  -1.553596608381446 1
force V   0.000028425036522  -0.000012009813961  -1.553408489671145 1
force V  -0.000013581063883  -0.000017830114761  -1.658183180313777 1
force V   0.016079279402276   0.016046163007164   0.601938001900735 1
force V   0.016067721225213  -0.016045822112913   0.601887584212749 1
force V  -0.016076844736041   0.016053997200419   0.601819507697533 1
force V  -0.016071740469044  -0.016052621931475   0.601848012087196 1
force V   0.000004287793290  -0.000011921157582  -0.164156534640743 0
force V   0.000005305547090  -0.000027454098629  -0.874663127542788 0
force V  -0.000018021749324   0.000018957888956  -0.874662675760322 0
force V   0.000017464459817   0.000038375070440  -1.036478987580267 0
force V   0.001609878708477   0.001618185248698   1.317388462119043 0
force V   0.001633760328817  -0.001625801698542   1.317507254929923 0
force V  -0.001620835958801   0.001613742145538   1.317374399869916 0
force V  -0.001632448749206  -0.001624460892889   1.317512966648858 0
force O   0.034305706368048   0.034321265991248  -0.220264790208223 1
force O   0.034326982899476  -0.034337668680618  -0.220340731670102 1
force O  -0.034314697996868   0.034321772409897  -0.220527662694476 1
force O  -0.034311802685066  -0.034322435939870  -0.220507679442354 1
force O  -0.000030908309350   0.000015661792316  -0.012667881091250 1
force O  -0.000021902206605   0.000001516008571   0.166466521126212 1
force O  -0.000005813677142   0.000009976697310   0.166557792086635 1
force O   0.000012271641656  -0.000024092312459   0.128265757484202 1
force O   0.002053335442449   0.002069951509302  -0.076595224991494 0
force O   0.002067399809544  -0.002052503318454  -0.076534994737796 0
force O  -0.002070412821745   0.002061901150856  -0.076617418892944 0
force O  -0.002071448906009  -0.002060551652881  -0.076557029991797 0
force O   0.000003968668367  -0.000007382532845  -0.003269179725701 0
force O  -0.000004080988512  -0.000007717821740  -0.108831743894752 0
force O  -0.000002289466973   0.000007865362313  -0.108829482297621 0
force O   0.000002056917119   0.000003388777699  -0.047216314166159 0
force O  -0.000040240462630   0.000030849593132  -1.247081859189745 1

# Energy components:
   Eewald =     4429.5994076886108815
       EH =     5680.6706852133684151
     Eloc =   -11773.7903691389055894
      Enl =     -213.2892542531319577
   Epulay =       -0.0003062098084384
      Exc =     -195.7494692090860440
       KE =      662.3768643665343916
-------------------------------------
     Etot =    -1410.1824415424184735
       TS =        0.0045300650706059
-------------------------------------
        F =    -1410.1869716074891130

IonicMinimize: Iter:   1  F: -1410.186971607489113  |grad|_K:  1.389e-02  alpha:  1.000e+00  linmin: -7.620e-01  t[s]:   3944.37

#--- Lowdin population analysis ---
# oxidation-state V +1.088 +0.989 +0.989 +0.934 +0.868 +0.868 +0.868 +0.868 +0.872 +0.868 +0.868 +0.873 +0.893 +0.893 +0.893 +0.893
# oxidation-state O -0.800 -0.800 -0.800 -0.800 -0.814 -0.773 -0.773 -0.771 -0.780 -0.780 -0.780 -0.780 -0.813 -0.812 -0.812 -0.808 -0.477


-------- Electronic minimization -----------
	FillingsUpdate:  mu: +0.134058905  nElectrons: 310.000000
ElecMinimize: Iter:   0  F: -1408.127715440413567  |grad|_K:  2.590e-04  alpha:  1.000e+00
	FillingsUpdate:  mu: +0.131020152  nElectrons: 310.000000
	SubspaceRotationAdjust: set factor to 0.0384
ElecMinimize: Iter:   1  F: -1409.792772325891974  |grad|_K:  6.826e-05  alpha:  2.853e-01  linmin:  4.992e-02  t[s]:   4000.61
	FillingsUpdate:  mu: +0.131240133  nElectrons: 310.000000
	SubspaceRotationAdjust: set factor to 0.0284
ElecMinimize: Iter:   2  F: -1409.898132642916153  |grad|_K:  3.493e-05  alpha:  2.603e-01  linmin: -1.139e-03  t[s]:   4034.06
	FillingsUpdate:  mu: +0.140777541  nElectrons: 310.000000
	SubspaceRotationAdjust: set factor to 0.0224
ElecMinimize: Iter:   3  F: -1409.923085701921991  |grad|_K:  2.125e-05  alpha:  2.240e-01  linmin: -2.534e-04  t[s]:   4067.48
	FillingsUpdate:  mu: +0.153621094  nElectrons: 310.000000
	SubspaceRotationAdjust: set factor to 0.0327
ElecMinimize: Iter:   4  F: -1409.945492911358997  |grad|_K:  1.852e-05  alpha:  5.445e-01  linmin: -2.155e-04  t[s]:   4101.86
	FillingsUpdate:  mu: +0.149757024  nElectrons: 310.000000
	SubspaceRotationAdjust: set factor to 0.0333
ElecMinimize: Iter:   5  F: -1409.967006404182257  |grad|_K:  2.580e-05  alpha:  6.881e-01  linmin:  1.009e-04  t[s]:   4135.01
	FillingsUpdate:  mu: +0.147686951  nElectrons: 310.000000
	SubspaceRotationAdjust: set factor to 0.0292
ElecMinimize: Iter:   6  F: -1410.004089555140581  |grad|_K:  3.252e-05  alpha:  6.198e-01  linmin: -5.451e-04  t[s]:   4168.26
	FillingsUpdate:  mu: +0.157150876  nElectrons: 310.000000
	SubspaceRotationAdjust: set factor to 0.0253
ElecMinimize: Iter:   7  F: -1410.053423449254979  |grad|_K:  3.251e-05  alpha:  4.808e-01  linmin:  3.005e-04  t[s]:   4201.57
	FillingsUpdate:  mu: +0.156887492  nElectrons: 310.000000
	SubspaceRotationAdjust: set factor to 0.0318
ElecMinimize: Iter:   8  F: -1410.109402907083222  |grad|_K:  3.157e-05  alpha:  5.974e-01  linmin:  2.285e-04  t[s]:   4235.48
	FillingsUpdate:  mu: +0.158899603  nElectrons: 310.000000
	SubspaceRotationAdjust: set factor to 0.0288
ElecMinimize: Iter:   9  F: -1410.150196971286050  |grad|_K:  2.673e-05  alpha:  4.704e-01  linmin: -3.487e-04  t[s]:   4269.05
	FillingsUpdate:  mu: +0.156113103  nElectrons: 310.000000
	SubspaceRotationAdjust: set factor to 0.0252
ElecMinimize: Iter:  10  F: -1410.175527749059711  |grad|_K:  1.813e-05  alpha:  3.781e-01  linmin:  1.525e-04  t[s]:   4302.47
	FillingsUpdate:  mu: +0.157292793  nElectrons: 310.000000
	SubspaceRotationAdjust: set factor to 0.0235
ElecMinimize: Iter:  11  F: -1410.189413105087851  |grad|_K:  1.256e-05  alpha:  4.668e-01  linmin: -2.113e-04  t[s]:   4336.76
	FillingsUpdate:  mu: +0.158921109  nElectrons: 310.000000
	SubspaceRotationAdjust: set factor to 0.024
ElecMinimize: Iter:  12  F: -1410.195589721165106  |grad|_K:  8.626e-06  alpha:  4.272e-01  linmin:  4.425e-06  t[s]:   4370.18
	FillingsUpdate:  mu: +0.159425227  nElectrons: 310.000000
	SubspaceRotationAdjust: set factor to 0.0245
ElecMinimize: Iter:  13  F: -1410.198516551487955  |grad|_K:  5.699e-06  alpha:  4.325e-01  linmin:  2.532e-05  t[s]:   4403.58
	FillingsUpdate:  mu: +0.159100781  nElectrons: 310.000000
	SubspaceRotationAdjust: set factor to 0.023
ElecMinimize: Iter:  14  F: -1410.199890530397852  |grad|_K:  4.000e-06  alpha:  4.652e-01  linmin: -1.802e-05  t[s]:   4437.69
	FillingsUpdate:  mu: +0.159303596  nElectrons: 310.000000
	SubspaceRotationAdjust: set factor to 0.0221
ElecMinimize: Iter:  15  F: -1410.200506788219855  |grad|_K:  2.966e-06  alpha:  4.233e-01  linmin:  1.785e-05  t[s]:   4470.93
	FillingsUpdate:  mu: +0.159167990  nElectrons: 310.000000
	SubspaceRotationAdjust: set factor to 0.0254
ElecMinimize: Iter:  16  F: -1410.200900568935822  |grad|_K:  2.103e-06  alpha:  4.921e-01  linmin:  2.330e-05  t[s]:   4504.18
	FillingsUpdate:  mu: +0.158977830  nElectrons: 310.000000
	SubspaceRotationAdjust: set factor to 0.0283
ElecMinimize: Iter:  17  F: -1410.201115515661286  |grad|_K:  1.862e-06  alpha:  5.345e-01  linmin: -4.827e-06  t[s]:   4537.55
	FillingsUpdate:  mu: +0.159066867  nElectrons: 310.000000
	SubspaceRotationAdjust: set factor to 0.0299
ElecMinimize: Iter:  18  F: -1410.201272073662494  |grad|_K:  1.645e-06  alpha:  4.964e-01  linmin: -1.250e-05  t[s]:   4571.64
	FillingsUpdate:  mu: +0.158979891  nElectrons: 310.000000
	SubspaceRotationAdjust: set factor to 0.0318
ElecMinimize: Iter:  19  F: -1410.201413110342628  |grad|_K:  1.679e-06  alpha:  5.730e-01  linmin: -7.833e-06  t[s]:   4604.91
	FillingsUpdate:  mu: +0.159053044  nElectrons: 310.000000
	SubspaceRotationAdjust: set factor to 0.0342
ElecMinimize: Iter:  20  F: -1410.201577385552810  |grad|_K:  1.761e-06  alpha:  6.406e-01  linmin: -2.386e-05  t[s]:   4638.92
	FillingsUpdate:  mu: +0.158848023  nElectrons: 310.000000
	SubspaceRotationAdjust: set factor to 0.036
ElecMinimize: Iter:  21  F: -1410.201761682320239  |grad|_K:  1.898e-06  alpha:  6.520e-01  linmin:  2.318e-06  t[s]:   4672.60
	FillingsUpdate:  mu: +0.158873233  nElectrons: 310.000000
	SubspaceRotationAdjust: set factor to 0.0367
ElecMinimize: Iter:  22  F: -1410.201964067037807  |grad|_K:  1.855e-06  alpha:  6.175e-01  linmin: -1.176e-05  t[s]:   4706.31
	FillingsUpdate:  mu: +0.158770915  nElectrons: 310.000000
	SubspaceRotationAdjust: set factor to 0.0349
ElecMinimize: Iter:  23  F: -1410.202144746366230  |grad|_K:  1.786e-06  alpha:  5.766e-01  linmin:  1.752e-05  t[s]:   4741.20
	FillingsUpdate:  mu: +0.158720854  nElectrons: 310.000000
	SubspaceRotationAdjust: set factor to 0.0282
ElecMinimize: Iter:  24  F: -1410.202268868130204  |grad|_K:  1.631e-06  alpha:  4.291e-01  linmin: -5.971e-06  t[s]:   4776.17
	FillingsUpdate:  mu: +0.158470938  nElectrons: 310.000000
	SubspaceRotationAdjust: set factor to 0.022
ElecMinimize: Iter:  25  F: -1410.202358628363982  |grad|_K:  1.247e-06  alpha:  3.704e-01  linmin:  1.559e-05  t[s]:   4810.58
	FillingsUpdate:  mu: +0.158470415  nElectrons: 310.000000
	SubspaceRotationAdjust: set factor to 0.0236
ElecMinimize: Iter:  26  F: -1410.202424613970379  |grad|_K:  9.627e-07  alpha:  4.671e-01  linmin: -6.906e-06  t[s]:   4844.92
	FillingsUpdate:  mu: +0.158471010  nElectrons: 310.000000
	SubspaceRotationAdjust: set factor to 0.0242
ElecMinimize: Iter:  27  F: -1410.202463336126357  |grad|_K:  7.795e-07  alpha:  4.591e-01  linmin: -4.367e-07  t[s]:   4878.96
	FillingsUpdate:  mu: +0.158354235  nElectrons: 310.000000
	SubspaceRotationAdjust: set factor to 0.0231
ElecMinimize: Iter:  28  F: -1410.202487872134498  |grad|_K:  6.027e-07  alpha:  4.439e-01  linmin:  3.828e-06  t[s]:   4912.99
	FillingsUpdate:  mu: +0.158282954  nElectrons: 310.000000
	SubspaceRotationAdjust: set factor to 0.0256
ElecMinimize: Iter:  29  F: -1410.202504010248504  |grad|_K:  4.996e-07  alpha:  4.885e-01  linmin: -9.575e-07  t[s]:   4947.16
	FillingsUpdate:  mu: +0.158239538  nElectrons: 310.000000
	SubspaceRotationAdjust: set factor to 0.0301
ElecMinimize: Iter:  30  F: -1410.202514782463595  |grad|_K:  4.181e-07  alpha:  4.744e-01  linmin:  2.768e-06  t[s]:   4981.50
	FillingsUpdate:  mu: +0.158196421  nElectrons: 310.000000
	SubspaceRotationAdjust: set factor to 0.0326
ElecMinimize: Iter:  31  F: -1410.202523063839408  |grad|_K:  4.057e-07  alpha:  5.209e-01  linmin:  1.338e-06  t[s]:   5015.02
	FillingsUpdate:  mu: +0.158179425  nElectrons: 310.000000
	SubspaceRotationAdjust: set factor to 0.034
ElecMinimize: Iter:  32  F: -1410.202530126818374  |grad|_K:  3.913e-07  alpha:  4.717e-01  linmin:  3.367e-06  t[s]:   5048.35
	FillingsUpdate:  mu: +0.158074108  nElectrons: 310.000000
	SubspaceRotationAdjust: set factor to 0.0371
ElecMinimize: Iter:  33  F: -1410.202538340404089  |grad|_K:  4.071e-07  alpha:  5.898e-01  linmin:  2.061e-06  t[s]:   5081.88
	FillingsUpdate:  mu: +0.158019604  nElectrons: 310.000000
	SubspaceRotationAdjust: set factor to 0.0406
ElecMinimize: Iter:  34  F: -1410.202547257423475  |grad|_K:  4.156e-07  alpha:  5.916e-01  linmin:  8.030e-07  t[s]:   5115.70
	FillingsUpdate:  mu: +0.157961025  nElectrons: 310.000000
	SubspaceRotationAdjust: set factor to 0.0434
ElecMinimize: Iter:  35  F: -1410.202556484975958  |grad|_K:  4.057e-07  alpha:  5.873e-01  linmin: -1.922e-07  t[s]:   5149.54
	FillingsUpdate:  mu: +0.157873025  nElectrons: 310.000000
	SubspaceRotationAdjust: set factor to 0.0438
ElecMinimize: Iter:  36  F: -1410.202564225225387  |grad|_K:  3.698e-07  alpha:  5.169e-01  linmin: -4.237e-07  t[s]:   5183.55
	FillingsUpdate:  mu: +0.157874282  nElectrons: 310.000000
	SubspaceRotationAdjust: set factor to 0.0368
ElecMinimize: Iter:  37  F: -1410.202569321781084  |grad|_K:  3.630e-07  alpha:  4.097e-01  linmin: -5.315e-07  t[s]:   5216.91
	FillingsUpdate:  mu: +0.157840795  nElectrons: 310.000000
	SubspaceRotationAdjust: set factor to 0.0264
ElecMinimize: Iter:  38  F: -1410.202572638160746  |grad|_K:  2.770e-07  alpha:  2.766e-01  linmin: -4.970e-07  t[s]:   5250.84
	FillingsUpdate:  mu: +0.157844055  nElectrons: 310.000000
	SubspaceRotationAdjust: set factor to 0.0285
ElecMinimize: Iter:  39  F: -1410.202575537393386  |grad|_K:  2.125e-07  alpha:  4.154e-01  linmin: -4.384e-07  t[s]:   5284.34
	FillingsUpdate:  mu: +0.157844433  nElectrons: 310.000000
	SubspaceRotationAdjust: set factor to 0.0289
ElecMinimize: Iter:  40  F: -1410.202577254859762  |grad|_K:  1.726e-07  alpha:  4.179e-01  linmin: -5.211e-07  t[s]:   5317.96
	FillingsUpdate:  mu: +0.157838049  nElectrons: 310.000000
	SubspaceRotationAdjust: set factor to 0.0257
ElecMinimize: Iter:  41  F: -1410.202578319236864  |grad|_K:  1.383e-07  alpha:  3.928e-01  linmin:  1.130e-06  t[s]:   5351.55
	FillingsUpdate:  mu: +0.157859786  nElectrons: 310.000000
	SubspaceRotationAdjust: set factor to 0.0282
ElecMinimize: Iter:  42  F: -1410.202579019064615  |grad|_K:  1.075e-07  alpha:  4.021e-01  linmin: -1.111e-06  t[s]:   5385.28
	FillingsUpdate:  mu: +0.157875381  nElectrons: 310.000000
	SubspaceRotationAdjust: set factor to 0.0329
ElecMinimize: Iter:  43  F: -1410.202579492511632  |grad|_K:  9.058e-08  alpha:  4.502e-01  linmin: -1.385e-05  t[s]:   5419.02
	FillingsUpdate:  mu: +0.157880628  nElectrons: 310.000000
	SubspaceRotationAdjust: set factor to 0.0335
ElecMinimize: Iter:  44  F: -1410.202579807278426  |grad|_K:  8.259e-08  alpha:  4.213e-01  linmin: -1.801e-06  t[s]:   5452.53
	FillingsUpdate:  mu: +0.157902659  nElectrons: 310.000000
	SubspaceRotationAdjust: set factor to 0.0365
ElecMinimize: Iter:  45  F: -1410.202580070286103  |grad|_K:  7.372e-08  alpha:  4.236e-01  linmin: -3.806e-06  t[s]:   5486.70
	FillingsUpdate:  mu: +0.157925473  nElectrons: 310.000000
	SubspaceRotationAdjust: set factor to 0.0446
ElecMinimize: Iter:  46  F: -1410.202580323560824  |grad|_K:  6.997e-08  alpha:  5.122e-01  linmin: -5.527e-06  t[s]:   5520.56
ElecMinimize: Converged (|Delta F|<1.000000e-06 for 5 iters).
Setting wave functions to eigenvectors of Hamiltonian

# Ionic positions in lattice coordinates:
ion V   0.000001421148101  -0.000001595683862   0.154769641350353 1
ion V   0.499999825876158   0.000000713859673   0.147146525793227 1
ion V   0.000000657185122   0.499999741437898   0.147146877234924 1
ion V   0.499999638192741   0.499999703919018   0.146939693594688 1
ion V   0.250377416421280   0.250376728620926   0.051114205959490 1
ion V   0.250377212042796   0.749623283936056   0.051114115470039 1
ion V  -0.250377345302374   0.250376837293317   0.051114014800655 1
ion V  -0.250377302249429   0.749623184636924   0.051114058855319 1
ion V   0.000000000000000   0.000000000000000  -0.050000000000000 0
ion V   0.500000000000000   0.000000000000000  -0.050000000000000 0
ion V   0.000000000000000   0.500000000000000  -0.050000000000000 0
ion V   0.500000000000000   0.500000000000000  -0.050000000000000 0
ion V   0.250000000000000   0.250000000000000  -0.150000000000000 0
ion V   0.250000000000000   0.750000000000000  -0.150000000000000 0
ion V  -0.250000000000000   0.250000000000000  -0.150000000000000 0
ion V  -0.250000000000000   0.750000000000000  -0.150000000000000 0
ion O   0.250823543840452   0.250823944051622   0.149577727515258 1
ion O   0.250824010919186   0.749175678204213   0.149577565324030 1
ion O  -0.250823629903085   0.250823974466520   0.149577258118243 1
ion O  -0.250823601267073   0.749176003838040   0.149577327992676 1
ion O  -0.000000555859491   0.000000377273787   0.049951174455509 1
ion O   0.499999456892964   0.000000146266786   0.050316028076367 1
ion O  -0.000000022333573   0.500000228528315   0.050316167361121 1
ion O   0.500000216667928   0.499999330240625   0.050247179228881 1
ion O   0.250000000000000   0.250000000000000  -0.050000000000000 0
ion O   0.250000000000000   0.750000000000000  -0.050000000000000 0
ion O  -0.250000000000000   0.250000000000000  -0.050000000000000 0
ion O  -0.250000000000000   0.750000000000000  -0.050000000000000 0
ion O   0.000000000000000   0.000000000000000  -0.150000000000000 0
ion O   0.500000000000000   0.000000000000000  -0.150000000000000 0
ion O   0.000000000000000   0.500000000000000  -0.150000000000000 0
ion O   0.500000000000000   0.500000000000000  -0.150000000000000 0
ion O  -0.000000819617142   0.000000592300474   0.227405488435750 1

# Forces in Lattice coordinates:
force V   0.000037517067944  -0.000009013214688   0.246160921459430 1
force V  -0.000015491013847  -0.000000183172099  -1.608348855524030 1
force V  -0.000011111665442   0.000004718138148  -1.608345444870046 1
force V   0.000005511963752  -0.000014162717792  -1.666155617453469 1
force V   0.016579179051760   0.016524311459988   0.628929653436593 1
force V   0.016588470062080  -0.016520308513279   0.628878518053232 1
force V  -0.016598221417330   0.016562083120946   0.628829802473586 1
force V  -0.016602668783155  -0.016572892631244   0.628840216993928 1
force V   0.000012357587540   0.000001821371871  -0.174452945197312 0
force V  -0.000001128179249  -0.000006051557295  -1.014062391874857 0
force V  -0.000012042650752  -0.000002369815951  -1.014206289330712 0
force V   0.000012656695991   0.000008352144132  -1.158677405999072 0
force V   0.003150415026422   0.003149953584137   1.368788451713736 0
force V   0.003146713281644  -0.003148583881735   1.368813865778302 0
force V  -0.003143163138940   0.003140120581433   1.368822250293924 0
force V  -0.003145252168303  -0.003140357035320   1.368831722630858 0
force O   0.021996847255754   0.022005226498016  -0.111362488155141 1
force O   0.022001441285169  -0.021995290132342  -0.111231142733390 1
force O  -0.021978744030471   0.021994697035010  -0.111593425447026 1
force O  -0.021983347932352  -0.022009526810693  -0.111416496660482 1
force O  -0.000076883363052  -0.000044616134096   0.043584472309970 1
force O  -0.000026490056568   0.000014998333458   0.040394002620352 1
force O   0.000028651560848  -0.000004930300384   0.040191597067440 1
force O  -0.000113425267448  -0.000043845774729   0.007736189869406 1
force O   0.002837205137780   0.002848245286904  -0.026763599998799 0
force O   0.002862171235629  -0.002846157765429  -0.026772830508043 0
force O  -0.002868242575628   0.002868314460045  -0.026732489060381 0
force O  -0.002856852036471  -0.002866621720689  -0.026731077916298 0
force O   0.000002045549608  -0.000001735062134  -0.017157797804686 0
force O  -0.000005441031419  -0.000003211822398  -0.118900106313035 0
force O   0.000001601317717   0.000000977938754  -0.118894582885574 0
force O  -0.000001258077169   0.000000006171458  -0.060225837202342 0
force O  -0.000003878214642  -0.000003806323170   0.749111927686943 1

# Energy components:
   Eewald =     4442.2313515147361613
       EH =     5693.7112814335951043
     Eloc =   -11799.5822095578969311
      Enl =     -213.3004671332225541
   Epulay =       -0.0003062098084384
      Exc =     -195.8037728633325116
       KE =      662.5461449177556688
-------------------------------------
     Etot =    -1410.1979778981726668
       TS =        0.0046024253881585
-------------------------------------
        F =    -1410.2025803235608237

IonicMinimize: Iter:   2  F: -1410.202580323560824  |grad|_K:  1.087e-02  alpha:  4.000e-01  linmin: -5.476e-01  t[s]:   5529.04

#--- Lowdin population analysis ---
# oxidation-state V +1.080 +0.969 +0.969 +0.926 +0.859 +0.859 +0.859 +0.859 +0.877 +0.870 +0.870 +0.876 +0.896 +0.896 +0.896 +0.896
# oxidation-state O -0.801 -0.801 -0.801 -0.801 -0.820 -0.766 -0.766 -0.763 -0.782 -0.782 -0.782 -0.782 -0.812 -0.811 -0.811 -0.807 -0.415


-------- Electronic minimization -----------
	FillingsUpdate:  mu: +0.125590557  nElectrons: 310.000000
ElecMinimize: Iter:   0  F: -1407.963963895137113  |grad|_K:  2.692e-04  alpha:  1.000e+00
	FillingsUpdate:  mu: +0.138320727  nElectrons: 310.000000
	SubspaceRotationAdjust: set factor to 0.0426
ElecMinimize: Iter:   1  F: -1409.764430065228680  |grad|_K:  7.139e-05  alpha:  2.913e-01  linmin:  6.161e-02  t[s]:   5585.61
	FillingsUpdate:  mu: +0.132236545  nElectrons: 310.000000
	SubspaceRotationAdjust: set factor to 0.0331
ElecMinimize: Iter:   2  F: -1409.882681205335984  |grad|_K:  3.616e-05  alpha:  2.718e-01  linmin: -7.307e-04  t[s]:   5619.48
	FillingsUpdate:  mu: +0.136422534  nElectrons: 310.000000
	SubspaceRotationAdjust: set factor to 0.0257
ElecMinimize: Iter:   3  F: -1409.908363907343983  |grad|_K:  2.395e-05  alpha:  2.155e-01  linmin: -2.894e-04  t[s]:   5653.13
	FillingsUpdate:  mu: +0.155977577  nElectrons: 310.000000
	SubspaceRotationAdjust: set factor to 0.0361
ElecMinimize: Iter:   4  F: -1409.935952743915095  |grad|_K:  2.091e-05  alpha:  5.279e-01  linmin: -5.550e-05  t[s]:   5686.58
	FillingsUpdate:  mu: +0.150141550  nElectrons: 310.000000
	SubspaceRotationAdjust: set factor to 0.0386
ElecMinimize: Iter:   5  F: -1409.964460819742044  |grad|_K:  2.972e-05  alpha:  7.178e-01  linmin:  1.664e-04  t[s]:   5720.81
	FillingsUpdate:  mu: +0.145422805  nElectrons: 310.000000
	SubspaceRotationAdjust: set factor to 0.0329
ElecMinimize: Iter:   6  F: -1410.007869200425375  |grad|_K:  3.690e-05  alpha:  5.588e-01  linmin: -4.144e-04  t[s]:   5754.26
	FillingsUpdate:  mu: +0.157326251  nElectrons: 310.000000
	SubspaceRotationAdjust: set factor to 0.0264
ElecMinimize: Iter:   7  F: -1410.061557490764244  |grad|_K:  3.431e-05  alpha:  4.022e-01  linmin:  2.017e-04  t[s]:   5787.88
	FillingsUpdate:  mu: +0.160039705  nElectrons: 310.000000
	SubspaceRotationAdjust: set factor to 0.0346
ElecMinimize: Iter:   8  F: -1410.119366600657713  |grad|_K:  3.213e-05  alpha:  5.485e-01  linmin:  1.683e-04  t[s]:   5821.57
	FillingsUpdate:  mu: +0.160114343  nElectrons: 310.000000
	SubspaceRotationAdjust: set factor to 0.0322
ElecMinimize: Iter:   9  F: -1410.160383185679621  |grad|_K:  2.730e-05  alpha:  4.516e-01  linmin: -4.364e-04  t[s]:   5855.35
	FillingsUpdate:  mu: +0.156157632  nElectrons: 310.000000
	SubspaceRotationAdjust: set factor to 0.0276
ElecMinimize: Iter:  10  F: -1410.186297421167410  |grad|_K:  1.855e-05  alpha:  3.699e-01  linmin:  1.544e-04  t[s]:   5888.86
	FillingsUpdate:  mu: +0.158210986  nElectrons: 310.000000
	SubspaceRotationAdjust: set factor to 0.0254
ElecMinimize: Iter:  11  F: -1410.200344683538560  |grad|_K:  1.317e-05  alpha:  4.514e-01  linmin: -2.244e-04  t[s]:   5922.25
	FillingsUpdate:  mu: +0.160535925  nElectrons: 310.000000
	SubspaceRotationAdjust: set factor to 0.0259
ElecMinimize: Iter:  12  F: -1410.207037701733498  |grad|_K:  8.863e-06  alpha:  4.206e-01  linmin:  1.191e-05  t[s]:   5955.65
	FillingsUpdate:  mu: +0.160849737  nElectrons: 310.000000
	SubspaceRotationAdjust: set factor to 0.0271
ElecMinimize: Iter:  13  F: -1410.210208483839324  |grad|_K:  6.050e-06  alpha:  4.439e-01  linmin:  1.893e-05  t[s]:   5988.90
	FillingsUpdate:  mu: +0.160235731  nElectrons: 310.000000
	SubspaceRotationAdjust: set factor to 0.0253
ElecMinimize: Iter:  14  F: -1410.211729793353697  |grad|_K:  4.384e-06  alpha:  4.571e-01  linmin: -2.417e-05  t[s]:   6022.25
	FillingsUpdate:  mu: +0.160827810  nElectrons: 310.000000
	SubspaceRotationAdjust: set factor to 0.024
ElecMinimize: Iter:  15  F: -1410.212451356829661  |grad|_K:  3.173e-06  alpha:  4.126e-01  linmin:  1.199e-05  t[s]:   6056.57
	FillingsUpdate:  mu: +0.160561599  nElectrons: 310.000000
	SubspaceRotationAdjust: set factor to 0.0271
ElecMinimize: Iter:  16  F: -1410.212921809952377  |grad|_K:  2.376e-06  alpha:  5.137e-01  linmin:  1.925e-05  t[s]:   6090.21
	FillingsUpdate:  mu: +0.160233372  nElectrons: 310.000000
	SubspaceRotationAdjust: set factor to 0.0307
ElecMinimize: Iter:  17  F: -1410.213178741702905  |grad|_K:  2.035e-06  alpha:  5.006e-01  linmin: -1.262e-06  t[s]:   6123.91
	FillingsUpdate:  mu: +0.160381151  nElectrons: 310.000000
	SubspaceRotationAdjust: set factor to 0.0327
ElecMinimize: Iter:  18  F: -1410.213376978382030  |grad|_K:  1.848e-06  alpha:  5.262e-01  linmin: -7.471e-06  t[s]:   6157.82
	FillingsUpdate:  mu: +0.160182033  nElectrons: 310.000000
	SubspaceRotationAdjust: set factor to 0.0339
ElecMinimize: Iter:  19  F: -1410.213542508937962  |grad|_K:  1.869e-06  alpha:  5.326e-01  linmin: -5.203e-06  t[s]:   6191.70
	FillingsUpdate:  mu: +0.160335391  nElectrons: 310.000000
	SubspaceRotationAdjust: set factor to 0.0352
ElecMinimize: Iter:  20  F: -1410.213738202427294  |grad|_K:  1.976e-06  alpha:  6.156e-01  linmin: -1.774e-05  t[s]:   6225.12
	FillingsUpdate:  mu: +0.159902540  nElectrons: 310.000000
	SubspaceRotationAdjust: set factor to 0.0364
ElecMinimize: Iter:  21  F: -1410.213957475162943  |grad|_K:  2.054e-06  alpha:  6.168e-01  linmin:  6.393e-06  t[s]:   6258.81
	FillingsUpdate:  mu: +0.159884395  nElectrons: 310.000000
	SubspaceRotationAdjust: set factor to 0.0368
ElecMinimize: Iter:  22  F: -1410.214197445686068  |grad|_K:  2.015e-06  alpha:  6.255e-01  linmin: -9.311e-06  t[s]:   6292.31
	FillingsUpdate:  mu: +0.159691455  nElectrons: 310.000000
	SubspaceRotationAdjust: set factor to 0.0352
ElecMinimize: Iter:  23  F: -1410.214400593567916  |grad|_K:  1.898e-06  alpha:  5.495e-01  linmin:  1.172e-05  t[s]:   6326.07
	FillingsUpdate:  mu: +0.159750413  nElectrons: 310.000000
	SubspaceRotationAdjust: set factor to 0.0299
ElecMinimize: Iter:  24  F: -1410.214547425527371  |grad|_K:  1.644e-06  alpha:  4.489e-01  linmin: -6.992e-06  t[s]:   6359.70
	FillingsUpdate:  mu: +0.159288739  nElectrons: 310.000000
	SubspaceRotationAdjust: set factor to 0.0242
ElecMinimize: Iter:  25  F: -1410.214645747877739  |grad|_K:  1.296e-06  alpha:  3.993e-01  linmin:  1.281e-05  t[s]:   6392.96
	FillingsUpdate:  mu: +0.159286654  nElectrons: 310.000000
	SubspaceRotationAdjust: set factor to 0.0247
ElecMinimize: Iter:  26  F: -1410.214713328488415  |grad|_K:  9.687e-07  alpha:  4.428e-01  linmin: -5.262e-06  t[s]:   6427.78
	FillingsUpdate:  mu: +0.159337459  nElectrons: 310.000000
	SubspaceRotationAdjust: set factor to 0.0263
ElecMinimize: Iter:  27  F: -1410.214754002593963  |grad|_K:  7.709e-07  alpha:  4.764e-01  linmin:  4.781e-07  t[s]:   6461.44
	FillingsUpdate:  mu: +0.159214463  nElectrons: 310.000000
	SubspaceRotationAdjust: set factor to 0.0255
ElecMinimize: Iter:  28  F: -1410.214778753190103  |grad|_K:  6.106e-07  alpha:  4.579e-01  linmin:  8.800e-07  t[s]:   6494.96
	FillingsUpdate:  mu: +0.159182070  nElectrons: 310.000000
	SubspaceRotationAdjust: set factor to 0.0265
ElecMinimize: Iter:  29  F: -1410.214794356757693  |grad|_K:  4.992e-07  alpha:  4.600e-01  linmin: -2.009e-06  t[s]:   6528.29
	FillingsUpdate:  mu: +0.159129457  nElectrons: 310.000000
	SubspaceRotationAdjust: set factor to 0.0319
ElecMinimize: Iter:  30  F: -1410.214805723329846  |grad|_K:  4.101e-07  alpha:  5.014e-01  linmin: -1.174e-06  t[s]:   6561.51
	FillingsUpdate:  mu: +0.159107844  nElectrons: 310.000000
	SubspaceRotationAdjust: set factor to 0.0354
ElecMinimize: Iter:  31  F: -1410.214813861696030  |grad|_K:  3.990e-07  alpha:  5.318e-01  linmin:  3.897e-07  t[s]:   6594.95
	FillingsUpdate:  mu: +0.159152855  nElectrons: 310.000000
	SubspaceRotationAdjust: set factor to 0.0357
ElecMinimize: Iter:  32  F: -1410.214820784662152  |grad|_K:  3.969e-07  alpha:  4.781e-01  linmin:  2.246e-06  t[s]:   6628.36
	FillingsUpdate:  mu: +0.159045336  nElectrons: 310.000000
	SubspaceRotationAdjust: set factor to 0.036
ElecMinimize: Iter:  33  F: -1410.214828260296599  |grad|_K:  4.098e-07  alpha:  5.218e-01  linmin:  1.003e-06  t[s]:   6661.90
	FillingsUpdate:  mu: +0.159047475  nElectrons: 310.000000
	SubspaceRotationAdjust: set factor to 0.0381
ElecMinimize: Iter:  34  F: -1410.214837162287267  |grad|_K:  4.077e-07  alpha:  5.828e-01  linmin: -3.279e-07  t[s]:   6695.57
	FillingsUpdate:  mu: +0.159037719  nElectrons: 310.000000
	SubspaceRotationAdjust: set factor to 0.0402
ElecMinimize: Iter:  35  F: -1410.214846290349669  |grad|_K:  3.967e-07  alpha:  6.036e-01  linmin: -1.654e-07  t[s]:   6728.99
	FillingsUpdate:  mu: +0.158993025  nElectrons: 310.000000
	SubspaceRotationAdjust: set factor to 0.0419
ElecMinimize: Iter:  36  F: -1410.214853909959629  |grad|_K:  3.428e-07  alpha:  5.322e-01  linmin: -4.925e-07  t[s]:   6762.62
	FillingsUpdate:  mu: +0.158992366  nElectrons: 310.000000
	SubspaceRotationAdjust: set factor to 0.0416
ElecMinimize: Iter:  37  F: -1410.214859336758764  |grad|_K:  2.914e-07  alpha:  5.075e-01  linmin: -4.466e-07  t[s]:   6795.76
	FillingsUpdate:  mu: +0.158960876  nElectrons: 310.000000
	SubspaceRotationAdjust: set factor to 0.0347
ElecMinimize: Iter:  38  F: -1410.214862425096953  |grad|_K:  2.570e-07  alpha:  3.997e-01  linmin:  7.698e-07  t[s]:   6829.17
	FillingsUpdate:  mu: +0.159000502  nElectrons: 310.000000
	SubspaceRotationAdjust: set factor to 0.0257
ElecMinimize: Iter:  39  F: -1410.214864323683287  |grad|_K:  1.992e-07  alpha:  3.161e-01  linmin: -9.459e-08  t[s]:   6862.32
	FillingsUpdate:  mu: +0.158976565  nElectrons: 310.000000
	SubspaceRotationAdjust: set factor to 0.0275
ElecMinimize: Iter:  40  F: -1410.214865743721020  |grad|_K:  1.439e-07  alpha:  3.934e-01  linmin: -1.453e-06  t[s]:   6896.00
	FillingsUpdate:  mu: +0.158965995  nElectrons: 310.000000
	SubspaceRotationAdjust: set factor to 0.0286
ElecMinimize: Iter:  41  F: -1410.214866590480142  |grad|_K:  1.157e-07  alpha:  4.498e-01  linmin: -2.200e-06  t[s]:   6929.86
	FillingsUpdate:  mu: +0.158989874  nElectrons: 310.000000
	SubspaceRotationAdjust: set factor to 0.0264
ElecMinimize: Iter:  42  F: -1410.214867073207188  |grad|_K:  9.217e-08  alpha:  3.963e-01  linmin:  5.233e-06  t[s]:   6963.14
	FillingsUpdate:  mu: +0.158990842  nElectrons: 310.000000
	SubspaceRotationAdjust: set factor to 0.0303
ElecMinimize: Iter:  43  F: -1410.214867411416890  |grad|_K:  7.340e-08  alpha:  4.375e-01  linmin:  2.112e-06  t[s]:   6997.17
	FillingsUpdate:  mu: +0.158989962  nElectrons: 310.000000
	SubspaceRotationAdjust: set factor to 0.0356
ElecMinimize: Iter:  44  F: -1410.214867648912559  |grad|_K:  6.547e-08  alpha:  4.847e-01  linmin: -1.249e-05  t[s]:   7030.80
	FillingsUpdate:  mu: +0.159002841  nElectrons: 310.000000
	SubspaceRotationAdjust: set factor to 0.0367
[...]
	FillingsUpdate:  mu: +0.150068891  nElectrons: 310.000000
	SubspaceRotationAdjust: set factor to 0.0311
ElecMinimize: Iter:  10  F: -1410.396475250408002  |grad|_K:  1.498e-05  alpha:  4.970e-01  linmin: -1.631e-04  t[s]: 117257.53
	FillingsUpdate:  mu: +0.143123610  nElectrons: 310.000000
	SubspaceRotationAdjust: set factor to 0.0283
ElecMinimize: Iter:  11  F: -1410.404663535957980  |grad|_K:  1.040e-05  alpha:  3.982e-01  linmin: -6.327e-05  t[s]: 117290.83
	FillingsUpdate:  mu: +0.149839498  nElectrons: 310.000000
	SubspaceRotationAdjust: set factor to 0.0247
ElecMinimize: Iter:  12  F: -1410.408860198823731  |grad|_K:  6.734e-06  alpha:  4.256e-01  linmin:  4.196e-05  t[s]: 117324.43
	FillingsUpdate:  mu: +0.149238819  nElectrons: 310.000000
	SubspaceRotationAdjust: set factor to 0.0267
ElecMinimize: Iter:  13  F: -1410.410748406673974  |grad|_K:  4.684e-06  alpha:  4.582e-01  linmin: -1.556e-05  t[s]: 117358.99
	FillingsUpdate:  mu: +0.148475445  nElectrons: 310.000000
	SubspaceRotationAdjust: set factor to 0.0281
ElecMinimize: Iter:  14  F: -1410.411580157516482  |grad|_K:  3.429e-06  alpha:  4.166e-01  linmin: -1.394e-05  t[s]: 117394.00
	FillingsUpdate:  mu: +0.149447079  nElectrons: 310.000000
	SubspaceRotationAdjust: set factor to 0.0306
ElecMinimize: Iter:  15  F: -1410.412092211392519  |grad|_K:  2.443e-06  alpha:  4.786e-01  linmin:  1.057e-05  t[s]: 117427.22
	FillingsUpdate:  mu: +0.149298936  nElectrons: 310.000000
	SubspaceRotationAdjust: set factor to 0.035
ElecMinimize: Iter:  16  F: -1410.412387700918998  |grad|_K:  2.180e-06  alpha:  5.443e-01  linmin:  2.823e-06  t[s]: 117460.48
	FillingsUpdate:  mu: +0.149489463  nElectrons: 310.000000
	SubspaceRotationAdjust: set factor to 0.0412
ElecMinimize: Iter:  17  F: -1410.412604767347375  |grad|_K:  1.954e-06  alpha:  5.021e-01  linmin:  1.479e-06  t[s]: 117493.80
	FillingsUpdate:  mu: +0.149910310  nElectrons: 310.000000
	SubspaceRotationAdjust: set factor to 0.0476
ElecMinimize: Iter:  18  F: -1410.412827778267228  |grad|_K:  1.941e-06  alpha:  6.421e-01  linmin:  5.688e-06  t[s]: 117527.22
	FillingsUpdate:  mu: +0.149659795  nElectrons: 310.000000
	SubspaceRotationAdjust: set factor to 0.0516
ElecMinimize: Iter:  19  F: -1410.413033167872072  |grad|_K:  2.112e-06  alpha:  5.997e-01  linmin: -1.466e-06  t[s]: 117560.64
	FillingsUpdate:  mu: +0.150790619  nElectrons: 310.000000
	SubspaceRotationAdjust: set factor to 0.0498
ElecMinimize: Iter:  20  F: -1410.413244427167456  |grad|_K:  2.141e-06  alpha:  5.206e-01  linmin:  1.663e-06  t[s]: 117594.03
	FillingsUpdate:  mu: +0.149787329  nElectrons: 310.000000
	SubspaceRotationAdjust: set factor to 0.041
ElecMinimize: Iter:  21  F: -1410.413419675338218  |grad|_K:  2.083e-06  alpha:  4.203e-01  linmin: -4.806e-06  t[s]: 117627.72
	FillingsUpdate:  mu: +0.151061070  nElectrons: 310.000000
	SubspaceRotationAdjust: set factor to 0.0352
ElecMinimize: Iter:  22  F: -1410.413584341600199  |grad|_K:  1.724e-06  alpha:  4.169e-01  linmin:  3.175e-06  t[s]: 117661.20
	FillingsUpdate:  mu: +0.150990312  nElectrons: 310.000000
	SubspaceRotationAdjust: set factor to 0.0377
ElecMinimize: Iter:  23  F: -1410.413713141112112  |grad|_K:  1.409e-06  alpha:  4.763e-01  linmin: -2.315e-06  t[s]: 117695.05
	FillingsUpdate:  mu: +0.150749156  nElectrons: 310.000000
	SubspaceRotationAdjust: set factor to 0.0389
ElecMinimize: Iter:  24  F: -1410.413798945772214  |grad|_K:  1.148e-06  alpha:  4.750e-01  linmin: -2.881e-06  t[s]: 117728.03
	FillingsUpdate:  mu: +0.151172232  nElectrons: 310.000000
	SubspaceRotationAdjust: set factor to 0.0367
ElecMinimize: Iter:  25  F: -1410.413851826707287  |grad|_K:  9.312e-07  alpha:  4.414e-01  linmin:  2.515e-06  t[s]: 117761.17
	FillingsUpdate:  mu: +0.150842309  nElectrons: 310.000000
	SubspaceRotationAdjust: set factor to 0.0372
ElecMinimize: Iter:  26  F: -1410.413886243163006  |grad|_K:  7.478e-07  alpha:  4.364e-01  linmin: -2.847e-06  t[s]: 117794.46
	FillingsUpdate:  mu: +0.150873661  nElectrons: 310.000000
	SubspaceRotationAdjust: set factor to 0.0431
ElecMinimize: Iter:  27  F: -1410.413909367530778  |grad|_K:  6.005e-07  alpha:  4.545e-01  linmin: -2.599e-07  t[s]: 117827.64
	FillingsUpdate:  mu: +0.150878785  nElectrons: 310.000000
	SubspaceRotationAdjust: set factor to 0.0497
ElecMinimize: Iter:  28  F: -1410.413926039641410  |grad|_K:  5.275e-07  alpha:  5.083e-01  linmin:  5.055e-07  t[s]: 117861.83
	FillingsUpdate:  mu: +0.150577960  nElectrons: 310.000000
	SubspaceRotationAdjust: set factor to 0.0518
ElecMinimize: Iter:  29  F: -1410.413937856755410  |grad|_K:  5.150e-07  alpha:  4.669e-01  linmin: -1.818e-06  t[s]: 117895.60
	FillingsUpdate:  mu: +0.150716744  nElectrons: 310.000000
	SubspaceRotationAdjust: set factor to 0.0489
ElecMinimize: Iter:  30  F: -1410.413948006572127  |grad|_K:  4.860e-07  alpha:  4.207e-01  linmin: -2.840e-07  t[s]: 117929.07
	FillingsUpdate:  mu: +0.150403397  nElectrons: 310.000000
	SubspaceRotationAdjust: set factor to 0.047
ElecMinimize: Iter:  31  F: -1410.413957242477181  |grad|_K:  4.384e-07  alpha:  4.299e-01  linmin: -1.119e-06  t[s]: 117962.73
	FillingsUpdate:  mu: +0.150409553  nElectrons: 310.000000
	SubspaceRotationAdjust: set factor to 0.0485
ElecMinimize: Iter:  32  F: -1410.413965795967897  |grad|_K:  3.895e-07  alpha:  4.892e-01  linmin: -8.580e-07  t[s]: 117995.98
	FillingsUpdate:  mu: +0.150276584  nElectrons: 310.000000
	SubspaceRotationAdjust: set factor to 0.0521
ElecMinimize: Iter:  33  F: -1410.413972865847654  |grad|_K:  3.363e-07  alpha:  5.122e-01  linmin: -5.657e-07  t[s]: 118028.99
	FillingsUpdate:  mu: +0.150216774  nElectrons: 310.000000
	SubspaceRotationAdjust: set factor to 0.0563
ElecMinimize: Iter:  34  F: -1410.413978168921631  |grad|_K:  2.977e-07  alpha:  5.155e-01  linmin: -1.308e-06  t[s]: 118063.00
	FillingsUpdate:  mu: +0.150215239  nElectrons: 310.000000
	SubspaceRotationAdjust: set factor to 0.0613
ElecMinimize: Iter:  35  F: -1410.413981979202845  |grad|_K:  2.488e-07  alpha:  4.725e-01  linmin: -2.617e-07  t[s]: 118096.48
	FillingsUpdate:  mu: +0.150140511  nElectrons: 310.000000
	SubspaceRotationAdjust: set factor to 0.0629
ElecMinimize: Iter:  36  F: -1410.413984733243751  |grad|_K:  2.285e-07  alpha:  4.890e-01  linmin:  5.739e-07  t[s]: 118129.79
	FillingsUpdate:  mu: +0.150269364  nElectrons: 310.000000
	SubspaceRotationAdjust: set factor to 0.053
ElecMinimize: Iter:  37  F: -1410.413986298924101  |grad|_K:  2.200e-07  alpha:  3.295e-01  linmin: -3.922e-07  t[s]: 118162.64
	FillingsUpdate:  mu: +0.150190324  nElectrons: 310.000000
	SubspaceRotationAdjust: set factor to 0.0444
ElecMinimize: Iter:  38  F: -1410.413987637779883  |grad|_K:  1.729e-07  alpha:  3.041e-01  linmin: -1.027e-06  t[s]: 118195.86
	FillingsUpdate:  mu: +0.150250668  nElectrons: 310.000000
	SubspaceRotationAdjust: set factor to 0.0514
ElecMinimize: Iter:  39  F: -1410.413988778112298  |grad|_K:  1.349e-07  alpha:  4.193e-01  linmin:  2.381e-06  t[s]: 118229.75
	FillingsUpdate:  mu: +0.150302221  nElectrons: 310.000000
	SubspaceRotationAdjust: set factor to 0.0572
ElecMinimize: Iter:  40  F: -1410.413989558874619  |grad|_K:  1.183e-07  alpha:  4.716e-01  linmin: -1.711e-06  t[s]: 118263.88
	FillingsUpdate:  mu: +0.150263935  nElectrons: 310.000000
	SubspaceRotationAdjust: set factor to 0.0501
ElecMinimize: Iter:  41  F: -1410.413990022678945  |grad|_K:  1.120e-07  alpha:  3.644e-01  linmin: -4.190e-06  t[s]: 118297.25
	FillingsUpdate:  mu: +0.150339362  nElectrons: 310.000000
	SubspaceRotationAdjust: set factor to 0.0422
ElecMinimize: Iter:  42  F: -1410.413990383744476  |grad|_K:  8.864e-08  alpha:  3.163e-01  linmin:  7.126e-06  t[s]: 118332.12
	FillingsUpdate:  mu: +0.150347116  nElectrons: 310.000000
	SubspaceRotationAdjust: set factor to 0.0482
ElecMinimize: Iter:  43  F: -1410.413990698805947  |grad|_K:  7.009e-08  alpha:  4.406e-01  linmin: -2.371e-05  t[s]: 118366.14
	FillingsUpdate:  mu: +0.150348453  nElectrons: 310.000000
	SubspaceRotationAdjust: set factor to 0.0511
ElecMinimize: Iter:  44  F: -1410.413990907061134  |grad|_K:  6.160e-08  alpha:  4.653e-01  linmin:  1.974e-05  t[s]: 118400.16
ElecMinimize: Converged (|Delta F|<1.000000e-06 for 5 iters).
Setting wave functions to eigenvectors of Hamiltonian

# Ionic positions in lattice coordinates:
ion V   0.041502284857914   0.019735528288107   0.173691704668704 1
ion V   0.511995272110834  -0.136961988256696   0.131019461988644 1
ion V  -0.077373139289963   0.563038466083596   0.126532519766279 1
ion V   0.357316644876891   0.462411481779404   0.125981950980392 1
ion V   0.283285504947889   0.128668032593225   0.038307601107311 1
ion V   0.214483914122461   0.685695892450268   0.051699571594917 1
ion V  -0.137689829300281   0.218327601726346   0.043288153951488 1
ion V  -0.368859668497613   0.697573348262719   0.040143619649603 1
ion V   0.000000000000000   0.000000000000000  -0.050000000000000 0
ion V   0.500000000000000   0.000000000000000  -0.050000000000000 0
ion V   0.000000000000000   0.500000000000000  -0.050000000000000 0
ion V   0.500000000000000   0.500000000000000  -0.050000000000000 0
ion V   0.250000000000000   0.250000000000000  -0.150000000000000 0
ion V   0.250000000000000   0.750000000000000  -0.150000000000000 0
ion V  -0.250000000000000   0.250000000000000  -0.150000000000000 0
ion V  -0.250000000000000   0.750000000000000  -0.150000000000000 0
ion O   0.316485985472960   0.138428103538855   0.131967225667031 1
ion O   0.206700035336480   0.735082675525639   0.146029963566163 1
ion O  -0.115519936823973   0.249660376798231   0.135240037941829 1
ion O  -0.208096209626179   0.819762703359255   0.166842041640280 1
ion O   0.029472861675001  -0.053721272760881   0.041020035681443 1
ion O   0.610471197978239   0.017486988793842   0.046465095018320 1
ion O  -0.093260575461767   0.528841253519754   0.038478170250441 1
ion O   0.426763945644828   0.436189902824069   0.039696472276356 1
ion O   0.250000000000000   0.250000000000000  -0.050000000000000 0
ion O   0.250000000000000   0.750000000000000  -0.050000000000000 0
ion O  -0.250000000000000   0.250000000000000  -0.050000000000000 0
ion O  -0.250000000000000   0.750000000000000  -0.050000000000000 0
ion O   0.000000000000000   0.000000000000000  -0.150000000000000 0
ion O   0.500000000000000   0.000000000000000  -0.150000000000000 0
ion O   0.000000000000000   0.500000000000000  -0.150000000000000 0
ion O   0.500000000000000   0.500000000000000  -0.150000000000000 0
ion O   0.068326929193556   0.070997584178741   0.244335970780443 1

# Forces in Lattice coordinates:
force V   0.000326249624623  -0.002998321517932  -0.392328429653334 1
force V  -0.020083656885332   0.002029099454973  -0.053504365171585 1
force V  -0.027254288920160   0.034950295581557  -0.017544227152823 1
force V   0.005224505411105   0.051383932831521  -0.118557951348995 1
force V   0.036563926854050  -0.013045324581649  -0.017380546175348 1
force V  -0.006461960142634  -0.022749648213844   0.074057623767839 1
force V   0.014096102960640  -0.041845218584585   0.063259280235183 1
force V  -0.011654470697070   0.009729967931658   0.147064810167171 1
force V   0.095930103681004   0.127510641154421   0.111425264992645 0
force V  -0.004118937683379  -0.102523979222050   0.141394300966518 0
force V   0.043278758279739  -0.112617662130491  -1.302067239440707 0
force V  -0.099975039536529   0.004154199662663  -1.139380379350341 0
force V  -0.049546437602533  -0.012612182188568   1.023416548675045 0
force V   0.053338305850440  -0.039452594599538   1.224579611706438 0
force V  -0.003826241386608   0.004359259209273   1.099640145181427 0
force V   0.023317401789025  -0.005713723115713   1.041125792687866 0
force O   0.031057444804529   0.004095336670092   0.098189334290424 1
force O   0.007378670883209  -0.036649929124385   0.076520562799375 1
force O   0.020793367039610   0.027814399619329   0.015302406305334 1
force O  -0.005763175857451   0.034485105032286   0.033259990374777 1
force O  -0.019883311243873   0.006125313216747  -0.025798585575957 1
force O  -0.022803752503816   0.010660753832702   0.029812594124974 1
force O   0.012038134266795   0.026670102492496  -0.023063501269416 1
force O   0.029803575396409   0.037823988306330  -0.023038315883401 1
force O   0.044838659263359  -0.002401246355971  -0.815424798205951 0
force O  -0.129544920144639  -0.147315983657795  -0.568073056417026 0
force O  -0.065728087228724   0.018130902733603  -0.015612970623192 0
force O   0.009653636933680   0.123922561388953  -0.528023739477794 0
force O  -0.023399039000781  -0.002069928546976  -0.138442602979540 0
force O  -0.035650102152468  -0.002459469141285  -0.059619784447818 0
force O   0.022496825596370  -0.012923829245308  -0.076124107522496 0
force O   0.035048856252656   0.000469917301248  -0.182987124586617 0
force O   0.035268426260746   0.051932374642636   0.385042597212255 1

# Energy components:
   Eewald =     4627.7468420260966013
       EH =     5878.2573134057083735
     Eloc =   -12170.4959310092071973
      Enl =     -212.3215237408655867
   Epulay =       -0.0003062098084384
      Exc =     -196.2859437235183577
       KE =      662.6896159415518923
-------------------------------------
     Etot =    -1410.4099333100430158
       TS =        0.0040575970181966
-------------------------------------
        F =    -1410.4139909070611338

IonicMinimize: Iter:  74  F: -1410.413990907061134  |grad|_K:  2.731e-03  alpha:  8.104e-01  linmin: -3.105e-02  t[s]: 118408.66

#--- Lowdin population analysis ---
# oxidation-state V +1.260 +0.907 +0.892 +0.754 +0.818 +0.704 +0.905 +0.723 +0.861 +0.839 +0.870 +0.867 +0.895 +0.894 +0.902 +0.909
# oxidation-state O -0.801 -0.723 -0.723 -0.749 -0.682 -0.730 -0.679 -0.690 -0.754 -0.774 -0.777 -0.780 -0.820 -0.818 -0.816 -0.816 -0.428


-------- Electronic minimization -----------
	FillingsUpdate:  mu: +0.182875681  nElectrons: 310.000000
ElecMinimize: Iter:   0  F: -1408.708665799433447  |grad|_K:  2.467e-04  alpha:  1.000e+00
	FillingsUpdate:  mu: +0.144372568  nElectrons: 310.000000
	SubspaceRotationAdjust: set factor to 0.0522
ElecMinimize: Iter:   1  F: -1410.132906530591299  |grad|_K:  6.868e-05  alpha:  2.697e-01  linmin:  4.555e-02  t[s]: 118465.11
	FillingsUpdate:  mu: +0.153231841  nElectrons: 310.000000
	SubspaceRotationAdjust: set factor to 0.0571
ElecMinimize: Iter:   2  F: -1410.246947123850305  |grad|_K:  2.447e-05  alpha:  2.787e-01  linmin: -2.327e-03  t[s]: 118498.54
	FillingsUpdate:  mu: +0.133137977  nElectrons: 310.000000
	SubspaceRotationAdjust: set factor to 0.0376
ElecMinimize: Iter:   3  F: -1410.267678886172916  |grad|_K:  2.422e-05  alpha:  3.788e-01  linmin: -5.620e-05  t[s]: 118531.82
	FillingsUpdate:  mu: +0.153514277  nElectrons: 310.000000
	SubspaceRotationAdjust: set factor to 0.0336
ElecMinimize: Iter:   4  F: -1410.282584687385224  |grad|_K:  1.691e-05  alpha:  2.794e-01  linmin: -3.418e-05  t[s]: 118566.06
	FillingsUpdate:  mu: +0.151472021  nElectrons: 310.000000
	SubspaceRotationAdjust: set factor to 0.0421
ElecMinimize: Iter:   5  F: -1410.300967391747918  |grad|_K:  1.966e-05  alpha:  7.054e-01  linmin: -6.550e-05  t[s]: 118599.49
	FillingsUpdate:  mu: +0.131817582  nElectrons: 310.000000
	SubspaceRotationAdjust: set factor to 0.0412
ElecMinimize: Iter:   6  F: -1410.326919328313579  |grad|_K:  2.388e-05  alpha:  7.347e-01  linmin: -3.299e-04  t[s]: 118632.84
	FillingsUpdate:  mu: +0.150470577  nElectrons: 310.000000
	SubspaceRotationAdjust: set factor to 0.0313
ElecMinimize: Iter:   7  F: -1410.348953133994428  |grad|_K:  2.345e-05  alpha:  4.077e-01  linmin: -1.328e-04  t[s]: 118666.39
	FillingsUpdate:  mu: +0.151760978  nElectrons: 310.000000
	SubspaceRotationAdjust: set factor to 0.0378
ElecMinimize: Iter:   8  F: -1410.377603080338531  |grad|_K:  1.967e-05  alpha:  5.644e-01  linmin: -2.348e-04  t[s]: 118700.08
	FillingsUpdate:  mu: +0.138750522  nElectrons: 310.000000
	SubspaceRotationAdjust: set factor to 0.035
ElecMinimize: Iter:   9  F: -1410.394878750356156  |grad|_K:  1.622e-05  alpha:  4.837e-01  linmin: -1.282e-04  t[s]: 118733.45
	FillingsUpdate:  mu: +0.149357930  nElectrons: 310.000000
	SubspaceRotationAdjust: set factor to 0.0259
ElecMinimize: Iter:  10  F: -1410.403923779643947  |grad|_K:  1.118e-05  alpha:  3.744e-01  linmin:  5.004e-05  t[s]: 118766.95
	FillingsUpdate:  mu: +0.147901770  nElectrons: 310.000000
	SubspaceRotationAdjust: set factor to 0.0261
ElecMinimize: Iter:  11  F: -1410.408822927719257  |grad|_K:  7.640e-06  alpha:  4.314e-01  linmin: -7.818e-05  t[s]: 118800.91
	FillingsUpdate:  mu: +0.146521526  nElectrons: 310.000000
	SubspaceRotationAdjust: set factor to 0.0276
ElecMinimize: Iter:  12  F: -1410.410933160874947  |grad|_K:  5.335e-06  alpha:  3.963e-01  linmin: -2.163e-05  t[s]: 118834.32
	FillingsUpdate:  mu: +0.148899173  nElectrons: 310.000000
	SubspaceRotationAdjust: set factor to 0.0268
ElecMinimize: Iter:  13  F: -1410.412071688676178  |grad|_K:  3.584e-06  alpha:  4.395e-01  linmin:  3.791e-06  t[s]: 118867.69
	FillingsUpdate:  mu: +0.148409139  nElectrons: 310.000000
	SubspaceRotationAdjust: set factor to 0.0292
ElecMinimize: Iter:  14  F: -1410.412635396527548  |grad|_K:  2.804e-06  alpha:  4.823e-01  linmin: -1.718e-05  t[s]: 118901.26
	FillingsUpdate:  mu: +0.148347369  nElectrons: 310.000000
	SubspaceRotationAdjust: set factor to 0.0334
ElecMinimize: Iter:  15  F: -1410.412945032546986  |grad|_K:  2.219e-06  alpha:  4.329e-01  linmin: -5.768e-06  t[s]: 118934.61
	FillingsUpdate:  mu: +0.149143320  nElectrons: 310.000000
	SubspaceRotationAdjust: set factor to 0.0376
ElecMinimize: Iter:  16  F: -1410.413194780214781  |grad|_K:  1.953e-06  alpha:  5.577e-01  linmin:  6.428e-06  t[s]: 118968.39
	FillingsUpdate:  mu: +0.148735040  nElectrons: 310.000000
	SubspaceRotationAdjust: set factor to 0.0413
ElecMinimize: Iter:  17  F: -1410.413388278459479  |grad|_K:  2.004e-06  alpha:  5.575e-01  linmin: -4.307e-06  t[s]: 119001.72
	FillingsUpdate:  mu: +0.149475578  nElectrons: 310.000000
	SubspaceRotationAdjust: set factor to 0.0459
ElecMinimize: Iter:  18  F: -1410.413589302035234  |grad|_K:  1.894e-06  alpha:  5.499e-01  linmin:  1.830e-06  t[s]: 119035.05
	FillingsUpdate:  mu: +0.149787235  nElectrons: 310.000000
	SubspaceRotationAdjust: set factor to 0.0505
ElecMinimize: Iter:  19  F: -1410.413802636299124  |grad|_K:  1.968e-06  alpha:  6.535e-01  linmin:  8.023e-07  t[s]: 119068.61
	FillingsUpdate:  mu: +0.149881355  nElectrons: 310.000000
	SubspaceRotationAdjust: set factor to 0.0542
ElecMinimize: Iter:  20  F: -1410.413996969476102  |grad|_K:  1.863e-06  alpha:  5.516e-01  linmin: -5.164e-07  t[s]: 119101.77
	FillingsUpdate:  mu: +0.150705509  nElectrons: 310.000000
	SubspaceRotationAdjust: set factor to 0.0517
ElecMinimize: Iter:  21  F: -1410.414151016722826  |grad|_K:  1.766e-06  alpha:  4.879e-01  linmin:  2.982e-06  t[s]: 119135.36
	FillingsUpdate:  mu: +0.149815195  nElectrons: 310.000000
	SubspaceRotationAdjust: set factor to 0.04
ElecMinimize: Iter:  22  F: -1410.414254498419041  |grad|_K:  1.560e-06  alpha:  3.649e-01  linmin: -3.334e-06  t[s]: 119169.03
	FillingsUpdate:  mu: +0.150716925  nElectrons: 310.000000
	SubspaceRotationAdjust: set factor to 0.035
ElecMinimize: Iter:  23  F: -1410.414336293031283  |grad|_K:  1.187e-06  alpha:  3.694e-01  linmin:  1.595e-06  t[s]: 119202.46
	FillingsUpdate:  mu: +0.150698773  nElectrons: 310.000000
	SubspaceRotationAdjust: set factor to 0.0401
ElecMinimize: Iter:  24  F: -1410.414396240940960  |grad|_K:  9.397e-07  alpha:  4.681e-01  linmin:  4.793e-07  t[s]: 119235.64
	FillingsUpdate:  mu: +0.150316894  nElectrons: 310.000000
	SubspaceRotationAdjust: set factor to 0.0395
ElecMinimize: Iter:  25  F: -1410.414431163178051  |grad|_K:  7.685e-07  alpha:  4.348e-01  linmin: -3.629e-06  t[s]: 119268.88
mpirun: Forwarding signal 18 to job
slurmstepd-node3220: error: *** JOB 43669 ON node3220 CANCELLED AT 2025-05-01T22:42:02 ***
