
*************** JDFTx 1.7.0  ***************

Start date and time: Sun Mar 30 17:25:12 2025
Executable /data2/jt577/jdftx_eat_withLibXC/build/jdftx with command-line: -i /data2/jt577/March_2025/pure_RSO/ionic_relax_magnetism/pure_VO/runs/calc_20250330-172512/O/O.in
Running on hosts (process indices):  node3402 (0-8)
Divided in process groups (process indices):  0 (0)  1 (1)  2 (2)  3 (3)  4 (4)  5 (5)  6 (6)  7 (7)  8 (8)
Resource initialization completed at t[s]:      0.00
Run totals: 9 processes, 90 threads, 0 GPUs


Input parsed successfully to the following command list (including defaults):

add-mix 
add-U 	V d 0.12
basis kpoint-dependent
coords-type Lattice
core-overlap-check vector
coulomb-interaction Periodic
davidson-band-ratio 1.1
dump End IonicPositions Lattice Ecomponents
dump-name O.$VAR
elec-cutoff 30
elec-eigen-algo Davidson
elec-ex-corr gga-x-rpbe gga-c-pbe
elec-smearing Fermi 0.001
electronic-minimize  \
	dirUpdateScheme      FletcherReeves \
	linminMethod         DirUpdateRecommended \
	nIterations          1000 \
	history              15 \
	knormThreshold       0 \
	energyDiffThreshold  1e-06 \
	nEnergyDiff          5 \
	alphaTstart          1 \
	alphaTmin            1e-10 \
	updateTestStepSize   yes \
	alphaTreduceFactor   0.1 \
	alphaTincreaseFactor 3 \
	nAlphaAdjustMax      3 \
	wolfeEnergy          0.0001 \
	wolfeGradient        0.9 \
	fdTest               no
exchange-regularization WignerSeitzTruncated
fluid None
fluid-ex-corr (null) lda-PZ
fluid-gummel-loop 10 1.000000e-05
fluid-minimize  \
	dirUpdateScheme      PolakRibiere \
	linminMethod         DirUpdateRecommended \
	nIterations          100 \
	history              15 \
	knormThreshold       0 \
	energyDiffThreshold  0 \
	nEnergyDiff          2 \
	alphaTstart          1 \
	alphaTmin            1e-10 \
	updateTestStepSize   yes \
	alphaTreduceFactor   0.1 \
	alphaTincreaseFactor 3 \
	nAlphaAdjustMax      3 \
	wolfeEnergy          0.0001 \
	wolfeGradient        0.9 \
	fdTest               no
fluid-solvent H2O 55.338 ScalarEOS \
	epsBulk 78.4 \
	pMol 0.92466 \
	epsInf 1.77 \
	Pvap 1.06736e-10 \
	sigmaBulk 4.62e-05 \
	Rvdw 2.61727 \
	Res 1.42 \
	tauNuc 343133 \
	poleEl 15 7 1
forces-output-coords Positions
initial-magnetic-moments  \
	V 1 -1 1 -1 1 1 -1 -1 -1 1 -1 1 -1 -1 1 1
initial-state O.$VAR
ion V  0.000000000000000   0.000000000000000   0.150000000000000 1
ion V  0.500000000000000   0.000000000000000   0.150000000000000 1
ion V  0.000000000000000   0.500000000000000   0.150000000000000 1
ion V  0.500000000000000   0.500000000000000   0.150000000000000 1
ion V  0.250000000000000   0.250000000000000   0.050000000000000 1
ion V  0.250000000000000   0.750000000000000   0.050000000000000 1
ion V -0.250000000000000   0.250000000000000   0.050000000000000 1
ion V -0.250000000000000   0.750000000000000   0.050000000000000 1
ion V  0.000000000000000   0.000000000000000  -0.050000000000000 0
ion V  0.500000000000000   0.000000000000000  -0.050000000000000 0
ion V  0.000000000000000   0.500000000000000  -0.050000000000000 0
ion V  0.500000000000000   0.500000000000000  -0.050000000000000 0
ion V  0.250000000000000   0.250000000000000  -0.150000000000000 0
ion V  0.250000000000000   0.750000000000000  -0.150000000000000 0
ion V -0.250000000000000   0.250000000000000  -0.150000000000000 0
ion V -0.250000000000000   0.750000000000000  -0.150000000000000 0
ion O  0.250000000000000   0.250000000000000   0.150000000000000 1
ion O  0.250000000000000   0.750000000000000   0.150000000000000 1
ion O -0.250000000000000   0.250000000000000   0.150000000000000 1
ion O -0.250000000000000   0.750000000000000   0.150000000000000 1
ion O  0.000000000000000   0.000000000000000   0.050000000000000 1
ion O  0.500000000000000   0.000000000000000   0.050000000000000 1
ion O  0.000000000000000   0.500000000000000   0.050000000000000 1
ion O  0.500000000000000   0.500000000000000   0.050000000000000 1
ion O  0.250000000000000   0.250000000000000  -0.050000000000000 0
ion O  0.250000000000000   0.750000000000000  -0.050000000000000 0
ion O -0.250000000000000   0.250000000000000  -0.050000000000000 0
ion O -0.250000000000000   0.750000000000000  -0.050000000000000 0
ion O  0.000000000000000   0.000000000000000  -0.150000000000000 0
ion O  0.500000000000000   0.000000000000000  -0.150000000000000 0
ion O  0.000000000000000   0.500000000000000  -0.150000000000000 0
ion O  0.500000000000000   0.500000000000000  -0.150000000000000 0
ion O  0.000000000000000   0.000000000000000   0.230000000000000 1
ion-species SG15/$ID_ONCV_PBE.upf
ion-width 0
ionic-minimize  \
	dirUpdateScheme      L-BFGS \
	linminMethod         DirUpdateRecommended \
	nIterations          1000 \
	history              15 \
	knormThreshold       0.0001 \
	energyDiffThreshold  0.0001 \
	nEnergyDiff          3 \
	alphaTstart          1 \
	alphaTmin            1e-10 \
	updateTestStepSize   yes \
	alphaTreduceFactor   0.1 \
	alphaTincreaseFactor 3 \
	nAlphaAdjustMax      3 \
	wolfeEnergy          0.0001 \
	wolfeGradient        0.9 \
	fdTest               no
kpoint   0.500000000000   0.500000000000   0.500000000000  1.00000000000000
kpoint-folding 3 3 1 
latt-move-scale 1 1 1
latt-scale 1 1 1 
lattice  \
	   8.260000000000000    8.260000000000000    0.000000000000000  \
	   8.260000000000000   -8.260000000000000    0.000000000000000  \
	   0.000000000000000    0.000000000000000   41.299999999999997 
lattice-minimize  \
	dirUpdateScheme      L-BFGS \
	linminMethod         DirUpdateRecommended \
	nIterations          0 \
	history              15 \
	knormThreshold       0 \
	energyDiffThreshold  1e-06 \
	nEnergyDiff          2 \
	alphaTstart          1 \
	alphaTmin            1e-10 \
	updateTestStepSize   yes \
	alphaTreduceFactor   0.1 \
	alphaTincreaseFactor 3 \
	nAlphaAdjustMax      3 \
	wolfeEnergy          0.0001 \
	wolfeGradient        0.9 \
	fdTest               no
lcao-params -1 1e-06 0.001
pcm-variant GLSSA13
spintype z-spin
subspace-rotation-factor 1 yes
symmetries none
symmetry-threshold 0.0001


Applied RMS atom displacement 0 bohrs to make symmetries exact.

---------- Initializing the Grid ----------
R = 
[         8.26         8.26            0  ]
[         8.26        -8.26            0  ]
[            0            0         41.3  ]
unit cell volume = 5635.6
G =
[   0.380338   0.380338         -0  ]
[   0.380338  -0.380338         -0  ]
[         -0         -0   0.152135  ]
Minimum fftbox size, Smin = [  60  60  204  ]
Chosen fftbox size, S = [  60  60  210  ]

---------- Exchange Correlation functional ----------
Initialized LibXC exchange functional 'Hammer, Hansen, and Norskov'
Initialized LibXC correlation functional 'Perdew, Burke & Ernzerhof'

---------- Setting up pseudopotentials ----------
Width of ionic core gaussian charges (only for fluid interactions / plotting) set to 0

Reading pseudopotential file '/data2/jt577/jdftx_eat_withLibXC/build/pseudopotentials/SG15/V_ONCV_PBE.upf':
  'V' pseudopotential, 'PBE' functional
  Generated using ONCVPSP code by D. R. Hamann
  Author: Martin Schlipf and Francois Gygi  Date: 150915.
  13 valence electrons, 4 orbitals, 6 projectors, 1536 radial grid points, with lMax = 2
  Transforming local potential to a uniform radial grid of dG=0.02 with 1398 points.
  Transforming nonlocal projectors to a uniform radial grid of dG=0.02 with 528 points.
    3S    l: 0   occupation:  2.0   eigenvalue: -2.581105
    3P    l: 1   occupation:  6.0   eigenvalue: -1.618486
    4S    l: 0   occupation:  2.0   eigenvalue: -0.172804
    3D    l: 2   occupation:  3.0   eigenvalue: -0.189795
  Transforming atomic orbitals to a uniform radial grid of dG=0.02 with 528 points.
  Core radius for overlap checks: 1.80 bohrs.
  Reading pulay file /data2/jt577/jdftx_eat_withLibXC/build/pseudopotentials/SG15/V_ONCV_PBE.pulay ... using dE_dnG = -1.698632e-04 computed for Ecut = 30.

Reading pseudopotential file '/data2/jt577/jdftx_eat_withLibXC/build/pseudopotentials/SG15/O_ONCV_PBE.upf':
  'O' pseudopotential, 'PBE' functional
  Generated using ONCVPSP code by D. R. Hamann
  Author: Martin Schlipf and Francois Gygi  Date: 150915.
  6 valence electrons, 2 orbitals, 4 projectors, 936 radial grid points, with lMax = 1
  Transforming local potential to a uniform radial grid of dG=0.02 with 1398 points.
  Transforming nonlocal projectors to a uniform radial grid of dG=0.02 with 528 points.
    2S    l: 0   occupation:  2.0   eigenvalue: -0.880572
    2P    l: 1   occupation:  4.0   eigenvalue: -0.331869
  Transforming atomic orbitals to a uniform radial grid of dG=0.02 with 528 points.
  Core radius for overlap checks: 1.29 bohrs.
  Reading pulay file /data2/jt577/jdftx_eat_withLibXC/build/pseudopotentials/SG15/O_ONCV_PBE.pulay ... using dE_dnG = -8.209514e-03 computed for Ecut = 30.

Initialized 2 species with 33 total atoms.

Folded 1 k-points by 3x3x1 to 9 k-points.

---------- Setting up k-points, bands, fillings ----------
No reducable k-points. 
Computing the number of bands and number of electrons
Calculating initial fillings.
nElectrons: 310.000000   nBands: 228   nStates: 18

----- Setting up reduced wavefunction bases (one per k-point) -----
average nbasis = 44217.778 , ideal nbasis = 44229.907

---------- Setting up ewald sum ----------
Optimum gaussian width for ewald sums = 3.964038 bohr.
Real space sum over 605 unit cells with max indices [  5  5  2  ]
Reciprocal space sum over 5915 terms with max indices [  6  6  17  ]

---------- Allocating electronic variables ----------
Initializing wave functions:  linear combination of atomic orbitals
V (M=1) pseudo-atom majority spin occupations:   s ( 1 0 )  p ( 3 )  d ( 3 )
V (M=1) pseudo-atom minority spin occupations:   s ( 1 0 )  p ( 3 )  d ( 2 )
O pseudo-atom occupations:   s ( 2 )  p ( 4 )
	FillingsUpdate:  mu: -0.308186134  nElectrons: 310.000000  magneticMoment: [ Abs: 6.44349  Tot: -0.00000 ]
LCAOMinimize: Iter:   0  F: -1386.0000781092105626  |grad|_K:  8.638e-03  alpha:  1.000e+00
	FillingsUpdate:  mu: +0.255339652  nElectrons: 310.000000  magneticMoment: [ Abs: 8.45277  Tot: +0.00000 ]
LCAOMinimize: Iter:   1  F: -1389.8795261214413586  |grad|_K:  1.586e-02  alpha:  1.076e-01  linmin:  4.193e-03  cgtest: -2.809e-01  t[s]:     42.88
	FillingsUpdate:  mu: +0.375989140  nElectrons: 310.000000  magneticMoment: [ Abs: 9.04697  Tot: -0.00000 ]
LCAOMinimize: Iter:   2  F: -1391.2229766264540558  |grad|_K:  1.937e-02  alpha:  8.406e-03  linmin: -6.347e-03  cgtest:  8.221e-01  t[s]:     57.73
	FillingsUpdate:  mu: +0.523608696  nElectrons: 310.000000  magneticMoment: [ Abs: 10.16004  Tot: +0.00000 ]
LCAOMinimize: Iter:   3  F: -1394.1144804128948635  |grad|_K:  1.493e-02  alpha:  1.180e-02  linmin: -5.238e-02  cgtest:  9.231e-01  t[s]:     72.66
LCAOMinimize: Encountered beta<0, resetting CG.
LCAOMinimize: 	Predicted alpha/alphaT>3.000000, increasing alphaT to 3.540868e-02.
	FillingsUpdate:  mu: -0.353739013  nElectrons: 310.000000  magneticMoment: [ Abs: 14.81374  Tot: -0.00000 ]
LCAOMinimize: Iter:   4  F: -1397.1606687448233970  |grad|_K:  2.032e-02  alpha:  4.700e-02  linmin:  9.920e-02  cgtest: -4.218e-01  t[s]:     91.91
LCAOMinimize: 	Bad step direction: g.d > 0.
LCAOMinimize: 	Undoing step.
LCAOMinimize: 	Step failed: resetting search direction.
	FillingsUpdate:  mu: -0.353739013  nElectrons: 310.000000  magneticMoment: [ Abs: 14.81374  Tot: -0.00000 ]
LCAOMinimize: Iter:   5  F: -1397.1606687448233970  |grad|_K:  2.032e-02  alpha:  0.000e+00
	FillingsUpdate:  mu: -0.096563066  nElectrons: 310.000000  magneticMoment: [ Abs: 15.52153  Tot: +0.00000 ]
LCAOMinimize: Iter:   6  F: -1399.9453695076783788  |grad|_K:  1.093e-02  alpha:  1.652e-02  linmin:  2.080e-02  cgtest: -1.794e-01  t[s]:    117.38
	FillingsUpdate:  mu: +0.298149812  nElectrons: 310.000000  magneticMoment: [ Abs: 15.39718  Tot: +0.00000 ]
LCAOMinimize: Iter:   7  F: -1401.1513123399224696  |grad|_K:  1.103e-02  alpha:  3.167e-02  linmin:  5.433e-02  cgtest: -1.043e-01  t[s]:    132.28
	FillingsUpdate:  mu: +0.565371260  nElectrons: 310.000000  magneticMoment: [ Abs: 18.46577  Tot: -0.00000 ]
LCAOMinimize: Iter:   8  F: -1402.0200446681358244  |grad|_K:  2.026e-02  alpha:  3.657e-02  linmin:  3.663e-03  cgtest:  8.414e-01  t[s]:    147.16
	FillingsUpdate:  mu: +0.335463861  nElectrons: 310.000000  magneticMoment: [ Abs: 26.05417  Tot: -0.00000 ]
LCAOMinimize: Iter:   9  F: -1406.1118876237626409  |grad|_K:  7.471e-03  alpha:  2.059e-02  linmin: -1.633e-03  cgtest:  4.780e-01  t[s]:    161.95
LCAOMinimize: Encountered beta<0, resetting CG.
	FillingsUpdate:  mu: +0.188075980  nElectrons: 310.000000  magneticMoment: [ Abs: 27.19254  Tot: +0.00000 ]
LCAOMinimize: Iter:  10  F: -1406.7101156526193790  |grad|_K:  5.020e-03  alpha:  2.283e-02  linmin:  7.012e-03  cgtest:  6.157e-02  t[s]:    176.83
	FillingsUpdate:  mu: +0.157536574  nElectrons: 310.000000  magneticMoment: [ Abs: 28.36635  Tot: +0.00000 ]
LCAOMinimize: Iter:  11  F: -1406.9151609775810812  |grad|_K:  4.209e-03  alpha:  1.775e-02  linmin:  3.963e-04  cgtest:  6.570e-02  t[s]:    191.76
	FillingsUpdate:  mu: +0.203435932  nElectrons: 310.000000  magneticMoment: [ Abs: 30.90563  Tot: -0.00000 ]
LCAOMinimize: Iter:  12  F: -1407.2291678393630718  |grad|_K:  2.181e-03  alpha:  3.496e-02  linmin: -3.487e-02  cgtest:  1.362e-02  t[s]:    206.79
LCAOMinimize: 	Predicted alpha/alphaT>3.000000, increasing alphaT to 1.048759e-01.
	FillingsUpdate:  mu: +0.145076104  nElectrons: 310.000000  magneticMoment: [ Abs: 35.45851  Tot: +0.00000 ]
LCAOMinimize: Iter:  13  F: -1407.4836890913502430  |grad|_K:  2.657e-03  alpha:  9.912e-02  linmin: -5.343e-03  cgtest:  1.657e-01  t[s]:    225.97
	FillingsUpdate:  mu: +0.190049759  nElectrons: 310.000000  magneticMoment: [ Abs: 37.37101  Tot: -0.00000 ]
LCAOMinimize: Iter:  14  F: -1407.6360927727955641  |grad|_K:  1.994e-03  alpha:  3.617e-02  linmin: -1.157e-02  cgtest: -6.170e-02  t[s]:    240.88
	FillingsUpdate:  mu: +0.197513758  nElectrons: 310.000000  magneticMoment: [ Abs: 39.28328  Tot: +0.00000 ]
LCAOMinimize: Iter:  15  F: -1407.7548369984681358  |grad|_K:  1.339e-03  alpha:  5.467e-02  linmin: -7.910e-03  cgtest:  7.366e-02  t[s]:    255.73
	FillingsUpdate:  mu: +0.211739721  nElectrons: 310.000000  magneticMoment: [ Abs: 40.50258  Tot: +0.00000 ]
LCAOMinimize: Iter:  16  F: -1407.8126590695933373  |grad|_K:  1.391e-03  alpha:  6.178e-02  linmin: -7.570e-03  cgtest:  1.094e-02  t[s]:    270.66
	FillingsUpdate:  mu: +0.214576271  nElectrons: 310.000000  magneticMoment: [ Abs: 41.70223  Tot: -0.00000 ]
LCAOMinimize: Iter:  17  F: -1407.8698656059741552  |grad|_K:  9.644e-04  alpha:  5.693e-02  linmin: -8.952e-03  cgtest: -2.431e-02  t[s]:    285.62
	FillingsUpdate:  mu: +0.217470097  nElectrons: 310.000000  magneticMoment: [ Abs: 42.68437  Tot: -0.00000 ]
LCAOMinimize: Iter:  18  F: -1407.9072184222927717  |grad|_K:  9.849e-04  alpha:  7.753e-02  linmin:  3.162e-03  cgtest: -2.561e-01  t[s]:    300.51
	FillingsUpdate:  mu: +0.205558303  nElectrons: 310.000000  magneticMoment: [ Abs: 43.51982  Tot: +0.00000 ]
LCAOMinimize: Iter:  19  F: -1407.9266841201042553  |grad|_K:  8.457e-04  alpha:  5.070e-02  linmin: -8.693e-04  cgtest:  2.506e-01  t[s]:    315.35
	FillingsUpdate:  mu: +0.202015377  nElectrons: 310.000000  magneticMoment: [ Abs: 44.08228  Tot: +0.00000 ]
LCAOMinimize: Iter:  20  F: -1407.9503044936204788  |grad|_K:  7.452e-04  alpha:  7.671e-02  linmin:  5.651e-03  cgtest: -4.661e-01  t[s]:    330.26
	FillingsUpdate:  mu: +0.196727511  nElectrons: 310.000000  magneticMoment: [ Abs: 44.35912  Tot: +0.00000 ]
LCAOMinimize: Iter:  21  F: -1407.9550347655290352  |grad|_K:  4.649e-04  alpha:  2.601e-02  linmin:  2.325e-03  cgtest:  3.351e-01  t[s]:    345.29
	FillingsUpdate:  mu: +0.200893499  nElectrons: 310.000000  magneticMoment: [ Abs: 44.57664  Tot: +0.00000 ]
LCAOMinimize: Iter:  22  F: -1407.9608478517350250  |grad|_K:  3.075e-04  alpha:  5.756e-02  linmin: -4.012e-03  cgtest:  1.214e-01  t[s]:    360.13
	FillingsUpdate:  mu: +0.201441638  nElectrons: 310.000000  magneticMoment: [ Abs: 44.67263  Tot: -0.00000 ]
LCAOMinimize: Iter:  23  F: -1407.9625817766841465  |grad|_K:  3.059e-04  alpha:  3.698e-02  linmin:  1.044e-04  cgtest: -2.022e-02  t[s]:    375.15
	FillingsUpdate:  mu: +0.192843891  nElectrons: 310.000000  magneticMoment: [ Abs: 45.03989  Tot: +0.00000 ]
LCAOMinimize: Iter:  24  F: -1407.9657066991003376  |grad|_K:  2.684e-04  alpha:  8.851e-02  linmin:  1.635e-02  cgtest: -4.074e-01  t[s]:    390.28
	FillingsUpdate:  mu: +0.195629558  nElectrons: 310.000000  magneticMoment: [ Abs: 45.23548  Tot: -0.00000 ]
LCAOMinimize: Iter:  25  F: -1407.9662268241286256  |grad|_K:  2.669e-04  alpha:  3.848e-02  linmin:  2.016e-04  cgtest:  8.525e-01  t[s]:    405.34
	FillingsUpdate:  mu: +0.200341157  nElectrons: 310.000000  magneticMoment: [ Abs: 45.30491  Tot: +0.00000 ]
LCAOMinimize: Iter:  26  F: -1407.9689143769835482  |grad|_K:  1.566e-04  alpha:  7.284e-02  linmin: -2.303e-02  cgtest:  2.393e-01  t[s]:    420.43
	FillingsUpdate:  mu: +0.196414479  nElectrons: 310.000000  magneticMoment: [ Abs: 45.32885  Tot: -0.00000 ]
LCAOMinimize: Iter:  27  F: -1407.9692578882297767  |grad|_K:  1.174e-04  alpha:  2.716e-02  linmin:  2.145e-03  cgtest: -1.501e-01  t[s]:    435.43
LCAOMinimize: 	Predicted alpha/alphaT>3.000000, increasing alphaT to 8.148929e-02.
	FillingsUpdate:  mu: +0.196010444  nElectrons: 310.000000  magneticMoment: [ Abs: 45.44585  Tot: -0.00000 ]
LCAOMinimize: Iter:  28  F: -1407.9699716316740705  |grad|_K:  1.252e-04  alpha:  1.103e-01  linmin: -2.415e-03  cgtest:  4.992e-01  t[s]:    454.95
	FillingsUpdate:  mu: +0.198907068  nElectrons: 310.000000  magneticMoment: [ Abs: 45.50383  Tot: +0.00000 ]
LCAOMinimize: Iter:  29  F: -1407.9703170146535740  |grad|_K:  1.464e-04  alpha:  4.487e-02  linmin: -3.235e-04  cgtest: -3.708e-02  t[s]:    469.99
	FillingsUpdate:  mu: +0.197670482  nElectrons: 310.000000  magneticMoment: [ Abs: 45.75231  Tot: -0.00000 ]
LCAOMinimize: Iter:  30  F: -1407.9713106096805859  |grad|_K:  1.170e-04  alpha:  9.703e-02  linmin: -3.224e-04  cgtest: -8.275e-02  t[s]:    485.28
LCAOMinimize: None of the convergence criteria satisfied after 30 iterations.


---- Citations for features of the code used in this run ----

   Software package:
      R. Sundararaman, K. Letchworth-Weaver, K.A. Schwarz, D. Gunceler, Y. Ozhabes and T.A. Arias, 'JDFTx: software for joint density-functional theory', SoftwareX 6, 278 (2017)

   Simplified rotationally-invariant DFT+U:
      S. L. Dudarev et al., Phys. Rev. B 57, 1505 (1998)

   LibXC library of exchange-correlation functions:
      M. A. L. Marques, M. J. T. Oliveira and T. Burnus, Comput. Phys. Commun. 183, 2272 (2012)

   Hammer, Hansen, and Norskov exchange functional:
      B. Hammer, L. B. Hansen, and J. K. Nørskov, Phys. Rev. B 59, 7413 (1999)

   Perdew, Burke & Ernzerhof correlation functional:
      J. P. Perdew, K. Burke, and M. Ernzerhof, Phys. Rev. Lett. 77, 3865 (1996)

   Pseudopotentials:
      M Schlipf and F Gygi, Comput. Phys. Commun. 196, 36 (2015)

   Total energy minimization with Auxiliary Hamiltonian:
      C. Freysoldt, S. Boeck, and J. Neugebauer, Phys. Rev. B 79, 241103(R) (2009)

This list may not be complete. Please suggest additional citations or
report any other bugs at https://github.com/shankar1729/jdftx/issues

Initialization completed successfully at t[s]:    491.36


-------- Electronic minimization -----------
	FillingsUpdate:  mu: +0.197670500  nElectrons: 310.000000  magneticMoment: [ Abs: 45.75231  Tot: -0.00000 ]
ElecMinimize: Iter:   0  F: -1407.971310609678994  |grad|_K:  1.090e-04  alpha:  1.000e+00
	FillingsUpdate:  mu: +0.170541443  nElectrons: 310.000000  magneticMoment: [ Abs: 45.88893  Tot: -0.00000 ]
	SubspaceRotationAdjust: set factor to 0.965
ElecMinimize: Iter:   1  F: -1408.866498047785171  |grad|_K:  8.120e-05  alpha:  4.163e-01  linmin:  5.105e-05  t[s]:    585.18
	FillingsUpdate:  mu: +0.196783071  nElectrons: 310.000000  magneticMoment: [ Abs: 45.88605  Tot: -0.00000 ]
	SubspaceRotationAdjust: set factor to 0.737
ElecMinimize: Iter:   2  F: -1409.151628882611476  |grad|_K:  7.269e-05  alpha:  2.850e-01  linmin: -2.900e-04  t[s]:    662.55
	FillingsUpdate:  mu: +0.168396823  nElectrons: 310.000000  magneticMoment: [ Abs: 45.71398  Tot: +0.00000 ]
	SubspaceRotationAdjust: set factor to 0.409
ElecMinimize: Iter:   3  F: -1409.170971934636100  |grad|_K:  1.265e-04  alpha:  1.189e-01  linmin:  1.891e-03  t[s]:    738.10
ElecMinimize: 	Step increased F by 1.973987e-03, reducing alpha to 3.212945e-03.
	FillingsUpdate:  mu: +0.170103581  nElectrons: 310.000000  magneticMoment: [ Abs: 45.71045  Tot: -0.00000 ]
	SubspaceRotationAdjust: set factor to 0.243
ElecMinimize: Iter:   4  F: -1409.176189875799992  |grad|_K:  9.820e-05  alpha:  3.213e-03  linmin: -6.499e-04  t[s]:    856.48
ElecMinimize: 	Predicted alpha/alphaT>3.000000, increasing alphaT to 9.638834e-03.
ElecMinimize: 	Predicted alpha/alphaT>3.000000, increasing alphaT to 2.891650e-02.
ElecMinimize: 	Wrong curvature in test step, increasing alphaT to 8.674951e-02.
	FillingsUpdate:  mu: +0.154340935  nElectrons: 310.000000  magneticMoment: [ Abs: 45.71486  Tot: +0.00000 ]
	SubspaceRotationAdjust: set factor to 0.152
ElecMinimize: Iter:   5  F: -1409.305389642478758  |grad|_K:  7.046e-05  alpha: -4.910e-01  linmin: -4.157e-03  t[s]:    968.47
	FillingsUpdate:  mu: +0.141989600  nElectrons: 310.000000  magneticMoment: [ Abs: 45.75471  Tot: -0.00000 ]
	SubspaceRotationAdjust: set factor to 0.137
ElecMinimize: Iter:   6  F: -1409.342090696543892  |grad|_K:  3.499e-05  alpha:  3.512e-02  linmin:  1.183e-03  t[s]:   1045.07
ElecMinimize: 	Predicted alpha/alphaT>3.000000, increasing alphaT to 1.053730e-01.
	FillingsUpdate:  mu: +0.132848946  nElectrons: 310.000000  magneticMoment: [ Abs: 45.82638  Tot: -0.00000 ]
	SubspaceRotationAdjust: set factor to 0.113
	SubspaceRotationAdjust: resetting CG because factor has changed by 0.112564
ElecMinimize: 	State modified externally: resetting search direction.
ElecMinimize: Iter:   7  F: -1409.371163685464808  |grad|_K:  3.224e-05  alpha:  2.423e-01
	FillingsUpdate:  mu: +0.145920746  nElectrons: 310.000000  magneticMoment: [ Abs: 45.81722  Tot: +0.00000 ]
	SubspaceRotationAdjust: set factor to 0.138
ElecMinimize: Iter:   8  F: -1409.426384696653258  |grad|_K:  1.490e-05  alpha:  2.824e-01  linmin: -1.047e-02  t[s]:   1248.52
	FillingsUpdate:  mu: +0.155820629  nElectrons: 310.000000  magneticMoment: [ Abs: 45.83893  Tot: -0.00000 ]
	SubspaceRotationAdjust: set factor to 0.0931
ElecMinimize: Iter:   9  F: -1409.437468357391936  |grad|_K:  2.554e-05  alpha:  4.132e-01  linmin:  3.254e-02  t[s]:   1324.44
ElecMinimize: 	Bad step direction: g.d > 0.
ElecMinimize: 	Undoing step.
ElecMinimize: 	Step failed: resetting search direction.
	FillingsUpdate:  mu: +0.155820629  nElectrons: 310.000000  magneticMoment: [ Abs: 45.83893  Tot: -0.00000 ]
	SubspaceRotationAdjust: set factor to 0.0706
ElecMinimize: Iter:  10  F: -1409.437468357391936  |grad|_K:  2.224e-05  alpha:  0.000e+00
	FillingsUpdate:  mu: +0.144122837  nElectrons: 310.000000  magneticMoment: [ Abs: 45.89114  Tot: +0.00000 ]
	SubspaceRotationAdjust: set factor to 0.0332
ElecMinimize: Iter:  11  F: -1409.451555731640155  |grad|_K:  9.279e-06  alpha:  2.073e-01  linmin:  2.163e-02  t[s]:   1448.26
	FillingsUpdate:  mu: +0.146095670  nElectrons: 310.000000  magneticMoment: [ Abs: 45.91648  Tot: +0.00000 ]
	SubspaceRotationAdjust: set factor to 0.0251
ElecMinimize: Iter:  12  F: -1409.457504628508559  |grad|_K:  6.077e-06  alpha:  4.479e-01  linmin:  6.650e-03  t[s]:   1524.30
	FillingsUpdate:  mu: +0.144671905  nElectrons: 310.000000  magneticMoment: [ Abs: 45.96660  Tot: +0.00000 ]
	SubspaceRotationAdjust: set factor to 0.031
ElecMinimize: Iter:  13  F: -1409.461862348241311  |grad|_K:  5.364e-06  alpha:  6.870e-01  linmin:  1.160e-03  t[s]:   1602.61
	FillingsUpdate:  mu: +0.142455433  nElectrons: 310.000000  magneticMoment: [ Abs: 46.00494  Tot: +0.00000 ]
	SubspaceRotationAdjust: set factor to 0.038
ElecMinimize: Iter:  14  F: -1409.464177089150326  |grad|_K:  3.423e-06  alpha:  4.496e-01  linmin:  7.697e-04  t[s]:   1678.13
	FillingsUpdate:  mu: +0.141741883  nElectrons: 310.000000  magneticMoment: [ Abs: 46.02517  Tot: -0.00000 ]
	SubspaceRotationAdjust: set factor to 0.0445
ElecMinimize: Iter:  15  F: -1409.465229307004165  |grad|_K:  2.677e-06  alpha:  4.987e-01  linmin:  1.788e-04  t[s]:   1754.72
	FillingsUpdate:  mu: +0.141919091  nElectrons: 310.000000  magneticMoment: [ Abs: 46.03813  Tot: -0.00000 ]
	SubspaceRotationAdjust: set factor to 0.051
ElecMinimize: Iter:  16  F: -1409.466249949138728  |grad|_K:  2.852e-06  alpha:  7.838e-01  linmin: -2.220e-04  t[s]:   1830.15
	FillingsUpdate:  mu: +0.141859860  nElectrons: 310.000000  magneticMoment: [ Abs: 46.04762  Tot: -0.00000 ]
	SubspaceRotationAdjust: set factor to 0.0596
ElecMinimize: Iter:  17  F: -1409.467265013409815  |grad|_K:  2.781e-06  alpha:  6.811e-01  linmin: -2.552e-04  t[s]:   1905.81
	FillingsUpdate:  mu: +0.140294435  nElectrons: 310.000000  magneticMoment: [ Abs: 46.05522  Tot: +0.00000 ]
	SubspaceRotationAdjust: set factor to 0.0697
ElecMinimize: Iter:  18  F: -1409.468123617092260  |grad|_K:  2.740e-06  alpha:  6.016e-01  linmin: -1.600e-04  t[s]:   1982.44
	FillingsUpdate:  mu: +0.140143238  nElectrons: 310.000000  magneticMoment: [ Abs: 46.06183  Tot: +0.00000 ]
	SubspaceRotationAdjust: set factor to 0.0783
ElecMinimize: Iter:  19  F: -1409.469016662265858  |grad|_K:  2.727e-06  alpha:  6.442e-01  linmin: -1.434e-04  t[s]:   2059.14
	FillingsUpdate:  mu: +0.139127881  nElectrons: 310.000000  magneticMoment: [ Abs: 46.07515  Tot: -0.00000 ]
	SubspaceRotationAdjust: set factor to 0.0849
ElecMinimize: Iter:  20  F: -1409.469937810378951  |grad|_K:  2.849e-06  alpha:  6.699e-01  linmin:  5.213e-05  t[s]:   2138.72
	FillingsUpdate:  mu: +0.138893580  nElectrons: 310.000000  magneticMoment: [ Abs: 46.09141  Tot: +0.00000 ]
	SubspaceRotationAdjust: set factor to 0.0942
ElecMinimize: Iter:  21  F: -1409.470765335414853  |grad|_K:  2.592e-06  alpha:  5.640e-01  linmin:  1.354e-05  t[s]:   2218.48
	FillingsUpdate:  mu: +0.138562253  nElectrons: 310.000000  magneticMoment: [ Abs: 46.10535  Tot: +0.00000 ]
	SubspaceRotationAdjust: set factor to 0.0999
ElecMinimize: Iter:  22  F: -1409.471397100376862  |grad|_K:  2.225e-06  alpha:  5.180e-01  linmin: -1.608e-06  t[s]:   2297.81
	FillingsUpdate:  mu: +0.137549178  nElectrons: 310.000000  magneticMoment: [ Abs: 46.11736  Tot: -0.00000 ]
	SubspaceRotationAdjust: set factor to 0.0993
ElecMinimize: Iter:  23  F: -1409.471856600725914  |grad|_K:  1.953e-06  alpha:  5.098e-01  linmin:  7.155e-05  t[s]:   2375.27
	FillingsUpdate:  mu: +0.138297235  nElectrons: 310.000000  magneticMoment: [ Abs: 46.12144  Tot: +0.00000 ]
	SubspaceRotationAdjust: set factor to 0.0833
ElecMinimize: Iter:  24  F: -1409.472127946143701  |grad|_K:  1.635e-06  alpha:  3.968e-01  linmin:  2.030e-08  t[s]:   2452.85
	FillingsUpdate:  mu: +0.137032460  nElectrons: 310.000000  magneticMoment: [ Abs: 46.12903  Tot: +0.00000 ]
	SubspaceRotationAdjust: set factor to 0.0704
ElecMinimize: Iter:  25  F: -1409.472313691969248  |grad|_K:  1.317e-06  alpha:  3.818e-01  linmin:  3.541e-05  t[s]:   2530.77
	FillingsUpdate:  mu: +0.137324373  nElectrons: 310.000000  magneticMoment: [ Abs: 46.13236  Tot: -0.00000 ]
	SubspaceRotationAdjust: set factor to 0.0752
ElecMinimize: Iter:  26  F: -1409.472452865421246  |grad|_K:  1.060e-06  alpha:  4.437e-01  linmin:  1.451e-05  t[s]:   2609.44
	FillingsUpdate:  mu: +0.137551945  nElectrons: 310.000000  magneticMoment: [ Abs: 46.13511  Tot: +0.00000 ]
	SubspaceRotationAdjust: set factor to 0.0874
ElecMinimize: Iter:  27  F: -1409.472554129430137  |grad|_K:  9.115e-07  alpha:  4.968e-01  linmin:  1.581e-05  t[s]:   2686.06
	FillingsUpdate:  mu: +0.137212413  nElectrons: 310.000000  magneticMoment: [ Abs: 46.13902  Tot: +0.00000 ]
	SubspaceRotationAdjust: set factor to 0.092
ElecMinimize: Iter:  28  F: -1409.472625430469407  |grad|_K:  8.599e-07  alpha:  4.728e-01  linmin:  1.828e-05  t[s]:   2765.17
	FillingsUpdate:  mu: +0.137998553  nElectrons: 310.000000  magneticMoment: [ Abs: 46.14079  Tot: -0.00000 ]
	SubspaceRotationAdjust: set factor to 0.0956
ElecMinimize: Iter:  29  F: -1409.472683856155527  |grad|_K:  7.888e-07  alpha:  4.357e-01  linmin:  2.110e-05  t[s]:   2844.13
	FillingsUpdate:  mu: +0.137808334  nElectrons: 310.000000  magneticMoment: [ Abs: 46.14526  Tot: -0.00000 ]
	SubspaceRotationAdjust: set factor to 0.111
ElecMinimize: Iter:  30  F: -1409.472737955840330  |grad|_K:  7.113e-07  alpha:  4.802e-01  linmin:  5.674e-05  t[s]:   2922.07
	FillingsUpdate:  mu: +0.138149165  nElectrons: 310.000000  magneticMoment: [ Abs: 46.14858  Tot: +0.00000 ]
	SubspaceRotationAdjust: set factor to 0.139
ElecMinimize: Iter:  31  F: -1409.472786997127969  |grad|_K:  6.717e-07  alpha:  5.392e-01  linmin:  3.677e-05  t[s]:   3003.21
	FillingsUpdate:  mu: +0.138361141  nElectrons: 310.000000  magneticMoment: [ Abs: 46.15223  Tot: +0.00000 ]
	SubspaceRotationAdjust: set factor to 0.169
ElecMinimize: Iter:  32  F: -1409.472832285065124  |grad|_K:  6.603e-07  alpha:  5.568e-01  linmin:  5.478e-05  t[s]:   3081.92
	FillingsUpdate:  mu: +0.138390114  nElectrons: 310.000000  magneticMoment: [ Abs: 46.15615  Tot: -0.00000 ]
	SubspaceRotationAdjust: set factor to 0.194
ElecMinimize: Iter:  33  F: -1409.472872096025867  |grad|_K:  6.691e-07  alpha:  5.078e-01  linmin:  7.907e-05  t[s]:   3162.33
	FillingsUpdate:  mu: +0.138973058  nElectrons: 310.000000  magneticMoment: [ Abs: 46.15705  Tot: -0.00000 ]
	SubspaceRotationAdjust: set factor to 0.167
ElecMinimize: Iter:  34  F: -1409.472894851239971  |grad|_K:  7.640e-07  alpha:  2.940e-01  linmin:  2.910e-05  t[s]:   3241.20
	FillingsUpdate:  mu: +0.138627667  nElectrons: 310.000000  magneticMoment: [ Abs: 46.15975  Tot: +0.00000 ]
	SubspaceRotationAdjust: set factor to 0.126
ElecMinimize: Iter:  35  F: -1409.472913548744600  |grad|_K:  5.707e-07  alpha:  1.717e-01  linmin: -3.479e-05  t[s]:   3319.36
	FillingsUpdate:  mu: +0.138804391  nElectrons: 310.000000  magneticMoment: [ Abs: 46.16147  Tot: +0.00000 ]
	SubspaceRotationAdjust: set factor to 0.151
ElecMinimize: Iter:  36  F: -1409.472935990954511  |grad|_K:  4.878e-07  alpha:  3.752e-01  linmin:  1.224e-05  t[s]:   3398.58
	FillingsUpdate:  mu: +0.139089612  nElectrons: 310.000000  magneticMoment: [ Abs: 46.16243  Tot: -0.00000 ]
	SubspaceRotationAdjust: set factor to 0.145
ElecMinimize: Iter:  37  F: -1409.472951779217738  |grad|_K:  4.947e-07  alpha:  3.663e-01  linmin: -1.553e-05  t[s]:   3476.89
	FillingsUpdate:  mu: +0.138804848  nElectrons: 310.000000  magneticMoment: [ Abs: 46.16427  Tot: -0.00000 ]
	SubspaceRotationAdjust: set factor to 0.122
ElecMinimize: Iter:  38  F: -1409.472961975247472  |grad|_K:  4.494e-07  alpha:  2.255e-01  linmin:  2.159e-06  t[s]:   3557.82
	FillingsUpdate:  mu: +0.138927721  nElectrons: 310.000000  magneticMoment: [ Abs: 46.16542  Tot: -0.00000 ]
	SubspaceRotationAdjust: set factor to 0.15
ElecMinimize: Iter:  39  F: -1409.472974028133194  |grad|_K:  3.625e-07  alpha:  3.279e-01  linmin:  1.680e-05  t[s]:   3636.43
	FillingsUpdate:  mu: +0.139055920  nElectrons: 310.000000  magneticMoment: [ Abs: 46.16647  Tot: -0.00000 ]
	SubspaceRotationAdjust: set factor to 0.155
ElecMinimize: Iter:  40  F: -1409.472983499664679  |grad|_K:  3.767e-07  alpha:  3.982e-01  linmin:  3.781e-05  t[s]:   3716.25
	FillingsUpdate:  mu: +0.138804849  nElectrons: 310.000000  magneticMoment: [ Abs: 46.16802  Tot: +0.00000 ]
	SubspaceRotationAdjust: set factor to 0.143
ElecMinimize: Iter:  41  F: -1409.472989456498226  |grad|_K:  3.691e-07  alpha:  2.335e-01  linmin:  3.544e-05  t[s]:   3796.09
	FillingsUpdate:  mu: +0.138888270  nElectrons: 310.000000  magneticMoment: [ Abs: 46.16904  Tot: +0.00000 ]
	SubspaceRotationAdjust: set factor to 0.198
ElecMinimize: Iter:  42  F: -1409.472996854549820  |grad|_K:  3.052e-07  alpha:  3.021e-01  linmin:  5.751e-05  t[s]:   3876.20
	FillingsUpdate:  mu: +0.138887263  nElectrons: 310.000000  magneticMoment: [ Abs: 46.17044  Tot: +0.00000 ]
	SubspaceRotationAdjust: set factor to 0.19
ElecMinimize: Iter:  43  F: -1409.473003710143985  |grad|_K:  3.258e-07  alpha:  4.136e-01  linmin:  6.840e-05  t[s]:   3955.87
	FillingsUpdate:  mu: +0.138661556  nElectrons: 310.000000  magneticMoment: [ Abs: 46.17195  Tot: -0.00000 ]
	SubspaceRotationAdjust: set factor to 0.158
ElecMinimize: Iter:  44  F: -1409.473007672624590  |grad|_K:  3.586e-07  alpha:  2.068e-01  linmin:  4.574e-06  t[s]:   4035.99
	FillingsUpdate:  mu: +0.138717477  nElectrons: 310.000000  magneticMoment: [ Abs: 46.17308  Tot: +0.00000 ]
	SubspaceRotationAdjust: set factor to 0.216
ElecMinimize: Iter:  45  F: -1409.473012897911303  |grad|_K:  2.721e-07  alpha:  2.236e-01  linmin:  1.832e-05  t[s]:   4116.75
	FillingsUpdate:  mu: +0.138752533  nElectrons: 310.000000  magneticMoment: [ Abs: 46.17415  Tot: +0.00000 ]
	SubspaceRotationAdjust: set factor to 0.232
ElecMinimize: Iter:  46  F: -1409.473017475015922  |grad|_K:  3.028e-07  alpha:  3.416e-01  linmin:  3.719e-06  t[s]:   4195.42
	FillingsUpdate:  mu: +0.138561125  nElectrons: 310.000000  magneticMoment: [ Abs: 46.17526  Tot: -0.00000 ]
	SubspaceRotationAdjust: set factor to 0.205
ElecMinimize: Iter:  47  F: -1409.473019935255707  |grad|_K:  2.933e-07  alpha:  1.438e-01  linmin: -3.292e-05  t[s]:   4275.02
	FillingsUpdate:  mu: +0.138569843  nElectrons: 310.000000  magneticMoment: [ Abs: 46.17629  Tot: -0.00000 ]
	SubspaceRotationAdjust: set factor to 0.272
ElecMinimize: Iter:  48  F: -1409.473023928894690  |grad|_K:  2.404e-07  alpha:  2.503e-01  linmin: -1.563e-05  t[s]:   4355.61
	FillingsUpdate:  mu: +0.138676456  nElectrons: 310.000000  magneticMoment: [ Abs: 46.17684  Tot: -0.00000 ]
	SubspaceRotationAdjust: set factor to 0.239
ElecMinimize: Iter:  49  F: -1409.473026756254058  |grad|_K:  3.057e-07  alpha:  2.666e-01  linmin: -1.851e-05  t[s]:   4434.93
	FillingsUpdate:  mu: +0.138523347  nElectrons: 310.000000  magneticMoment: [ Abs: 46.17774  Tot: -0.00000 ]
	SubspaceRotationAdjust: set factor to 0.192
ElecMinimize: Iter:  50  F: -1409.473028658665953  |grad|_K:  2.302e-07  alpha:  1.088e-01  linmin: -2.190e-05  t[s]:   4512.49
	FillingsUpdate:  mu: +0.138521944  nElectrons: 310.000000  magneticMoment: [ Abs: 46.17844  Tot: +0.00000 ]
	SubspaceRotationAdjust: set factor to 0.257
ElecMinimize: Iter:  51  F: -1409.473031694618840  |grad|_K:  2.156e-07  alpha:  3.107e-01  linmin: -2.733e-06  t[s]:   4593.20
	FillingsUpdate:  mu: +0.138651009  nElectrons: 310.000000  magneticMoment: [ Abs: 46.17843  Tot: +0.00000 ]
	SubspaceRotationAdjust: set factor to 0.222
ElecMinimize: Iter:  52  F: -1409.473033476869659  |grad|_K:  2.597e-07  alpha:  2.111e-01  linmin:  4.878e-06  t[s]:   4672.62
	FillingsUpdate:  mu: +0.138538270  nElectrons: 310.000000  magneticMoment: [ Abs: 46.17894  Tot: +0.00000 ]
	SubspaceRotationAdjust: set factor to 0.216
ElecMinimize: Iter:  53  F: -1409.473035303000188  |grad|_K:  1.891e-07  alpha:  1.490e-01  linmin:  8.000e-06  t[s]:   4752.57
	FillingsUpdate:  mu: +0.138567289  nElectrons: 310.000000  magneticMoment: [ Abs: 46.17895  Tot: +0.00000 ]
	SubspaceRotationAdjust: set factor to 0.292
ElecMinimize: Iter:  54  F: -1409.473037489543913  |grad|_K:  1.726e-07  alpha:  3.372e-01  linmin:  1.040e-05  t[s]:   4830.52
	FillingsUpdate:  mu: +0.138646916  nElectrons: 310.000000  magneticMoment: [ Abs: 46.17860  Tot: -0.00000 ]
	SubspaceRotationAdjust: set factor to 0.243
ElecMinimize: Iter:  55  F: -1409.473039260977203  |grad|_K:  2.037e-07  alpha:  3.289e-01  linmin:  1.309e-05  t[s]:   4909.45
	FillingsUpdate:  mu: +0.138553749  nElectrons: 310.000000  magneticMoment: [ Abs: 46.17867  Tot: -0.00000 ]
	SubspaceRotationAdjust: set factor to 0.212
ElecMinimize: Iter:  56  F: -1409.473040171589673  |grad|_K:  1.915e-07  alpha:  1.211e-01  linmin:  2.947e-06  t[s]:   4986.23
	FillingsUpdate:  mu: +0.138621309  nElectrons: 310.000000  magneticMoment: [ Abs: 46.17803  Tot: +0.00000 ]
	SubspaceRotationAdjust: set factor to 0.325
ElecMinimize: Iter:  57  F: -1409.473041748401556  |grad|_K:  1.477e-07  alpha:  2.365e-01  linmin:  1.199e-05  t[s]:   5064.38
	FillingsUpdate:  mu: +0.138711992  nElectrons: 310.000000  magneticMoment: [ Abs: 46.17731  Tot: +0.00000 ]
	SubspaceRotationAdjust: set factor to 0.229
ElecMinimize: Iter:  58  F: -1409.473042879187460  |grad|_K:  2.049e-07  alpha:  2.865e-01  linmin:  4.795e-06  t[s]:   5146.80
	FillingsUpdate:  mu: +0.138628404  nElectrons: 310.000000  magneticMoment: [ Abs: 46.17717  Tot: +0.00000 ]
	SubspaceRotationAdjust: set factor to 0.217
ElecMinimize: Iter:  59  F: -1409.473043543898712  |grad|_K:  1.434e-07  alpha:  8.571e-02  linmin: -2.209e-05  t[s]:   5223.07
ElecMinimize: 	Predicted alpha/alphaT>3.000000, increasing alphaT to 2.571225e-01.
	FillingsUpdate:  mu: +0.138617535  nElectrons: 310.000000  magneticMoment: [ Abs: 46.17644  Tot: -0.00000 ]
	SubspaceRotationAdjust: set factor to 0.219
ElecMinimize: Iter:  60  F: -1409.473044692854501  |grad|_K:  1.542e-07  alpha:  3.036e-01  linmin:  2.134e-05  t[s]:   5330.89
	FillingsUpdate:  mu: +0.138703809  nElectrons: 310.000000  magneticMoment: [ Abs: 46.17585  Tot: +0.00000 ]
	SubspaceRotationAdjust: set factor to 0.188
ElecMinimize: Iter:  61  F: -1409.473045204495293  |grad|_K:  1.378e-07  alpha:  1.209e-01  linmin:  1.369e-05  t[s]:   5406.30
	FillingsUpdate:  mu: +0.138708266  nElectrons: 310.000000  magneticMoment: [ Abs: 46.17516  Tot: -0.00000 ]
	SubspaceRotationAdjust: set factor to 0.267
ElecMinimize: Iter:  62  F: -1409.473046103420984  |grad|_K:  1.195e-07  alpha:  2.634e-01  linmin:  1.649e-05  t[s]:   5485.02
	FillingsUpdate:  mu: +0.138642790  nElectrons: 310.000000  magneticMoment: [ Abs: 46.17500  Tot: +0.00000 ]
	SubspaceRotationAdjust: set factor to 0.242
ElecMinimize: Iter:  63  F: -1409.473046570626366  |grad|_K:  1.447e-07  alpha:  1.809e-01  linmin:  1.215e-06  t[s]:   5560.47
	FillingsUpdate:  mu: +0.138693649  nElectrons: 310.000000  magneticMoment: [ Abs: 46.17442  Tot: -0.00000 ]
	SubspaceRotationAdjust: set factor to 0.251
ElecMinimize: Iter:  64  F: -1409.473047184370216  |grad|_K:  1.036e-07  alpha:  1.613e-01  linmin: -3.112e-06  t[s]:   5634.98
	FillingsUpdate:  mu: +0.138703591  nElectrons: 310.000000  magneticMoment: [ Abs: 46.17394  Tot: -0.00000 ]
	SubspaceRotationAdjust: set factor to 0.301
ElecMinimize: Iter:  65  F: -1409.473047838180037  |grad|_K:  1.064e-07  alpha:  3.345e-01  linmin: -1.319e-07  t[s]:   5711.17
ElecMinimize: Converged (|Delta F|<1.000000e-06 for 5 iters).
Setting wave functions to eigenvectors of Hamiltonian

# Ionic positions in lattice coordinates:
ion V   0.000000000000000   0.000000000000000   0.150000000000000 1
ion V   0.500000000000000   0.000000000000000   0.150000000000000 1
ion V   0.000000000000000   0.500000000000000   0.150000000000000 1
ion V   0.500000000000000   0.500000000000000   0.150000000000000 1
ion V   0.250000000000000   0.250000000000000   0.050000000000000 1
ion V   0.250000000000000   0.750000000000000   0.050000000000000 1
ion V  -0.250000000000000   0.250000000000000   0.050000000000000 1
ion V  -0.250000000000000   0.750000000000000   0.050000000000000 1
ion V   0.000000000000000   0.000000000000000  -0.050000000000000 0
ion V   0.500000000000000   0.000000000000000  -0.050000000000000 0
ion V   0.000000000000000   0.500000000000000  -0.050000000000000 0
ion V   0.500000000000000   0.500000000000000  -0.050000000000000 0
ion V   0.250000000000000   0.250000000000000  -0.150000000000000 0
ion V   0.250000000000000   0.750000000000000  -0.150000000000000 0
ion V  -0.250000000000000   0.250000000000000  -0.150000000000000 0
ion V  -0.250000000000000   0.750000000000000  -0.150000000000000 0
ion O   0.250000000000000   0.250000000000000   0.150000000000000 1
ion O   0.250000000000000   0.750000000000000   0.150000000000000 1
ion O  -0.250000000000000   0.250000000000000   0.150000000000000 1
ion O  -0.250000000000000   0.750000000000000   0.150000000000000 1
ion O   0.000000000000000   0.000000000000000   0.050000000000000 1
ion O   0.500000000000000   0.000000000000000   0.050000000000000 1
ion O   0.000000000000000   0.500000000000000   0.050000000000000 1
ion O   0.500000000000000   0.500000000000000   0.050000000000000 1
ion O   0.250000000000000   0.250000000000000  -0.050000000000000 0
ion O   0.250000000000000   0.750000000000000  -0.050000000000000 0
ion O  -0.250000000000000   0.250000000000000  -0.050000000000000 0
ion O  -0.250000000000000   0.750000000000000  -0.050000000000000 0
ion O   0.000000000000000   0.000000000000000  -0.150000000000000 0
ion O   0.500000000000000   0.000000000000000  -0.150000000000000 0
ion O   0.000000000000000   0.500000000000000  -0.150000000000000 0
ion O   0.500000000000000   0.500000000000000  -0.150000000000000 0
ion O   0.000000000000000   0.000000000000000   0.230000000000000 1

# Forces in Lattice coordinates:
force V   0.000422195572037   0.001767427749825   3.475941728317807 1
force V  -0.048552561173243   0.000008557816087   0.702972081491049 1
force V  -0.038850954449891  -0.000024414930046   0.947647672026843 1
force V  -0.048225477381662  -0.000073696667543   0.397609505368873 1
force V  -0.013890036048408  -0.004898874475690   0.298690111188520 1
force V  -0.013515540613086   0.004629671504612   0.297021558777539 1
force V   0.003013507404840   0.016740591076445   0.229749547709394 1
force V   0.002217339043906  -0.017512664357232   0.225757364055159 1
force V  -0.004656731892050   0.000042893494681  -0.173867776440314 0
force V   0.009130433958903   0.000059322053817  -0.221915114958382 0
force V  -0.007238803871752   0.000008039764072  -0.192130044769818 0
force V   0.008788427988055  -0.000074236220241  -0.225570486369723 0
force V   0.043949025749164  -0.000464503252128  -0.413427424041501 0
force V   0.043884794856163   0.000459504856159  -0.413166379356583 0
force V   0.035293513399283  -0.000265798880376  -0.721039269413681 0
force V   0.035393422016707   0.000260614755275  -0.721373175123954 0
force O   0.109732101938775   0.020433004871034  -0.597761491958289 1
force O   0.111789086016720  -0.022390649139766  -0.591854435581086 1
force O  -0.147481264821941   0.011966645063239  -0.678007436463240 1
force O  -0.145062801824391  -0.009773329941241  -0.684522675915836 1
force O  -0.045863133424543  -0.000459708599342  -0.224909576766123 1
force O   0.028247361832381   0.000166520112951   0.273463920220146 1
force O  -0.023824452377915  -0.000172413881302  -0.034819784203372 1
force O   0.026828027496554  -0.000212378152968   0.285026008100741 1
force O  -0.028975262402594   0.000441991733639  -0.227774550938783 0
force O  -0.029009651456932  -0.000425607295248  -0.229074133304163 0
force O   0.025794004463854  -0.000377473823594   0.021123479702559 0
force O   0.025849884970128   0.000376609119962   0.022061913678909 0
force O   0.090835876299806   0.000049362667877   0.093286307515868 0
force O  -0.045365839865447  -0.000001129314986   0.039843024054981 0
force O   0.090779326883612  -0.000013631404689   0.101602660763994 0
force O  -0.044883105701388  -0.000037130617745   0.042712081555713 0
force O  -0.007092406512487  -0.000306521388410  -0.946754772831845 1

# Energy components:
   Eewald =     4425.3734192060783244
       EH =     5686.4880061352205303
     Eloc =   -11778.2790981240741530
      Enl =     -217.0460541820169453
   Epulay =       -0.0003062098084384
      Exc =     -198.5994144615031018
       KE =      671.5635860872824878
        U =        1.0286021128730569
-------------------------------------
     Etot =    -1409.4712594359471041
       TS =        0.0017884022329825
-------------------------------------
        F =    -1409.4730478381800367

IonicMinimize: Iter:   0  F: -1409.473047838180037  |grad|_K:  1.425e-02  t[s]:   5720.54

#--- Lowdin population analysis ---
# oxidation-state V +1.171 +1.206 +1.112 +1.174 +0.987 +0.987 +1.009 +1.009 +1.014 +0.989 +1.015 +0.989 +1.105 +1.105 +1.031 +1.031
# magnetic-moments V +2.081 -2.758 +2.976 -2.760 +2.925 +2.925 -2.861 -2.861 -2.860 +2.936 -2.862 +2.936 -2.836 -2.836 +3.043 +3.043
# oxidation-state O -0.930 -0.930 -0.928 -0.928 -0.934 -0.923 -0.926 -0.920 -0.923 -0.923 -0.927 -0.927 -0.966 -0.968 -0.966 -0.968 -0.609
# magnetic-moments O +0.005 +0.006 +0.029 +0.028 +0.004 +0.013 +0.003 +0.014 +0.016 +0.016 +0.003 +0.003 +0.023 +0.004 +0.023 +0.004 -0.495


-------- Electronic minimization -----------
	FillingsUpdate:  mu: +0.169854890  nElectrons: 310.000000  magneticMoment: [ Abs: 46.17767  Tot: -0.00000 ]
ElecMinimize: Iter:   0  F: -1408.947003054432571  |grad|_K:  9.927e-05  alpha:  1.000e+00
	FillingsUpdate:  mu: +0.135278508  nElectrons: 310.000000  magneticMoment: [ Abs: 45.98695  Tot: +0.00000 ]
	SubspaceRotationAdjust: set factor to 0.17
ElecMinimize: Iter:   1  F: -1409.327919043440943  |grad|_K:  8.410e-05  alpha:  2.770e-01  linmin:  1.879e-02  t[s]:   5822.26
	FillingsUpdate:  mu: +0.145925371  nElectrons: 310.000000  magneticMoment: [ Abs: 46.10623  Tot: -0.00000 ]
	SubspaceRotationAdjust: set factor to 0.084
ElecMinimize: Iter:   2  F: -1409.366884078464864  |grad|_K:  4.491e-05  alpha:  9.358e-02  linmin:  1.794e-02  t[s]:   5896.86
ElecMinimize: 	Predicted alpha/alphaT>3.000000, increasing alphaT to 2.807288e-01.
	FillingsUpdate:  mu: +0.142751974  nElectrons: 310.000000  magneticMoment: [ Abs: 46.09781  Tot: -0.00000 ]
	SubspaceRotationAdjust: set factor to 0.154
ElecMinimize: Iter:   3  F: -1409.429913394431196  |grad|_K:  2.079e-05  alpha:  2.912e-01  linmin:  4.148e-03  t[s]:   6007.39
	FillingsUpdate:  mu: +0.150930575  nElectrons: 310.000000  magneticMoment: [ Abs: 46.06733  Tot: -0.00000 ]
	SubspaceRotationAdjust: set factor to 0.11
ElecMinimize: Iter:   4  F: -1409.448591581684923  |grad|_K:  1.716e-05  alpha:  2.443e-01  linmin:  3.334e-03  t[s]:   6084.13
	FillingsUpdate:  mu: +0.140638463  nElectrons: 310.000000  magneticMoment: [ Abs: 46.08179  Tot: +0.00000 ]
	SubspaceRotationAdjust: set factor to 0.123
ElecMinimize: Iter:   5  F: -1409.456573566070801  |grad|_K:  7.782e-06  alpha:  1.572e-01  linmin:  2.356e-04  t[s]:   6161.52
	FillingsUpdate:  mu: +0.139101765  nElectrons: 310.000000  magneticMoment: [ Abs: 46.08241  Tot: -0.00000 ]
	SubspaceRotationAdjust: set factor to 0.124
ElecMinimize: Iter:   6  F: -1409.461511474326016  |grad|_K:  8.045e-06  alpha:  4.505e-01  linmin:  9.355e-05  t[s]:   6241.26
	FillingsUpdate:  mu: +0.144728155  nElectrons: 310.000000  magneticMoment: [ Abs: 46.06673  Tot: +0.00000 ]
	SubspaceRotationAdjust: set factor to 0.1
ElecMinimize: Iter:   7  F: -1409.465662993357000  |grad|_K:  1.036e-05  alpha:  3.508e-01  linmin:  1.169e-04  t[s]:   6318.76
	FillingsUpdate:  mu: +0.141955993  nElectrons: 310.000000  magneticMoment: [ Abs: 46.08182  Tot: -0.00000 ]
	SubspaceRotationAdjust: set factor to 0.0994
ElecMinimize: Iter:   8  F: -1409.472125570937351  |grad|_K:  8.306e-06  alpha:  3.330e-01  linmin:  1.204e-04  t[s]:   6395.97
	FillingsUpdate:  mu: +0.140414893  nElectrons: 310.000000  magneticMoment: [ Abs: 46.08663  Tot: -0.00000 ]
	SubspaceRotationAdjust: set factor to 0.11
ElecMinimize: Iter:   9  F: -1409.477863152042119  |grad|_K:  6.914e-06  alpha:  4.636e-01  linmin:  9.415e-05  t[s]:   6476.60
	FillingsUpdate:  mu: +0.143367375  nElectrons: 310.000000  magneticMoment: [ Abs: 46.07507  Tot: +0.00000 ]
	SubspaceRotationAdjust: set factor to 0.0773
ElecMinimize: Iter:  10  F: -1409.479858972478723  |grad|_K:  4.488e-06  alpha:  2.297e-01  linmin: -3.676e-05  t[s]:   6554.10
	FillingsUpdate:  mu: +0.141347419  nElectrons: 310.000000  magneticMoment: [ Abs: 46.07444  Tot: +0.00000 ]
	SubspaceRotationAdjust: set factor to 0.0784
ElecMinimize: Iter:  11  F: -1409.480876379612482  |grad|_K:  2.508e-06  alpha:  2.770e-01  linmin: -3.313e-05  t[s]:   6631.13
	FillingsUpdate:  mu: +0.140924233  nElectrons: 310.000000  magneticMoment: [ Abs: 46.07203  Tot: -0.00000 ]
	SubspaceRotationAdjust: set factor to 0.0852
ElecMinimize: Iter:  12  F: -1409.481296125423114  |grad|_K:  1.674e-06  alpha:  3.663e-01  linmin: -8.550e-06  t[s]:   6708.89
	FillingsUpdate:  mu: +0.142042891  nElectrons: 310.000000  magneticMoment: [ Abs: 46.06769  Tot: -0.00000 ]
	SubspaceRotationAdjust: set factor to 0.0738
ElecMinimize: Iter:  13  F: -1409.481476163794923  |grad|_K:  1.327e-06  alpha:  3.531e-01  linmin:  1.472e-05  t[s]:   6788.31
	FillingsUpdate:  mu: +0.140908101  nElectrons: 310.000000  magneticMoment: [ Abs: 46.06608  Tot: +0.00000 ]
	SubspaceRotationAdjust: set factor to 0.0744
ElecMinimize: Iter:  14  F: -1409.481590578770238  |grad|_K:  9.147e-07  alpha:  3.571e-01  linmin: -5.689e-05  t[s]:   6868.05
	FillingsUpdate:  mu: +0.140782162  nElectrons: 310.000000  magneticMoment: [ Abs: 46.06333  Tot: +0.00000 ]
	SubspaceRotationAdjust: set factor to 0.0923
ElecMinimize: Iter:  15  F: -1409.481654021419899  |grad|_K:  6.686e-07  alpha:  4.161e-01  linmin: -3.289e-06  t[s]:   6945.21
	FillingsUpdate:  mu: +0.141265725  nElectrons: 310.000000  magneticMoment: [ Abs: 46.05987  Tot: +0.00000 ]
	SubspaceRotationAdjust: set factor to 0.0932
ElecMinimize: Iter:  16  F: -1409.481686602580794  |grad|_K:  6.013e-07  alpha:  4.005e-01  linmin:  3.421e-06  t[s]:   7024.90
	FillingsUpdate:  mu: +0.140765891  nElectrons: 310.000000  magneticMoment: [ Abs: 46.05652  Tot: -0.00000 ]
	SubspaceRotationAdjust: set factor to 0.0955
ElecMinimize: Iter:  17  F: -1409.481714626603207  |grad|_K:  5.569e-07  alpha:  4.261e-01  linmin: -6.893e-06  t[s]:   7103.27
	FillingsUpdate:  mu: +0.140898322  nElectrons: 310.000000  magneticMoment: [ Abs: 46.05022  Tot: +0.00000 ]
	SubspaceRotationAdjust: set factor to 0.108
ElecMinimize: Iter:  18  F: -1409.481744676929793  |grad|_K:  5.539e-07  alpha:  5.323e-01  linmin: -5.128e-06  t[s]:   7177.90
	FillingsUpdate:  mu: +0.141063280  nElectrons: 310.000000  magneticMoment: [ Abs: 46.04246  Tot: +0.00000 ]
	SubspaceRotationAdjust: set factor to 0.121
ElecMinimize: Iter:  19  F: -1409.481774784076151  |grad|_K:  5.144e-07  alpha:  5.390e-01  linmin: -3.605e-06  t[s]:   7253.81
	FillingsUpdate:  mu: +0.140719177  nElectrons: 310.000000  magneticMoment: [ Abs: 46.03634  Tot: +0.00000 ]
	SubspaceRotationAdjust: set factor to 0.112
ElecMinimize: Iter:  20  F: -1409.481796148297917  |grad|_K:  5.409e-07  alpha:  4.435e-01  linmin:  1.016e-06  t[s]:   7331.77
	FillingsUpdate:  mu: +0.141122599  nElectrons: 310.000000  magneticMoment: [ Abs: 46.03011  Tot: +0.00000 ]
	SubspaceRotationAdjust: set factor to 0.0864
ElecMinimize: Iter:  21  F: -1409.481811745822142  |grad|_K:  4.422e-07  alpha:  2.932e-01  linmin:  1.338e-07  t[s]:   7409.77
	FillingsUpdate:  mu: +0.140907831  nElectrons: 310.000000  magneticMoment: [ Abs: 46.02467  Tot: -0.00000 ]
	SubspaceRotationAdjust: set factor to 0.091
ElecMinimize: Iter:  22  F: -1409.481825698440844  |grad|_K:  3.457e-07  alpha:  3.923e-01  linmin:  1.558e-06  t[s]:   7487.63
	FillingsUpdate:  mu: +0.140893420  nElectrons: 310.000000  magneticMoment: [ Abs: 46.02012  Tot: +0.00000 ]
	SubspaceRotationAdjust: set factor to 0.103
ElecMinimize: Iter:  23  F: -1409.481835601623743  |grad|_K:  2.755e-07  alpha:  4.555e-01  linmin:  8.683e-07  t[s]:   7564.81
	FillingsUpdate:  mu: +0.141095988  nElectrons: 310.000000  magneticMoment: [ Abs: 46.01688  Tot: -0.00000 ]
	SubspaceRotationAdjust: set factor to 0.0978
ElecMinimize: Iter:  24  F: -1409.481840933611466  |grad|_K:  2.436e-07  alpha:  3.861e-01  linmin:  3.019e-07  t[s]:   7642.68
	FillingsUpdate:  mu: +0.140896470  nElectrons: 310.000000  magneticMoment: [ Abs: 46.01454  Tot: -0.00000 ]
	SubspaceRotationAdjust: set factor to 0.0904
ElecMinimize: Iter:  25  F: -1409.481844715695388  |grad|_K:  2.057e-07  alpha:  3.502e-01  linmin: -3.311e-06  t[s]:   7718.63
	FillingsUpdate:  mu: +0.140977891  nElectrons: 310.000000  magneticMoment: [ Abs: 46.01148  Tot: +0.00000 ]
	SubspaceRotationAdjust: set factor to 0.107
ElecMinimize: Iter:  26  F: -1409.481848219851599  |grad|_K:  1.770e-07  alpha:  4.549e-01  linmin:  1.184e-07  t[s]:   7795.00
	FillingsUpdate:  mu: +0.141048998  nElectrons: 310.000000  magneticMoment: [ Abs: 46.00819  Tot: +0.00000 ]
	SubspaceRotationAdjust: set factor to 0.124
ElecMinimize: Iter:  27  F: -1409.481851313815014  |grad|_K:  1.747e-07  alpha:  5.430e-01  linmin:  8.162e-07  t[s]:   7872.29
	FillingsUpdate:  mu: +0.140911894  nElectrons: 310.000000  magneticMoment: [ Abs: 46.00531  Tot: +0.00000 ]
	SubspaceRotationAdjust: set factor to 0.117
ElecMinimize: Iter:  28  F: -1409.481853695614063  |grad|_K:  1.937e-07  alpha:  4.289e-01  linmin: -4.740e-07  t[s]:   7949.59
	FillingsUpdate:  mu: +0.141067771  nElectrons: 310.000000  magneticMoment: [ Abs: 46.00162  Tot: +0.00000 ]
	SubspaceRotationAdjust: set factor to 0.1
ElecMinimize: Iter:  29  F: -1409.481856011051150  |grad|_K:  1.848e-07  alpha:  3.391e-01  linmin:  3.761e-07  t[s]:   8027.27
	FillingsUpdate:  mu: +0.140981893  nElectrons: 310.000000  magneticMoment: [ Abs: 45.99686  Tot: +0.00000 ]
	SubspaceRotationAdjust: set factor to 0.106
ElecMinimize: Iter:  30  F: -1409.481858856641566  |grad|_K:  1.633e-07  alpha:  4.580e-01  linmin:  5.034e-07  t[s]:   8103.34
	FillingsUpdate:  mu: +0.140951111  nElectrons: 310.000000  magneticMoment: [ Abs: 45.99212  Tot: +0.00000 ]
	SubspaceRotationAdjust: set factor to 0.119
ElecMinimize: Iter:  31  F: -1409.481861332262952  |grad|_K:  1.460e-07  alpha:  5.105e-01  linmin:  4.568e-07  t[s]:   8180.39
	FillingsUpdate:  mu: +0.141021177  nElectrons: 310.000000  magneticMoment: [ Abs: 45.98831  Tot: -0.00000 ]
	SubspaceRotationAdjust: set factor to 0.115
ElecMinimize: Iter:  32  F: -1409.481863035521656  |grad|_K:  1.435e-07  alpha:  4.391e-01  linmin:  5.671e-08  t[s]:   8260.19
	FillingsUpdate:  mu: +0.140886485  nElectrons: 310.000000  magneticMoment: [ Abs: 45.98576  Tot: +0.00000 ]
	SubspaceRotationAdjust: set factor to 0.0925
ElecMinimize: Iter:  33  F: -1409.481864170827293  |grad|_K:  1.258e-07  alpha:  3.030e-01  linmin: -2.056e-07  t[s]:   8335.65
	FillingsUpdate:  mu: +0.140941062  nElectrons: 310.000000  magneticMoment: [ Abs: 45.98274  Tot: -0.00000 ]
	SubspaceRotationAdjust: set factor to 0.0942
ElecMinimize: Iter:  34  F: -1409.481865293287683  |grad|_K:  1.001e-07  alpha:  3.899e-01  linmin: -4.272e-07  t[s]:   8412.93
	FillingsUpdate:  mu: +0.140928906  nElectrons: 310.000000  magneticMoment: [ Abs: 45.98042  Tot: +0.00000 ]
	SubspaceRotationAdjust: set factor to 0.11
ElecMinimize: Iter:  35  F: -1409.481866112739908  |grad|_K:  8.216e-08  alpha:  4.496e-01  linmin: -9.125e-09  t[s]:   8489.81
	FillingsUpdate:  mu: +0.140860818  nElectrons: 310.000000  magneticMoment: [ Abs: 45.97891  Tot: -0.00000 ]
	SubspaceRotationAdjust: set factor to 0.108
ElecMinimize: Iter:  36  F: -1409.481866638980136  |grad|_K:  7.763e-08  alpha:  4.285e-01  linmin: -7.369e-08  t[s]:   8567.10
	FillingsUpdate:  mu: +0.140919225  nElectrons: 310.000000  magneticMoment: [ Abs: 45.97775  Tot: -0.00000 ]
	SubspaceRotationAdjust: set factor to 0.094
ElecMinimize: Iter:  37  F: -1409.481866985775014  |grad|_K:  6.666e-08  alpha:  3.161e-01  linmin:  1.287e-06  t[s]:   8645.32
	FillingsUpdate:  mu: +0.140885360  nElectrons: 310.000000  magneticMoment: [ Abs: 45.97663  Tot: -0.00000 ]
	SubspaceRotationAdjust: set factor to 0.103
ElecMinimize: Iter:  38  F: -1409.481867342952228  |grad|_K:  5.608e-08  alpha:  4.414e-01  linmin: -8.154e-06  t[s]:   8723.24
	FillingsUpdate:  mu: +0.140872358  nElectrons: 310.000000  magneticMoment: [ Abs: 45.97574  Tot: +0.00000 ]
	SubspaceRotationAdjust: set factor to 0.119
ElecMinimize: Iter:  39  F: -1409.481867611703137  |grad|_K:  4.859e-08  alpha:  4.690e-01  linmin: -8.974e-07  t[s]:   8799.68
ElecMinimize: Converged (|Delta F|<1.000000e-06 for 5 iters).
Setting wave functions to eigenvectors of Hamiltonian

# Ionic positions in lattice coordinates:
ion V   0.000003094023328   0.000012952439701   0.152037850798397 1
ion V   0.499644186801432   0.000000062715207   0.150412133553864 1
ion V  -0.000284715822115   0.499999821077320   0.150555580247306 1
ion V   0.499646583806395   0.499999459920417   0.150233107719087 1
ion V   0.249898208085523   0.249964099026818   0.050175113948718 1
ion V   0.249900952542570   0.750033928142750   0.050174135721484 1
ion V  -0.249977915774519   0.250122681957715   0.050134695957477 1
ion V  -0.249983750424726   0.749871659970765   0.050132355447974 1
ion V   0.000000000000000   0.000000000000000  -0.050000000000000 0
ion V   0.500000000000000   0.000000000000000  -0.050000000000000 0
ion V   0.000000000000000   0.500000000000000  -0.050000000000000 0
ion V   0.500000000000000   0.500000000000000  -0.050000000000000 0
ion V   0.250000000000000   0.250000000000000  -0.150000000000000 0
ion V   0.250000000000000   0.750000000000000  -0.150000000000000 0
ion V  -0.250000000000000   0.250000000000000  -0.150000000000000 0
ion V  -0.250000000000000   0.750000000000000  -0.150000000000000 0
ion O   0.250804162112831   0.250149741489302   0.149649548574502 1
ion O   0.250819236540760   0.749835912085873   0.149653011722188 1
ion O  -0.251080803551803   0.250087696511846   0.149602502543567 1
ion O  -0.251063080057223   0.749928377006217   0.149598682834562 1
ion O  -0.000336103962506  -0.000003368934268   0.049868141586826 1
ion O   0.500207008320917   0.000001220328085   0.050160324513962 1
ion O  -0.000174595415770   0.499998736479949   0.049979586100520 1
ion O   0.500196606853360   0.499998443605279   0.050167103053955 1
ion O   0.250000000000000   0.250000000000000  -0.050000000000000 0
ion O   0.250000000000000   0.750000000000000  -0.050000000000000 0
ion O  -0.250000000000000   0.250000000000000  -0.050000000000000 0
ion O  -0.250000000000000   0.750000000000000  -0.050000000000000 0
ion O   0.000000000000000   0.000000000000000  -0.150000000000000 0
ion O   0.500000000000000   0.000000000000000  -0.150000000000000 0
ion O   0.000000000000000   0.500000000000000  -0.150000000000000 0
ion O   0.500000000000000   0.500000000000000  -0.150000000000000 0
ion O  -0.000051976080886  -0.000002246315189   0.229444943235388 1

# Forces in Lattice coordinates:
force V   0.002457656050839   0.001282770724216   2.285359268826809 1
force V  -0.041921248870391  -0.000046398436137   0.582573043846102 1
force V  -0.032248320407882   0.000112114696003   0.786535160792987 1
force V  -0.043428717328126  -0.000031582983991   0.359251795105912 1
force V  -0.016537974096617  -0.011110105249625   0.246169466863239 1
force V  -0.016217734714786   0.010845912488023   0.246003406222842 1
force V   0.003192503748362   0.007448216013673   0.178683247928171 1
force V   0.002514325629999  -0.008096493285320   0.174761823813486 1
force V  -0.005012718742927   0.000031252781756  -0.179544111820488 0
force V   0.008314686140644   0.000009723816659  -0.217581006029081 0
force V  -0.007231738050941   0.000002825598882  -0.206066792117151 0
force V   0.008020558197091  -0.000042399442846  -0.223755907436132 0
force V   0.044149752943947  -0.000532836171050  -0.420541631851110 0
force V   0.044154221462853   0.000531197601863  -0.420330208811827 0
force V   0.035146289653081  -0.000177281146434  -0.750375574473097 0
force V   0.035144423727091   0.000176021221851  -0.750462796203679 0
force O   0.069361500856090   0.008698816792834  -0.427364535919667 1
force O   0.071661431256559  -0.010879896974499  -0.421767568629997 1
force O  -0.109920584310804  -0.000133877191443  -0.516273386937213 1
force O  -0.107326453415798   0.002592022527377  -0.522880437694342 1
force O  -0.048395348076790  -0.000351922643265  -0.091375089303762 1
force O   0.029620923499128   0.000136901643679   0.244537479944599 1
force O  -0.027111307522842  -0.000147155768422   0.020123753299935 1
force O   0.027657027465327  -0.000205566286423   0.247700050266531 1
force O  -0.030598092475541   0.001095384010042  -0.223856721626213 0
force O  -0.030625112777867  -0.001082370773670  -0.225023852536666 0
force O   0.027381186456211   0.000229138708445   0.036118573208513 0
force O   0.027409616065523  -0.000204226202543   0.036563817776117 0
force O   0.095607132055405   0.000002215756698   0.102308644985614 0
force O  -0.049826044450379   0.000002504301837   0.049747790338035 0
force O   0.095508523024830  -0.000008459520837   0.114019894382061 0
force O  -0.049546056404810   0.000008348199263   0.051350749478194 0
force O  -0.006038128466335  -0.000205245262634  -0.148756707625957 1

# Energy components:
   Eewald =     4417.8754045337936986
       EH =     5679.4072905082975922
     Eloc =   -11763.7327291520796280
      Enl =     -217.0400205066763419
   Epulay =       -0.0003062098084384
      Exc =     -198.6051993433466123
       KE =      671.5838377412623004
        U =        1.0316574218830032
-------------------------------------
     Etot =    -1409.4800650066742946
       TS =        0.0018026050287689
-------------------------------------
        F =    -1409.4818676117031373

IonicMinimize: Iter:   1  F: -1409.481867611703137  |grad|_K:  9.648e-03  alpha:  1.000e+00  linmin: -8.687e-01  t[s]:   8809.19

#--- Lowdin population analysis ---
# oxidation-state V +1.175 +1.192 +1.110 +1.160 +0.988 +0.988 +1.016 +1.016 +1.015 +0.989 +1.016 +0.989 +1.109 +1.109 +1.028 +1.028
# magnetic-moments V +1.951 -2.786 +2.984 -2.782 +2.925 +2.925 -2.849 -2.850 -2.855 +2.936 -2.858 +2.937 -2.826 -2.826 +3.047 +3.047
# oxidation-state O -0.934 -0.934 -0.932 -0.932 -0.936 -0.923 -0.926 -0.921 -0.923 -0.923 -0.927 -0.927 -0.966 -0.967 -0.965 -0.967 -0.589
# magnetic-moments O +0.002 +0.003 +0.026 +0.025 +0.006 +0.015 +0.004 +0.015 +0.016 +0.016 +0.004 +0.004 +0.024 +0.005 +0.024 +0.005 -0.390


-------- Electronic minimization -----------
	FillingsUpdate:  mu: +0.184400488  nElectrons: 310.000000  magneticMoment: [ Abs: 45.97477  Tot: +0.00000 ]
ElecMinimize: Iter:   0  F: -1408.585377538223156  |grad|_K:  1.251e-04  alpha:  1.000e+00
	FillingsUpdate:  mu: +0.161669747  nElectrons: 310.000000  magneticMoment: [ Abs: 45.90655  Tot: -0.00000 ]
	SubspaceRotationAdjust: set factor to 0.112
ElecMinimize: Iter:   1  F: -1409.323360172601951  |grad|_K:  3.908e-05  alpha:  2.806e-01  linmin:  2.291e-02  t[s]:   8911.93
	FillingsUpdate:  mu: +0.149046725  nElectrons: 310.000000  magneticMoment: [ Abs: 45.93887  Tot: -0.00000 ]
	SubspaceRotationAdjust: set factor to 0.0774
ElecMinimize: Iter:   2  F: -1409.378920904007828  |grad|_K:  2.222e-05  alpha:  2.176e-01  linmin: -1.471e-05  t[s]:   8988.68
	FillingsUpdate:  mu: +0.153247608  nElectrons: 310.000000  magneticMoment: [ Abs: 45.90388  Tot: -0.00000 ]
	SubspaceRotationAdjust: set factor to 0.0612
ElecMinimize: Iter:   3  F: -1409.399651380326304  |grad|_K:  1.329e-05  alpha:  2.332e-01  linmin:  4.741e-03  t[s]:   9065.06
	FillingsUpdate:  mu: +0.153842883  nElectrons: 310.000000  magneticMoment: [ Abs: 45.89809  Tot: -0.00000 ]
	SubspaceRotationAdjust: set factor to 0.088
ElecMinimize: Iter:   4  F: -1409.417709871771422  |grad|_K:  1.202e-05  alpha:  6.159e-01  linmin:  1.212e-06  t[s]:   9143.66
	FillingsUpdate:  mu: +0.145107772  nElectrons: 310.000000  magneticMoment: [ Abs: 45.91218  Tot: -0.00000 ]
	SubspaceRotationAdjust: set factor to 0.0847
ElecMinimize: Iter:   5  F: -1409.433624992559771  |grad|_K:  1.461e-05  alpha:  6.053e-01  linmin:  2.760e-06  t[s]:   9222.36
	FillingsUpdate:  mu: +0.148252941  nElectrons: 310.000000  magneticMoment: [ Abs: 45.88731  Tot: -0.00000 ]
	SubspaceRotationAdjust: set factor to 0.0656
ElecMinimize: Iter:   6  F: -1409.452289314066320  |grad|_K:  1.554e-05  alpha:  4.846e-01  linmin: -9.468e-05  t[s]:   9300.47
	FillingsUpdate:  mu: +0.139303765  nElectrons: 310.000000  magneticMoment: [ Abs: 45.90570  Tot: -0.00000 ]
	SubspaceRotationAdjust: set factor to 0.0562
ElecMinimize: Iter:   7  F: -1409.469936725856087  |grad|_K:  1.101e-05  alpha:  3.967e-01  linmin:  1.369e-04  t[s]:   9379.17
	FillingsUpdate:  mu: +0.141516360  nElectrons: 310.000000  magneticMoment: [ Abs: 45.90307  Tot: -0.00000 ]
	SubspaceRotationAdjust: set factor to 0.0666
ElecMinimize: Iter:   8  F: -1409.480713825495741  |grad|_K:  7.114e-06  alpha:  4.925e-01  linmin: -8.778e-05  t[s]:   9456.82
	FillingsUpdate:  mu: +0.146237877  nElectrons: 310.000000  magneticMoment: [ Abs: 45.89587  Tot: +0.00000 ]
	SubspaceRotationAdjust: set factor to 0.0606
ElecMinimize: Iter:   9  F: -1409.485015588448960  |grad|_K:  5.141e-06  alpha:  4.651e-01  linmin: -3.087e-05  t[s]:   9533.05
	FillingsUpdate:  mu: +0.141387722  nElectrons: 310.000000  magneticMoment: [ Abs: 45.89907  Tot: +0.00000 ]
	SubspaceRotationAdjust: set factor to 0.0517
ElecMinimize: Iter:  10  F: -1409.486841487846959  |grad|_K:  3.275e-06  alpha:  3.799e-01  linmin: -5.142e-05  t[s]:   9608.68
	FillingsUpdate:  mu: +0.142486049  nElectrons: 310.000000  magneticMoment: [ Abs: 45.89832  Tot: +0.00000 ]
	SubspaceRotationAdjust: set factor to 0.0583
ElecMinimize: Iter:  11  F: -1409.487776507234457  |grad|_K:  2.212e-06  alpha:  4.784e-01  linmin: -4.090e-06  t[s]:   9685.02
	FillingsUpdate:  mu: +0.143300934  nElectrons: 310.000000  magneticMoment: [ Abs: 45.89805  Tot: +0.00000 ]
	SubspaceRotationAdjust: set factor to 0.0658
ElecMinimize: Iter:  12  F: -1409.488203571987469  |grad|_K:  1.662e-06  alpha:  4.796e-01  linmin:  9.800e-07  t[s]:   9761.34
	FillingsUpdate:  mu: +0.142573601  nElectrons: 310.000000  magneticMoment: [ Abs: 45.89872  Tot: -0.00000 ]
	SubspaceRotationAdjust: set factor to 0.0735
ElecMinimize: Iter:  13  F: -1409.488436220204449  |grad|_K:  1.341e-06  alpha:  4.628e-01  linmin: -3.379e-06  t[s]:   9840.47
	FillingsUpdate:  mu: +0.143200027  nElectrons: 310.000000  magneticMoment: [ Abs: 45.89775  Tot: +0.00000 ]
	SubspaceRotationAdjust: set factor to 0.0845
ElecMinimize: Iter:  14  F: -1409.488623740926641  |grad|_K:  1.190e-06  alpha:  5.732e-01  linmin: -5.509e-06  t[s]:   9916.80
	FillingsUpdate:  mu: +0.143049012  nElectrons: 310.000000  magneticMoment: [ Abs: 45.89690  Tot: +0.00000 ]
	SubspaceRotationAdjust: set factor to 0.0949
ElecMinimize: Iter:  15  F: -1409.488785019921352  |grad|_K:  1.212e-06  alpha:  6.260e-01  linmin:  7.045e-08  t[s]:   9994.93
	FillingsUpdate:  mu: +0.143487029  nElectrons: 310.000000  magneticMoment: [ Abs: 45.89491  Tot: -0.00000 ]
	SubspaceRotationAdjust: set factor to 0.106
ElecMinimize: Iter:  16  F: -1409.488925457003234  |grad|_K:  1.038e-06  alpha:  5.258e-01  linmin: -1.371e-06  t[s]:  10075.40
	FillingsUpdate:  mu: +0.143437510  nElectrons: 310.000000  magneticMoment: [ Abs: 45.89229  Tot: -0.00000 ]
	SubspaceRotationAdjust: set factor to 0.116
ElecMinimize: Iter:  17  F: -1409.489041130395890  |grad|_K:  8.767e-07  alpha:  5.898e-01  linmin: -7.210e-07  t[s]:  10155.21
	FillingsUpdate:  mu: +0.143860701  nElectrons: 310.000000  magneticMoment: [ Abs: 45.88919  Tot: -0.00000 ]
	SubspaceRotationAdjust: set factor to 0.124
ElecMinimize: Iter:  18  F: -1409.489109631673273  |grad|_K:  7.141e-07  alpha:  4.898e-01  linmin: -1.181e-06  t[s]:  10234.04
	FillingsUpdate:  mu: +0.143437707  nElectrons: 310.000000  magneticMoment: [ Abs: 45.88679  Tot: +0.00000 ]
	SubspaceRotationAdjust: set factor to 0.114
ElecMinimize: Iter:  19  F: -1409.489150630343602  |grad|_K:  6.382e-07  alpha:  4.419e-01  linmin: -7.612e-06  t[s]:  10312.41
	FillingsUpdate:  mu: +0.144028480  nElectrons: 310.000000  magneticMoment: [ Abs: 45.88394  Tot: +0.00000 ]
	SubspaceRotationAdjust: set factor to 0.0834
ElecMinimize: Iter:  20  F: -1409.489171675611715  |grad|_K:  5.437e-07  alpha:  2.837e-01  linmin: -5.736e-07  t[s]:  10390.54
	FillingsUpdate:  mu: +0.143553896  nElectrons: 310.000000  magneticMoment: [ Abs: 45.88145  Tot: +0.00000 ]
	SubspaceRotationAdjust: set factor to 0.0828
ElecMinimize: Iter:  21  F: -1409.489190302547058  |grad|_K:  3.811e-07  alpha:  3.462e-01  linmin: -8.614e-06  t[s]:  10467.81
	FillingsUpdate:  mu: +0.143518486  nElectrons: 310.000000  magneticMoment: [ Abs: 45.87887  Tot: -0.00000 ]
	SubspaceRotationAdjust: set factor to 0.0983
ElecMinimize: Iter:  22  F: -1409.489202732616604  |grad|_K:  3.000e-07  alpha:  4.701e-01  linmin: -9.718e-07  t[s]:  10545.92
	FillingsUpdate:  mu: +0.143763243  nElectrons: 310.000000  magneticMoment: [ Abs: 45.87651  Tot: +0.00000 ]
	SubspaceRotationAdjust: set factor to 0.0925
ElecMinimize: Iter:  23  F: -1409.489209768074716  |grad|_K:  2.774e-07  alpha:  4.295e-01  linmin: -1.868e-06  t[s]:  10625.70
	FillingsUpdate:  mu: +0.143466694  nElectrons: 310.000000  magneticMoment: [ Abs: 45.87466  Tot: +0.00000 ]
	SubspaceRotationAdjust: set factor to 0.0784
ElecMinimize: Iter:  24  F: -1409.489214658159199  |grad|_K:  2.259e-07  alpha:  3.494e-01  linmin: -1.981e-06  t[s]:  10702.52
	FillingsUpdate:  mu: +0.143554376  nElectrons: 310.000000  magneticMoment: [ Abs: 45.87202  Tot: -0.00000 ]
	SubspaceRotationAdjust: set factor to 0.0897
ElecMinimize: Iter:  25  F: -1409.489219104612175  |grad|_K:  1.907e-07  alpha:  4.787e-01  linmin: -5.719e-06  t[s]:  10781.19
	FillingsUpdate:  mu: +0.143603871  nElectrons: 310.000000  magneticMoment: [ Abs: 45.86952  Tot: -0.00000 ]
	SubspaceRotationAdjust: set factor to 0.102
ElecMinimize: Iter:  26  F: -1409.489222479382079  |grad|_K:  1.748e-07  alpha:  5.097e-01  linmin: -3.376e-06  t[s]:  10858.87
	FillingsUpdate:  mu: +0.143427462  nElectrons: 310.000000  magneticMoment: [ Abs: 45.86741  Tot: +0.00000 ]
	SubspaceRotationAdjust: set factor to 0.0938
ElecMinimize: Iter:  27  F: -1409.489224950151993  |grad|_K:  1.748e-07  alpha:  4.444e-01  linmin:  6.677e-07  t[s]:  10935.47
	FillingsUpdate:  mu: +0.143583371  nElectrons: 310.000000  magneticMoment: [ Abs: 45.86493  Tot: -0.00000 ]
	SubspaceRotationAdjust: set factor to 0.08
ElecMinimize: Iter:  28  F: -1409.489227103192889  |grad|_K:  1.537e-07  alpha:  3.874e-01  linmin: -9.258e-07  t[s]:  11013.32
	FillingsUpdate:  mu: +0.143511598  nElectrons: 310.000000  magneticMoment: [ Abs: 45.86235  Tot: +0.00000 ]
	SubspaceRotationAdjust: set factor to 0.0891
ElecMinimize: Iter:  29  F: -1409.489229180356233  |grad|_K:  1.342e-07  alpha:  4.830e-01  linmin:  9.622e-07  t[s]:  11094.28
	FillingsUpdate:  mu: +0.143463314  nElectrons: 310.000000  magneticMoment: [ Abs: 45.85989  Tot: -0.00000 ]
	SubspaceRotationAdjust: set factor to 0.0995
ElecMinimize: Iter:  30  F: -1409.489230913833126  |grad|_K:  1.248e-07  alpha:  5.289e-01  linmin: -6.949e-07  t[s]:  11172.04
	FillingsUpdate:  mu: +0.143572464  nElectrons: 310.000000  magneticMoment: [ Abs: 45.85782  Tot: +0.00000 ]
	SubspaceRotationAdjust: set factor to 0.0915
ElecMinimize: Iter:  31  F: -1409.489232143000891  |grad|_K:  1.201e-07  alpha:  4.340e-01  linmin: -6.822e-07  t[s]:  11249.49
	FillingsUpdate:  mu: +0.143463416  nElectrons: 310.000000  magneticMoment: [ Abs: 45.85601  Tot: +0.00000 ]
	SubspaceRotationAdjust: set factor to 0.079
ElecMinimize: Iter:  32  F: -1409.489233221285303  |grad|_K:  1.061e-07  alpha:  4.110e-01  linmin: -3.037e-06  t[s]:  11328.58
	FillingsUpdate:  mu: +0.143518487  nElectrons: 310.000000  magneticMoment: [ Abs: 45.85419  Tot: +0.00000 ]
	SubspaceRotationAdjust: set factor to 0.0858
ElecMinimize: Iter:  33  F: -1409.489234134466869  |grad|_K:  9.137e-08  alpha:  4.460e-01  linmin:  2.159e-06  t[s]:  11408.73
	FillingsUpdate:  mu: +0.143535814  nElectrons: 310.000000  magneticMoment: [ Abs: 45.85257  Tot: +0.00000 ]
	SubspaceRotationAdjust: set factor to 0.0981
ElecMinimize: Iter:  34  F: -1409.489234882797291  |grad|_K:  7.948e-08  alpha:  4.929e-01  linmin:  3.829e-06  t[s]:  11485.93
	FillingsUpdate:  mu: +0.143472644  nElectrons: 310.000000  magneticMoment: [ Abs: 45.85136  Tot: -0.00000 ]
	SubspaceRotationAdjust: set factor to 0.0948
ElecMinimize: Iter:  35  F: -1409.489235409926778  |grad|_K:  7.734e-08  alpha:  4.589e-01  linmin: -9.727e-08  t[s]:  11564.13
	FillingsUpdate:  mu: +0.143549616  nElectrons: 310.000000  magneticMoment: [ Abs: 45.85012  Tot: +0.00000 ]
	SubspaceRotationAdjust: set factor to 0.0842
ElecMinimize: Iter:  36  F: -1409.489235849056740  |grad|_K:  7.048e-08  alpha:  4.036e-01  linmin:  1.556e-06  t[s]:  11643.62
	FillingsUpdate:  mu: +0.143511016  nElectrons: 310.000000  magneticMoment: [ Abs: 45.84887  Tot: +0.00000 ]
	SubspaceRotationAdjust: set factor to 0.0909
ElecMinimize: Iter:  37  F: -1409.489236272890594  |grad|_K:  6.383e-08  alpha:  4.692e-01  linmin: -1.516e-06  t[s]:  11720.35
ElecMinimize: Converged (|Delta F|<1.000000e-06 for 5 iters).
Setting wave functions to eigenvectors of Hamiltonian

# Ionic positions in lattice coordinates:
ion V   0.000068151658756   0.000031740691136   0.154459082550899 1
ion V   0.498939906510781  -0.000001327574293   0.151172960896790 1
ion V  -0.000811769028411   0.500003217131560   0.151583906193080 1
ion V   0.498896652654654   0.499999293252349   0.150730432256079 1
ion V   0.249568756850539   0.249699317762766   0.050495315171806 1
ion V   0.249576846067430   0.750293910319355   0.050495271673408 1
ion V  -0.249917575013530   0.250168255405722   0.050356962567549 1
ion V  -0.249934698075303   0.749815403746588   0.050348920584319 1
ion V   0.000000000000000   0.000000000000000  -0.050000000000000 0
ion V   0.500000000000000   0.000000000000000  -0.050000000000000 0
ion V   0.000000000000000   0.500000000000000  -0.050000000000000 0
ion V   0.500000000000000   0.500000000000000  -0.050000000000000 0
ion V   0.250000000000000   0.250000000000000  -0.150000000000000 0
ion V   0.250000000000000   0.750000000000000  -0.150000000000000 0
ion V  -0.250000000000000   0.250000000000000  -0.150000000000000 0
ion V  -0.250000000000000   0.750000000000000  -0.150000000000000 0
ion O   0.251681195551897   0.250194323490919   0.149155797400419 1
ion O   0.251740858105412   0.749749114277311   0.149167234133656 1
ion O  -0.252729688679730   0.249966597620747   0.148971430819031 1
ion O  -0.252662637820873   0.750097181996206   0.148957839396835 1
ion O  -0.001249036406106  -0.000008770269662   0.049838736725476 1
ion O   0.500764050351852   0.000003442214701   0.050496636590266 1
ion O  -0.000704342678313   0.499996283667484   0.050052225873589 1
ion O   0.500712270086600   0.499994738039160   0.050501469659426 1
ion O   0.250000000000000   0.250000000000000  -0.050000000000000 0
ion O   0.250000000000000   0.750000000000000  -0.050000000000000 0
ion O  -0.250000000000000   0.250000000000000  -0.050000000000000 0
ion O  -0.250000000000000   0.750000000000000  -0.050000000000000 0
ion O   0.000000000000000   0.000000000000000  -0.150000000000000 0
ion O   0.500000000000000   0.000000000000000  -0.150000000000000 0
ion O   0.000000000000000   0.500000000000000  -0.150000000000000 0
ion O   0.500000000000000   0.500000000000000  -0.150000000000000 0
ion O  -0.000152445108693  -0.000005019795566   0.229852487188458 1

# Forces in Lattice coordinates:
force V  -0.002804588879347   0.000914316085778   0.934848736537191 1
force V  -0.030178987747291  -0.000074573488552   0.436458907164575 1
force V  -0.026515919309628   0.000208363238456   0.602696825907620 1
force V  -0.033808397916964   0.000014895612749   0.292283184499534 1
force V  -0.017585500245861  -0.011858913251544   0.173970690246721 1
force V  -0.017307559073641   0.011592844775931   0.175241276781534 1
force V   0.001533106274185  -0.000703156613574   0.132454673510127 1
force V   0.001087415613674   0.000274367544312   0.129140350262790 1
force V  -0.005745467752318   0.000026427197948  -0.153353355952573 0
force V   0.007000782069829   0.000024104860127  -0.180645470105553 0
force V  -0.007080375968816  -0.000016432351232  -0.189949934321990 0
force V   0.006137480637041  -0.000062852852579  -0.186069596418477 0
force V   0.043724580560473  -0.000702854963475  -0.416669469048750 0
force V   0.043726392591662   0.000701433392095  -0.416490265550833 0
force V   0.035452354407443  -0.000272944531678  -0.749422050163890 0
force V   0.035448766101717   0.000270634631926  -0.749515731783251 0
force O   0.022879697953439  -0.002112048347746  -0.204374071703288 1
force O   0.025135043657838  -0.000075078491920  -0.200247334615561 1
force O  -0.069209353472091  -0.011013297413926  -0.313405272452556 1
force O  -0.066926004301035   0.013498711888650  -0.319091322054785 1
force O  -0.051038067332403  -0.000248705728016  -0.005595795870144 1
force O   0.031724856220272   0.000102952677713   0.192196719489232 1
force O  -0.032707121094254  -0.000144843051952   0.076354513442807 1
force O   0.028767069542184  -0.000236444364192   0.190202785164806 1
force O  -0.031450358458690   0.001528934119584  -0.206079429540019 0
force O  -0.031488167045853  -0.001509245814433  -0.206974764886334 0
force O   0.027419834954065   0.000926102492172   0.058728097689175 0
force O   0.027436309094902  -0.000927757211086   0.058759751483845 0
force O   0.095993697045274   0.000000296886027   0.103127413728426 0
force O  -0.049964502381401  -0.000002725672892   0.055630602712277 0
force O   0.095725886314863  -0.000004015907190   0.118827083748570 0
force O  -0.049654436992724   0.000012195411029   0.057596262841955 0
force O  -0.006189338475385  -0.000181728569364   0.798275091417075 1

# Energy components:
   Eewald =     4404.1753649191259683
       EH =     5666.3199151196477032
     Eloc =   -11736.9751473562246247
      Enl =     -217.0450723210607862
   Epulay =       -0.0003062098084384
      Exc =     -198.6112317104795579
       KE =      671.6163202507352707
        U =        1.0327280749368681
-------------------------------------
     Etot =    -1409.4874292331287506
       TS =        0.0018070397618212
-------------------------------------
        F =    -1409.4892362728905937

IonicMinimize: Iter:   2  F: -1409.489236272890594  |grad|_K:  5.729e-03  alpha:  5.067e-01  linmin: -6.930e-01  t[s]:  11729.96

#--- Lowdin population analysis ---
# oxidation-state V +1.180 +1.177 +1.107 +1.146 +0.990 +0.990 +1.028 +1.028 +1.017 +0.990 +1.017 +0.990 +1.108 +1.108 +1.027 +1.027
# magnetic-moments V +1.859 -2.814 +2.996 -2.806 +2.926 +2.926 -2.826 -2.826 -2.852 +2.937 -2.856 +2.938 -2.825 -2.825 +3.048 +3.048
# oxidation-state O -0.938 -0.938 -0.936 -0.936 -0.938 -0.924 -0.927 -0.922 -0.924 -0.924 -0.928 -0.928 -0.966 -0.967 -0.965 -0.967 -0.569
# magnetic-moments O -0.001 -0.001 +0.023 +0.022 +0.009 +0.017 +0.006 +0.017 +0.016 +0.016 +0.004 +0.004 +0.024 +0.005 +0.024 +0.005 -0.316


-------- Electronic minimization -----------
	FillingsUpdate:  mu: +0.208654183  nElectrons: 310.000000  magneticMoment: [ Abs: 45.84541  Tot: +0.00000 ]
ElecMinimize: Iter:   0  F: -1408.168112131411135  |grad|_K:  1.530e-04  alpha:  1.000e+00
	FillingsUpdate:  mu: +0.166808914  nElectrons: 310.000000  magneticMoment: [ Abs: 45.80739  Tot: -0.00000 ]
	SubspaceRotationAdjust: set factor to 0.0945
ElecMinimize: Iter:   1  F: -1409.267934714657940  |grad|_K:  4.267e-05  alpha:  2.745e-01  linmin:  2.251e-02  t[s]:  11831.60
	FillingsUpdate:  mu: +0.149317390  nElectrons: 310.000000  magneticMoment: [ Abs: 45.81320  Tot: +0.00000 ]
	SubspaceRotationAdjust: set factor to 0.107
ElecMinimize: Iter:   2  F: -1409.355870878351652  |grad|_K:  1.741e-05  alpha:  2.810e-01  linmin: -1.809e-04  t[s]:  11909.95
	FillingsUpdate:  mu: +0.155830690  nElectrons: 310.000000  magneticMoment: [ Abs: 45.78252  Tot: -0.00000 ]
	SubspaceRotationAdjust: set factor to 0.071
ElecMinimize: Iter:   3  F: -1409.378600714800996  |grad|_K:  1.907e-05  alpha:  4.246e-01  linmin:  3.170e-03  t[s]:  11988.12
	FillingsUpdate:  mu: +0.153530451  nElectrons: 310.000000  magneticMoment: [ Abs: 45.79414  Tot: -0.00000 ]
	SubspaceRotationAdjust: set factor to 0.0657
ElecMinimize: Iter:   4  F: -1409.398098700386072  |grad|_K:  1.499e-05  alpha:  3.147e-01  linmin:  1.255e-04  t[s]:  12065.26
[...]
	FillingsUpdate:  mu: +0.149064965  nElectrons: 311.000000  magneticMoment: [ Abs: 46.62645  Tot: +0.00000 ]
	SubspaceRotationAdjust: set factor to 0.24
ElecMinimize: Iter:  11  F: -1410.156598701830262  |grad|_K:  3.104e-08  alpha:  4.430e-01  linmin: -2.493e-06  t[s]:  62712.16
	FillingsUpdate:  mu: +0.149037027  nElectrons: 311.000000  magneticMoment: [ Abs: 46.62646  Tot: -0.00000 ]
	SubspaceRotationAdjust: set factor to 0.271
ElecMinimize: Iter:  12  F: -1410.156598787999201  |grad|_K:  2.630e-08  alpha:  4.899e-01  linmin:  4.537e-05  t[s]:  62790.40
	FillingsUpdate:  mu: +0.149069032  nElectrons: 311.000000  magneticMoment: [ Abs: 46.62647  Tot: -0.00000 ]
	SubspaceRotationAdjust: set factor to 0.288
ElecMinimize: Iter:  13  F: -1410.156598849709781  |grad|_K:  2.467e-08  alpha:  4.878e-01  linmin: -5.063e-06  t[s]:  62871.08
ElecMinimize: Converged (|Delta F|<1.000000e-06 for 5 iters).
Setting wave functions to eigenvectors of Hamiltonian

# Ionic positions in lattice coordinates:
ion V  -0.033689370454809   0.004824800515464   0.169673100952457 1
ion V   0.467430113463249   0.004765056285806   0.158849890584359 1
ion V  -0.035203780380685   0.506444207777076   0.159393673727479 1
ion V   0.465181217110629   0.505520161987205   0.157923854693010 1
ion V   0.230497133304410   0.252721398712008   0.056024226414869 1
ion V   0.229603143983834   0.755332449781150   0.055673427051393 1
ion V  -0.266671284094187   0.252455233011673   0.055041112998695 1
ion V  -0.266916002026077   0.755280494160235   0.055479874088567 1
ion V   0.000000000000000   0.000000000000000  -0.050000000000000 0
ion V   0.500000000000000   0.000000000000000  -0.050000000000000 0
ion V   0.000000000000000   0.500000000000000  -0.050000000000000 0
ion V   0.500000000000000   0.500000000000000  -0.050000000000000 0
ion V   0.250000000000000   0.250000000000000  -0.150000000000000 0
ion V   0.250000000000000   0.750000000000000  -0.150000000000000 0
ion V  -0.250000000000000   0.250000000000000  -0.150000000000000 0
ion V  -0.250000000000000   0.750000000000000  -0.150000000000000 0
ion O   0.218877876436003   0.256235386728617   0.156589601383440 1
ion O   0.212776917941385   0.758154066836837   0.155681519188342 1
ion O  -0.279347894675192   0.253470622082189   0.153775704706528 1
ion O  -0.286237052360083   0.754759851122314   0.154322378735407 1
ion O  -0.022480882935394   0.004686060133797   0.054201830054873 1
ion O   0.485033103312894   0.004409087393421   0.055094821949427 1
ion O  -0.021882009825478   0.504147007846510   0.054949416224138 1
ion O   0.485521758089009   0.504457943033674   0.055012556656395 1
ion O   0.250000000000000   0.250000000000000  -0.050000000000000 0
ion O   0.250000000000000   0.750000000000000  -0.050000000000000 0
ion O  -0.250000000000000   0.250000000000000  -0.050000000000000 0
ion O  -0.250000000000000   0.750000000000000  -0.050000000000000 0
ion O   0.000000000000000   0.000000000000000  -0.150000000000000 0
ion O   0.500000000000000   0.000000000000000  -0.150000000000000 0
ion O   0.000000000000000   0.500000000000000  -0.150000000000000 0
ion O   0.500000000000000   0.500000000000000  -0.150000000000000 0
ion O  -0.064080463684421  -0.007753791779885   0.258423807715882 1
ion H   0.041948747811842   0.069654039142791   0.282168576189664 1

# Forces in Lattice coordinates:
force V   0.005106257116536   0.003751971345542  -0.055030259703787 1
force V   0.002494240726247   0.007383967889385  -0.008720300294710 1
force V   0.001302940694882   0.001200145321170  -0.016526919944442 1
force V   0.004790975094631  -0.001299321098069  -0.011062422036399 1
force V   0.001040882041129  -0.000780666117333  -0.008163167495064 1
force V  -0.001966576965725   0.005617376442183  -0.027694390551363 1
force V  -0.000421686746154   0.000970504102515  -0.011131508848408 1
force V  -0.000718403818688  -0.000065961661197  -0.014084640292857 1
force V  -0.041423592477620   0.008053978097712   0.390277624420184 0
force V  -0.048878781640818   0.007430908264509   0.338281889626992 0
force V  -0.042866529341576   0.007663040618559   0.349300639175321 0
force V  -0.048807731436232   0.008076441932978   0.352866458880195 0
force V   0.036541402960237  -0.000947787910877  -0.251255505873895 0
force V   0.036533998554010   0.000932148672874  -0.252954455762100 0
force V   0.034693569964653  -0.001180242167969  -0.270947917095671 0
force V   0.034715147965882   0.001196056915408  -0.269008618023957 0
force O  -0.013116185324500   0.005746191567441   0.021445534369568 1
force O  -0.001021103492178   0.003355125879463  -0.031946043215711 1
force O  -0.000998438584029  -0.005426884064847   0.001776553401441 1
force O   0.000682054804106   0.001131725323562  -0.019516146701809 1
force O  -0.000795157096511  -0.001887130258244  -0.017307002486413 1
force O   0.004101924785579   0.000929014150326   0.004761223929970 1
force O   0.002085528762900   0.000378324929675   0.009599046493362 1
force O   0.003288815527421   0.001762581437742   0.031181221382498 1
force O  -0.030019541620249   0.004863423898954   0.067145315711291 0
force O  -0.028398716508594   0.000610377781924   0.060956594202059 0
force O  -0.011847870180405   0.005413252251780   0.068163350226282 0
force O  -0.011433182277845   0.001625217020232   0.075984069582060 0
force O   0.032927435889902  -0.001085590969300  -0.159375589956616 0
force O   0.027690734877014  -0.000999890451901  -0.148243334354291 0
force O   0.033130745512266  -0.001047182211509  -0.127738416445120 0
force O   0.027827452036835  -0.001094350684132  -0.150370783830910 0
force O  -0.015149759356152  -0.027158727339074   0.018032763911652 1
force H   0.019486642113326   0.015494319640698   0.066311205541044 1

# Energy components:
   Eewald =     4156.2577569631921506
       EH =     5426.1773084450596798
     Eloc =   -11249.5471919896463078
      Enl =     -217.4751367542562548
   Epulay =       -0.0003063872762097
      Exc =     -198.9927332778820528
       KE =      672.4620917253790822
        U =        0.9629162801458425
-------------------------------------
     Etot =    -1410.1552949952840663
       TS =        0.0013038544256166
-------------------------------------
        F =    -1410.1565988497097806

IonicMinimize: Iter:  27  F: -1410.156598849709781  |grad|_K:  6.438e-04  alpha:  3.128e-01  linmin:  9.282e-03  t[s]:  62880.79

#--- Lowdin population analysis ---
# oxidation-state V +1.212 +1.119 +1.115 +1.101 +1.014 +1.014 +1.068 +1.067 +1.007 +1.001 +1.010 +1.001 +1.074 +1.074 +1.072 +1.072
# magnetic-moments V +2.600 -2.944 +2.961 -2.938 +2.938 +2.934 -2.782 -2.787 -2.909 +2.934 -2.911 +2.935 -2.955 -2.955 +2.961 +2.961
# oxidation-state O -0.969 -0.957 -0.950 -0.955 -0.943 -0.934 -0.935 -0.938 -0.932 -0.932 -0.931 -0.932 -0.977 -0.976 -0.976 -0.976 -0.823
# magnetic-moments O -0.017 -0.028 +0.002 +0.016 +0.016 +0.017 +0.008 +0.016 +0.008 +0.008 -0.004 -0.004 +0.009 -0.009 +0.010 -0.009 -0.102
# oxidation-state H +0.379
# magnetic-moments H +0.008


-------- Electronic minimization -----------
	FillingsUpdate:  mu: +0.149221428  nElectrons: 311.000000  magneticMoment: [ Abs: 46.62613  Tot: -0.00000 ]
ElecMinimize: Iter:   0  F: -1410.156504351354442  |grad|_K:  1.578e-06  alpha:  1.000e+00
	FillingsUpdate:  mu: +0.149131770  nElectrons: 311.000000  magneticMoment: [ Abs: 46.62623  Tot: +0.00000 ]
	SubspaceRotationAdjust: set factor to 0.31
ElecMinimize: Iter:   1  F: -1410.156619862094431  |grad|_K:  4.582e-07  alpha:  2.537e-01  linmin: -4.892e-05  t[s]:  63008.08
	FillingsUpdate:  mu: +0.149081164  nElectrons: 311.000000  magneticMoment: [ Abs: 46.62627  Tot: +0.00000 ]
	SubspaceRotationAdjust: set factor to 0.42
ElecMinimize: Iter:   2  F: -1410.156631652791475  |grad|_K:  1.870e-07  alpha:  3.073e-01  linmin:  1.355e-06  t[s]:  63085.19
	FillingsUpdate:  mu: +0.148997659  nElectrons: 311.000000  magneticMoment: [ Abs: 46.62629  Tot: +0.00000 ]
	SubspaceRotationAdjust: set factor to 0.567
ElecMinimize: Iter:   3  F: -1410.156636451475606  |grad|_K:  1.494e-07  alpha:  7.509e-01  linmin: -4.904e-07  t[s]:  63166.48
	FillingsUpdate:  mu: +0.148961899  nElectrons: 311.000000  magneticMoment: [ Abs: 46.62624  Tot: -0.00000 ]
	SubspaceRotationAdjust: set factor to 0.699
ElecMinimize: Iter:   4  F: -1410.156639200423115  |grad|_K:  1.206e-07  alpha:  6.743e-01  linmin: -6.997e-07  t[s]:  63241.23
	FillingsUpdate:  mu: +0.148948281  nElectrons: 311.000000  magneticMoment: [ Abs: 46.62627  Tot: +0.00000 ]
	SubspaceRotationAdjust: set factor to 0.65
ElecMinimize: Iter:   5  F: -1410.156640225781985  |grad|_K:  1.029e-07  alpha:  3.854e-01  linmin: -4.340e-06  t[s]:  63321.00
	FillingsUpdate:  mu: +0.149009354  nElectrons: 311.000000  magneticMoment: [ Abs: 46.62630  Tot: +0.00000 ]
	SubspaceRotationAdjust: set factor to 0.408
ElecMinimize: Iter:   6  F: -1410.156640562508528  |grad|_K:  6.870e-08  alpha:  1.754e-01  linmin:  6.132e-05  t[s]:  63399.56
	FillingsUpdate:  mu: +0.148957461  nElectrons: 311.000000  magneticMoment: [ Abs: 46.62639  Tot: -0.00000 ]
	SubspaceRotationAdjust: set factor to 0.353
ElecMinimize: Iter:   7  F: -1410.156640795071780  |grad|_K:  4.496e-08  alpha:  2.703e-01  linmin: -3.587e-05  t[s]:  63480.95
	FillingsUpdate:  mu: +0.149014458  nElectrons: 311.000000  magneticMoment: [ Abs: 46.62644  Tot: +0.00000 ]
	SubspaceRotationAdjust: set factor to 0.252
ElecMinimize: Iter:   8  F: -1410.156640891934330  |grad|_K:  3.113e-08  alpha:  2.619e-01  linmin:  1.118e-05  t[s]:  63558.27
	FillingsUpdate:  mu: +0.148995538  nElectrons: 311.000000  magneticMoment: [ Abs: 46.62648  Tot: -0.00000 ]
	SubspaceRotationAdjust: set factor to 0.303
ElecMinimize: Iter:   9  F: -1410.156640948368022  |grad|_K:  1.928e-08  alpha:  3.181e-01  linmin: -9.353e-06  t[s]:  63636.62
	FillingsUpdate:  mu: +0.148980968  nElectrons: 311.000000  magneticMoment: [ Abs: 46.62651  Tot: +0.00000 ]
	SubspaceRotationAdjust: set factor to 0.348
ElecMinimize: Iter:  10  F: -1410.156640976230165  |grad|_K:  1.599e-08  alpha:  4.098e-01  linmin: -9.354e-05  t[s]:  63714.18
ElecMinimize: Converged (|Delta F|<1.000000e-06 for 5 iters).
Setting wave functions to eigenvectors of Hamiltonian

# Ionic positions in lattice coordinates:
ion V  -0.033360874296722   0.004929069191278   0.169658330790613 1
ion V   0.467497839916040   0.004910994368970   0.158795944506058 1
ion V  -0.035132233571137   0.506472735712111   0.159304630650928 1
ion V   0.465392244201450   0.505533174386185   0.157853628793898 1
ion V   0.230542851077992   0.252583297886980   0.055935212855758 1
ion V   0.229516891999330   0.755367666293901   0.055530780363594 1
ion V  -0.266634807532413   0.252271349963622   0.054944164910026 1
ion V  -0.266931194564218   0.755137885383567   0.055411530455260 1
ion V   0.000000000000000   0.000000000000000  -0.050000000000000 0
ion V   0.500000000000000   0.000000000000000  -0.050000000000000 0
ion V   0.000000000000000   0.500000000000000  -0.050000000000000 0
ion V   0.500000000000000   0.500000000000000  -0.050000000000000 0
ion V   0.250000000000000   0.250000000000000  -0.150000000000000 0
ion V   0.250000000000000   0.750000000000000  -0.150000000000000 0
ion V  -0.250000000000000   0.250000000000000  -0.150000000000000 0
ion V  -0.250000000000000   0.750000000000000  -0.150000000000000 0
ion O   0.218566055482240   0.256563967616540   0.156506550940375 1
ion O   0.212759917925776   0.758377401964159   0.155516419033388 1
ion O  -0.279372542765156   0.253137207741342   0.153699400274443 1
ion O  -0.286193895953888   0.754794436812688   0.154217605517331 1
ion O  -0.022767443494920   0.004432083946291   0.054112637422054 1
ion O   0.485053724072542   0.004262701302049   0.055057169611194 1
ion O  -0.021851237296215   0.503932663308097   0.054948555002243 1
ion O   0.485549588158708   0.504366144062782   0.055086617989812 1
ion O   0.250000000000000   0.250000000000000  -0.050000000000000 0
ion O   0.250000000000000   0.750000000000000  -0.050000000000000 0
ion O  -0.250000000000000   0.250000000000000  -0.050000000000000 0
ion O  -0.250000000000000   0.750000000000000  -0.050000000000000 0
ion O   0.000000000000000   0.000000000000000  -0.150000000000000 0
ion O   0.500000000000000   0.000000000000000  -0.150000000000000 0
ion O   0.000000000000000   0.500000000000000  -0.150000000000000 0
ion O   0.500000000000000   0.500000000000000  -0.150000000000000 0
ion O  -0.063750404746688  -0.007965822599406   0.258516394845955 1
ion H   0.042283353390935   0.069901714698313   0.282323407669464 1

# Forces in Lattice coordinates:
force V   0.002170613425866   0.001727802552316  -0.027011328156704 1
force V   0.001124472313555   0.005438055934678  -0.005068839296878 1
force V   0.000465414519585   0.002325079116116  -0.009602174749054 1
force V   0.002146389754475  -0.000499846092983  -0.002561636156893 1
force V  -0.000539492289247   0.000297029435729   0.002708777329479 1
force V  -0.001585781571655   0.003446861192238  -0.014451807207152 1
force V  -0.001437306936275   0.002022799138918   0.000993121486941 1
force V  -0.001336721600767  -0.000213723383318  -0.006978376045583 1
force V  -0.041176507329831   0.007723357927246   0.379157533074568 0
force V  -0.048967879910301   0.007174663043481   0.327101729904289 0
force V  -0.042398079089091   0.007417086911804   0.340803674775606 0
force V  -0.049162859505001   0.007939280027869   0.345433847753923 0
force V   0.036291932539255  -0.001020902030018  -0.253374220966536 0
force V   0.036254062388471   0.001015252769622  -0.255125917001159 0
force V   0.034971243682704  -0.001261901267428  -0.272886263763535 0
force V   0.034990955265095   0.001260213289398  -0.270718749149409 0
force O  -0.010620446043111   0.001675556754769   0.019509545409020 1
force O   0.000063650822050   0.001334161597596  -0.027458179528113 1
force O   0.000681405696454  -0.002513932638958   0.005332491546231 1
force O   0.000167726923429   0.002113318618296  -0.013285247646646 1
force O   0.001873581790004   0.000387626569033  -0.016087948500141 1
force O   0.003350214646458   0.001477246362050   0.003440986841894 1
force O   0.002028196984769   0.001278454050323   0.004300202570049 1
force O   0.002510656611716   0.001854065429593   0.019149300807242 1
force O  -0.029345624513107   0.004901374852255   0.065091890220381 0
force O  -0.027710674619241   0.000175922970467   0.056592084908970 0
force O  -0.012279492402565   0.005647303476260   0.064672822143338 0
force O  -0.011925758060342   0.001192846497695   0.072989773373775 0
force O   0.032911574875547  -0.001021487102619  -0.160461243839594 0
force O   0.027758552265449  -0.000965336207744  -0.147620837040109 0
force O   0.033040951787109  -0.001013815851487  -0.127883049325054 0
force O   0.027920631689119  -0.001088381958315  -0.148498244955265 0
force O   0.001339052763253  -0.014134139422980   0.038325711114343 1
force H   0.003557324193823   0.003548350156282   0.019295432380542 1

# Energy components:
   Eewald =     4157.8146825734947925
       EH =     5427.7127815111616655
     Eloc =   -11252.6386726524488040
      Enl =     -217.4741758507224176
   Epulay =       -0.0003063872762097
      Exc =     -198.9923774247967572
       KE =      672.4597233085967218
        U =        0.9630022523300834
-------------------------------------
     Etot =    -1410.1553426696607403
       TS =        0.0012983065693861
-------------------------------------
        F =    -1410.1566409762301646

IonicMinimize: Iter:  28  F: -1410.156640976230165  |grad|_K:  3.409e-04  alpha:  1.000e+00  linmin: -5.389e-02  t[s]:  63723.83
IonicMinimize: Converged (|Delta F|<1.000000e-04 for 3 iters).

#--- Lowdin population analysis ---
# oxidation-state V +1.213 +1.119 +1.115 +1.101 +1.014 +1.014 +1.067 +1.067 +1.007 +1.001 +1.010 +1.001 +1.074 +1.074 +1.072 +1.072
# magnetic-moments V +2.601 -2.944 +2.961 -2.938 +2.938 +2.934 -2.782 -2.786 -2.909 +2.934 -2.911 +2.935 -2.956 -2.955 +2.961 +2.961
# oxidation-state O -0.969 -0.957 -0.950 -0.955 -0.943 -0.934 -0.935 -0.938 -0.932 -0.932 -0.931 -0.932 -0.977 -0.976 -0.976 -0.976 -0.823
# magnetic-moments O -0.017 -0.028 +0.002 +0.016 +0.016 +0.017 +0.008 +0.016 +0.008 +0.008 -0.004 -0.004 +0.009 -0.009 +0.010 -0.009 -0.102
# oxidation-state H +0.378
# magnetic-moments H +0.008


Dumping 'OH.ionpos' ... done
Dumping 'OH.lattice' ... done
Dumping 'OH.Ecomponents' ... done
End date and time: Tue Apr  1 17:56:02 2025  (Duration: 0-17:42:07.10)
Done!
File 'min_progress.txt' has been deleted.
File 'min_details.txt' does not exist, so it cannot be deleted.
File 'O_pos.txt' does not exist, so it cannot be deleted.
File 'OH_pos.txt' does not exist, so it cannot be deleted.
Directory 'runs' does not exist, so it cannot be deleted.
File '/data2/jt577/March_2025/pure_RSO/ionic_relax_magnetism/pure_VO/runs/wavefunctions/O.wfns' does not exist and cannot be copied.
File '/data2/jt577/March_2025/pure_RSO/ionic_relax_magnetism/pure_VO/runs/wavefunctions/OH.wfns' does not exist and cannot be copied.
File '/data2/jt577/March_2025/pure_RSO/ionic_relax_magnetism/pure_VO/runs/calc_20250330-172512/O/O.wfns' does not exist and cannot be copied.
File '/data2/jt577/March_2025/pure_RSO/ionic_relax_magnetism/pure_VO/runs/calc_20250330-172512/OH/OH.wfns' does not exist and cannot be copied.
File '/data2/jt577/March_2025/pure_RSO/ionic_relax_magnetism/pure_VO/runs/calc_20250330-172512/O/O.ionpos' has been copied to '/data2/jt577/March_2025/pure_RSO/ionic_relax_magnetism/pure_VO/runs/positions/O.ionpos'.
File '/data2/jt577/March_2025/pure_RSO/ionic_relax_magnetism/pure_VO/runs/calc_20250330-172512/O/O.lattice' has been copied to '/data2/jt577/March_2025/pure_RSO/ionic_relax_magnetism/pure_VO/runs/positions/O.lattice'.
File '/data2/jt577/March_2025/pure_RSO/ionic_relax_magnetism/pure_VO/runs/calc_20250330-172512/OH/OH.ionpos' has been copied to '/data2/jt577/March_2025/pure_RSO/ionic_relax_magnetism/pure_VO/runs/positions/OH.ionpos'.
File '/data2/jt577/March_2025/pure_RSO/ionic_relax_magnetism/pure_VO/runs/calc_20250330-172512/OH/OH.lattice' has been copied to '/data2/jt577/March_2025/pure_RSO/ionic_relax_magnetism/pure_VO/runs/positions/OH.lattice'.
File '/data2/jt577/March_2025/pure_RSO/ionic_relax_magnetism/pure_VO/runs/wavefunctions/O.wfns' does not exist and cannot be copied.
File '/data2/jt577/March_2025/pure_RSO/ionic_relax_magnetism/pure_VO/runs/wavefunctions/OH.wfns' does not exist and cannot be copied.
Traceback (most recent call last):
  File "/data2/jt577/March_2025/pure_RSO/ionic_relax_magnetism/pure_VO/main.py", line 246, in <module>
    x, _, unique_folder = mn.PBFGS(fun=cost, x0=x, jac=grad_cost, args=(elements, target, eta, q, first_iteration, generic_inputs, lattice, positions_ordered, ads_O_pos, ads_OH_pos), S=num_species, B=quasi_Hessian, folder=unique_folder, progress_file_path=progress_file_path, details_file_path=details_file_path, maxit=maxit, tol=1e-2, callback=callback_func)
  File "/data2/jt577/March_2025/pure_RSO/ionic_relax_magnetism/pure_VO/modules/minimize.py", line 162, in PBFGS
    unique_folder = bs.perform_calc(x, *args)
  File "/data2/jt577/March_2025/pure_RSO/ionic_relax_magnetism/pure_VO/modules/bsruncalc.py", line 152, in perform_calc
    energy_surface(w, adsorbate='O', elements=elements, folder=unique_folder, first_iteration=first_iteration, generic_inputs=generic_inputs, lattice=lattice, positions_ordered=positions_ordered, ads_O_pos=ads_O_pos, ads_OH_pos=ads_OH_pos)
  File "/data2/jt577/March_2025/pure_RSO/ionic_relax_magnetism/pure_VO/modules/bsruncalc.py", line 128, in energy_surface
    write_input_surface(weights, adsorbate, elements, folder, first_iteration, generic_inputs, lattice, positions_ordered, ads_O_pos, ads_OH_pos)
  File "/data2/jt577/March_2025/pure_RSO/ionic_relax_magnetism/pure_VO/modules/bsruncalc.py", line 82, in write_input_surface
    curr_line = mixed_lines[i]
IndexError: list index out of range
