/var/spool/slurmd/job44525/slurm_script: line 9: module: command not found
/var/spool/slurmd/job44525/slurm_script: line 10: module: command not found

*************** JDFTx 1.7.0  ***************

Start date and time: Tue May 20 16:53:06 2025
Executable /data2/jt577/jdftx_eat_withLibXC/build/jdftx with command-line: -i /data2/jt577/May_2025/Relax_Mag_litU/rel3+1_6/OH/runs/calc_/run.in
Running on hosts (process indices):  node3303 (0-8)
Divided in process groups (process indices):  0 (0)  1 (1)  2 (2)  3 (3)  4 (4)  5 (5)  6 (6)  7 (7)  8 (8)
Resource initialization completed at t[s]:      0.00
Run totals: 9 processes, 63 threads, 0 GPUs


Input parsed successfully to the following command list (including defaults):

add-mix 
add-U 	Ni d 0.235196 \
	V d 0.113923 \
	Co d 0.121273 \
	Cr d 0.128623
basis kpoint-dependent
coords-type Lattice
core-overlap-check vector
coulomb-interaction Periodic
davidson-band-ratio 1.1
dump End IonicPositions Lattice Ecomponents
dump-name run.$VAR
elec-cutoff 30
elec-eigen-algo Davidson
elec-ex-corr gga-x-rpbe gga-c-pbe
elec-smearing Fermi 0.001
electronic-minimize  \
	dirUpdateScheme      FletcherReeves \
	linminMethod         DirUpdateRecommended \
	nIterations          1000 \
	history              15 \
	knormThreshold       0 \
	energyDiffThreshold  1e-06 \
	nEnergyDiff          5 \
	alphaTstart          1 \
	alphaTmin            1e-10 \
	updateTestStepSize   yes \
	alphaTreduceFactor   0.1 \
	alphaTincreaseFactor 3 \
	nAlphaAdjustMax      3 \
	wolfeEnergy          0.0001 \
	wolfeGradient        0.9 \
	fdTest               no
exchange-regularization WignerSeitzTruncated
fluid None
fluid-ex-corr (null) lda-PZ
fluid-gummel-loop 10 1.000000e-05
fluid-minimize  \
	dirUpdateScheme      PolakRibiere \
	linminMethod         DirUpdateRecommended \
	nIterations          100 \
	history              15 \
	knormThreshold       0 \
	energyDiffThreshold  0 \
	nEnergyDiff          2 \
	alphaTstart          1 \
	alphaTmin            1e-10 \
	updateTestStepSize   yes \
	alphaTreduceFactor   0.1 \
	alphaTincreaseFactor 3 \
	nAlphaAdjustMax      3 \
	wolfeEnergy          0.0001 \
	wolfeGradient        0.9 \
	fdTest               no
fluid-solvent H2O 55.338 ScalarEOS \
	epsBulk 78.4 \
	pMol 0.92466 \
	epsInf 1.77 \
	Pvap 1.06736e-10 \
	sigmaBulk 4.62e-05 \
	Rvdw 2.61727 \
	Res 1.42 \
	tauNuc 343133 \
	poleEl 15 7 1
forces-output-coords Positions
initial-magnetic-moments  \
	Ni 1 -1 \
	V -1 1 1 \
	Co 1 1 -1 1 -1 -1 \
	Cr -1 -1 -1 1 1
initial-state run.$VAR
ion Ni  0.000000000000000   0.000000000000000   0.150000000000000 1
ion Ni  0.500000000000000   0.500000000000000   0.150000000000000 1
ion V  0.500000000000000   0.000000000000000   0.150000000000000 1
ion V  0.000000000000000   0.500000000000000   0.150000000000000 1
ion V  0.500000000000000   0.000000000000000  -0.050000000000000 0
ion Co  0.250000000000000   0.250000000000000   0.050000000000000 1
ion Co  0.250000000000000   0.750000000000000   0.050000000000000 1
ion Co  0.000000000000000   0.500000000000000  -0.050000000000000 0
ion Co  0.500000000000000   0.500000000000000  -0.050000000000000 0
ion Co  0.250000000000000   0.250000000000000  -0.150000000000000 0
ion Co  0.250000000000000   0.750000000000000  -0.150000000000000 0
ion Cr -0.250000000000000   0.250000000000000   0.050000000000000 1
ion Cr -0.250000000000000   0.750000000000000   0.050000000000000 1
ion Cr  0.000000000000000   0.000000000000000  -0.050000000000000 0
ion Cr -0.250000000000000   0.250000000000000  -0.150000000000000 0
ion Cr -0.250000000000000   0.750000000000000  -0.150000000000000 0
ion O  0.250000000000000   0.250000000000000   0.150000000000000 1
ion O  0.250000000000000   0.750000000000000   0.150000000000000 1
ion O -0.250000000000000   0.250000000000000   0.150000000000000 1
ion O -0.250000000000000   0.750000000000000   0.150000000000000 1
ion O  0.000000000000000   0.000000000000000   0.050000000000000 1
ion O  0.500000000000000   0.000000000000000   0.050000000000000 1
ion O  0.000000000000000   0.500000000000000   0.050000000000000 1
ion O  0.500000000000000   0.500000000000000   0.050000000000000 1
ion O  0.250000000000000   0.250000000000000  -0.050000000000000 0
ion O  0.250000000000000   0.750000000000000  -0.050000000000000 0
ion O -0.250000000000000   0.250000000000000  -0.050000000000000 0
ion O -0.250000000000000   0.750000000000000  -0.050000000000000 0
ion O  0.000000000000000   0.000000000000000  -0.150000000000000 0
ion O  0.500000000000000   0.000000000000000  -0.150000000000000 0
ion O  0.000000000000000   0.500000000000000  -0.150000000000000 0
ion O  0.500000000000000   0.500000000000000  -0.150000000000000 0
ion O -0.008040138212305  -0.008269777577920   0.235000196603227 1
ion H  0.095742872057713   0.094897636790041   0.252810710255288 1
ion-species SG15/$ID_ONCV_PBE.upf
ion-width 0
ionic-minimize  \
	dirUpdateScheme      L-BFGS \
	linminMethod         DirUpdateRecommended \
	nIterations          1000 \
	history              15 \
	knormThreshold       0.0001 \
	energyDiffThreshold  0.0001 \
	nEnergyDiff          3 \
	alphaTstart          1 \
	alphaTmin            1e-10 \
	updateTestStepSize   yes \
	alphaTreduceFactor   0.1 \
	alphaTincreaseFactor 3 \
	nAlphaAdjustMax      3 \
	wolfeEnergy          0.0001 \
	wolfeGradient        0.9 \
	fdTest               no
kpoint   0.500000000000   0.500000000000   0.500000000000  1.00000000000000
kpoint-folding 3 3 1 
latt-move-scale 1 1 1
latt-scale 1 1 1 
lattice  \
	   8.140000000000001    8.140000000000001    0.000000000000000  \
	   8.140000000000001   -8.140000000000001    0.000000000000000  \
	   0.000000000000000    0.000000000000000   40.700000000000003 
lattice-minimize  \
	dirUpdateScheme      L-BFGS \
	linminMethod         DirUpdateRecommended \
	nIterations          0 \
	history              15 \
	knormThreshold       0 \
	energyDiffThreshold  1e-06 \
	nEnergyDiff          2 \
	alphaTstart          1 \
	alphaTmin            1e-10 \
	updateTestStepSize   yes \
	alphaTreduceFactor   0.1 \
	alphaTincreaseFactor 3 \
	nAlphaAdjustMax      3 \
	wolfeEnergy          0.0001 \
	wolfeGradient        0.9 \
	fdTest               no
lcao-params -1 1e-06 0.001
pcm-variant GLSSA13
spintype z-spin
subspace-rotation-factor 1 yes
symmetries none
symmetry-threshold 0.0001


Applied RMS atom displacement 0 bohrs to make symmetries exact.

---------- Initializing the Grid ----------
R = 
[         8.14         8.14            0  ]
[         8.14        -8.14            0  ]
[            0            0         40.7  ]
unit cell volume = 5393.53
G =
[   0.385945   0.385945         -0  ]
[   0.385945  -0.385945         -0  ]
[         -0         -0   0.154378  ]
Minimum fftbox size, Smin = [  60  60  204  ]
Chosen fftbox size, S = [  60  60  210  ]

---------- Exchange Correlation functional ----------
Initialized LibXC exchange functional 'Hammer, Hansen, and Norskov'
Initialized LibXC correlation functional 'Perdew, Burke & Ernzerhof'

---------- Setting up pseudopotentials ----------
Width of ionic core gaussian charges (only for fluid interactions / plotting) set to 0

Reading pseudopotential file '/data2/jt577/jdftx_eat_withLibXC/build/pseudopotentials/SG15/Ni_ONCV_PBE.upf':
  'Ni' pseudopotential, 'PBE' functional
  Generated using ONCVPSP code by D. R. Hamann
  Author: Martin Schlipf and Francois Gygi  Date: 150915.
  18 valence electrons, 4 orbitals, 6 projectors, 1292 radial grid points, with lMax = 2
  Transforming local potential to a uniform radial grid of dG=0.02 with 1419 points.
  Transforming nonlocal projectors to a uniform radial grid of dG=0.02 with 528 points.
    3S    l: 0   occupation:  2.0   eigenvalue: -4.081355
    3P    l: 1   occupation:  6.0   eigenvalue: -2.623460
    4S    l: 0   occupation:  2.0   eigenvalue: -0.207378
    3D    l: 2   occupation:  8.0   eigenvalue: -0.326118
  Transforming atomic orbitals to a uniform radial grid of dG=0.02 with 528 points.
  WARNING: large normalization error in atomic orbital 1s (integral: 0.000006).
  Core radius for overlap checks: 1.99 bohrs.
  Reading pulay file /data2/jt577/jdftx_eat_withLibXC/build/pseudopotentials/SG15/Ni_ONCV_PBE.pulay ... using dE_dnG = -7.250568e-04 computed for Ecut = 30.

Reading pseudopotential file '/data2/jt577/jdftx_eat_withLibXC/build/pseudopotentials/SG15/V_ONCV_PBE.upf':
  'V' pseudopotential, 'PBE' functional
  Generated using ONCVPSP code by D. R. Hamann
  Author: Martin Schlipf and Francois Gygi  Date: 150915.
  13 valence electrons, 4 orbitals, 6 projectors, 1536 radial grid points, with lMax = 2
  Transforming local potential to a uniform radial grid of dG=0.02 with 1419 points.
  Transforming nonlocal projectors to a uniform radial grid of dG=0.02 with 528 points.
    3S    l: 0   occupation:  2.0   eigenvalue: -2.581105
    3P    l: 1   occupation:  6.0   eigenvalue: -1.618486
    4S    l: 0   occupation:  2.0   eigenvalue: -0.172804
    3D    l: 2   occupation:  3.0   eigenvalue: -0.189795
  Transforming atomic orbitals to a uniform radial grid of dG=0.02 with 528 points.
  Core radius for overlap checks: 1.80 bohrs.
  Reading pulay file /data2/jt577/jdftx_eat_withLibXC/build/pseudopotentials/SG15/V_ONCV_PBE.pulay ... using dE_dnG = -1.698632e-04 computed for Ecut = 30.

Reading pseudopotential file '/data2/jt577/jdftx_eat_withLibXC/build/pseudopotentials/SG15/Co_ONCV_PBE.upf':
  'Co' pseudopotential, 'PBE' functional
  Generated using ONCVPSP code by D. R. Hamann
  Author: Martin Schlipf and Francois Gygi  Date: 150915.
  17 valence electrons, 4 orbitals, 6 projectors, 1388 radial grid points, with lMax = 2
  Transforming local potential to a uniform radial grid of dG=0.02 with 1419 points.
  Transforming nonlocal projectors to a uniform radial grid of dG=0.02 with 528 points.
    3S    l: 0   occupation:  2.0   eigenvalue: -3.763303
    3P    l: 1   occupation:  6.0   eigenvalue: -2.412101
    4S    l: 0   occupation:  2.0   eigenvalue: -0.201022
    3D    l: 2   occupation:  7.0   eigenvalue: -0.301498
  Transforming atomic orbitals to a uniform radial grid of dG=0.02 with 528 points.
  Core radius for overlap checks: 1.94 bohrs.
  Reading pulay file /data2/jt577/jdftx_eat_withLibXC/build/pseudopotentials/SG15/Co_ONCV_PBE.pulay ... using dE_dnG = -9.787391e-05 computed for Ecut = 30.

Reading pseudopotential file '/data2/jt577/jdftx_eat_withLibXC/build/pseudopotentials/SG15/Cr_ONCV_PBE.upf':
  'Cr' pseudopotential, 'PBE' functional
  Generated using ONCVPSP code by D. R. Hamann
  Author: Martin Schlipf and Francois Gygi  Date: 150915.
  14 valence electrons, 4 orbitals, 6 projectors, 1160 radial grid points, with lMax = 2
  Transforming local potential to a uniform radial grid of dG=0.02 with 1419 points.
  Transforming nonlocal projectors to a uniform radial grid of dG=0.02 with 528 points.
    3S    l: 0   occupation:  2.0   eigenvalue: -2.865131
    3P    l: 1   occupation:  6.0   eigenvalue: -1.810600
    4S    l: 0   occupation:  2.0   eigenvalue: -0.180525
    3D    l: 2   occupation:  4.0   eigenvalue: -0.220312
  Transforming atomic orbitals to a uniform radial grid of dG=0.02 with 528 points.
  WARNING: large normalization error in atomic orbital 1s (integral: 0.000001).
  Core radius for overlap checks: 2.10 bohrs.
  Reading pulay file /data2/jt577/jdftx_eat_withLibXC/build/pseudopotentials/SG15/Cr_ONCV_PBE.pulay ... using dE_dnG = -9.817895e-06 computed for Ecut = 30.

Reading pseudopotential file '/data2/jt577/jdftx_eat_withLibXC/build/pseudopotentials/SG15/O_ONCV_PBE.upf':
  'O' pseudopotential, 'PBE' functional
  Generated using ONCVPSP code by D. R. Hamann
  Author: Martin Schlipf and Francois Gygi  Date: 150915.
  6 valence electrons, 2 orbitals, 4 projectors, 936 radial grid points, with lMax = 1
  Transforming local potential to a uniform radial grid of dG=0.02 with 1419 points.
  Transforming nonlocal projectors to a uniform radial grid of dG=0.02 with 528 points.
    2S    l: 0   occupation:  2.0   eigenvalue: -0.880572
    2P    l: 1   occupation:  4.0   eigenvalue: -0.331869
  Transforming atomic orbitals to a uniform radial grid of dG=0.02 with 528 points.
  Core radius for overlap checks: 1.29 bohrs.
  Reading pulay file /data2/jt577/jdftx_eat_withLibXC/build/pseudopotentials/SG15/O_ONCV_PBE.pulay ... using dE_dnG = -8.209514e-03 computed for Ecut = 30.

Reading pseudopotential file '/data2/jt577/jdftx_eat_withLibXC/build/pseudopotentials/SG15/H_ONCV_PBE.upf':
  'H' pseudopotential, 'PBE' functional
  Generated using ONCVPSP code by D. R. Hamann
  Author: Martin Schlipf and Francois Gygi  Date: 150915.
  1 valence electrons, 1 orbitals, 2 projectors, 1166 radial grid points, with lMax = 0
  Transforming local potential to a uniform radial grid of dG=0.02 with 1419 points.
  Transforming nonlocal projectors to a uniform radial grid of dG=0.02 with 528 points.
    1S    l: 0   occupation:  1.0   eigenvalue: -0.238602
  Transforming atomic orbitals to a uniform radial grid of dG=0.02 with 528 points.
  Core radius for overlap checks: 1.01 bohrs.
  Reading pulay file /data2/jt577/jdftx_eat_withLibXC/build/pseudopotentials/SG15/H_ONCV_PBE.pulay ... using dE_dnG = -8.245991e-05 computed for Ecut = 30.

Initialized 6 species with 34 total atoms.

Folded 1 k-points by 3x3x1 to 9 k-points.

---------- Setting up k-points, bands, fillings ----------
No reducable k-points. 
Computing the number of bands and number of electrons
Calculating initial fillings.
nElectrons: 350.000000   nBands: 229   nStates: 18

----- Setting up reduced wavefunction bases (one per k-point) -----
average nbasis = 42312.000 , ideal nbasis = 42330.081

---------- Setting up ewald sum ----------
Optimum gaussian width for ewald sums = 3.887061 bohr.
Real space sum over 605 unit cells with max indices [  5  5  2  ]
Reciprocal space sum over 5915 terms with max indices [  6  6  17  ]

---------- Allocating electronic variables ----------
Initializing wave functions:  linear combination of atomic orbitals
Ni (M=1) pseudo-atom majority spin occupations:   s ( 1 0.5 )  p ( 3 )  d ( 5 )
Ni (M=1) pseudo-atom minority spin occupations:   s ( 1 0 )  p ( 3 )  d ( 4.5 )
V (M=1) pseudo-atom majority spin occupations:   s ( 1 0 )  p ( 3 )  d ( 3 )
V (M=1) pseudo-atom minority spin occupations:   s ( 1 0 )  p ( 3 )  d ( 2 )
Co (M=1) pseudo-atom majority spin occupations:   s ( 1 0 )  p ( 3 )  d ( 5 )
Co (M=1) pseudo-atom minority spin occupations:   s ( 1 0 )  p ( 3 )  d ( 4 )
Cr (M=1) pseudo-atom majority spin occupations:   s ( 1 0 )  p ( 3 )  d ( 3.5 )
Cr (M=1) pseudo-atom minority spin occupations:   s ( 1 0 )  p ( 3 )  d ( 2.5 )
O pseudo-atom occupations:   s ( 2 )  p ( 4 )
H pseudo-atom occupations:   s ( 1 )
	FillingsUpdate:  mu: +0.204515536  nElectrons: 350.000000  magneticMoment: [ Abs: 0.54855  Tot: +0.00000 ]
LCAOMinimize: Iter:   0  F: -1846.6507727300966053  |grad|_K:  1.487e-02  alpha:  1.000e+00
LCAOMinimize: 	Step increased F by 1.493763e+02, reducing alpha to 2.437526e-02.
	FillingsUpdate:  mu: +0.316833257  nElectrons: 350.000000  magneticMoment: [ Abs: 0.59852  Tot: -0.00000 ]
LCAOMinimize: Iter:   1  F: -1851.3971086929743706  |grad|_K:  1.689e-02  alpha:  2.438e-02  linmin: -7.065e-02  cgtest:  8.075e-01  t[s]:     77.31
LCAOMinimize: 	Wrong curvature in test step, increasing alphaT to 7.312579e-02.
	FillingsUpdate:  mu: +0.612265142  nElectrons: 350.000000  magneticMoment: [ Abs: 5.32939  Tot: -0.00000 ]
LCAOMinimize: Iter:   2  F: -1878.1989975427350146  |grad|_K:  2.108e-02  alpha: -6.476e-03  linmin: -6.149e-02  cgtest:  4.431e-01  t[s]:     97.22
LCAOMinimize: 	Step increased F by 9.674909e+01, reducing alpha to 4.240588e-02.
LCAOMinimize: 	Step increased F by 1.098356e+01, reducing alpha to 4.240588e-03.
	FillingsUpdate:  mu: +0.599153852  nElectrons: 350.000000  magneticMoment: [ Abs: 6.64194  Tot: -0.00000 ]
LCAOMinimize: Iter:   3  F: -1883.4544670441459857  |grad|_K:  2.438e-02  alpha:  4.241e-03  linmin: -3.801e-02  cgtest:  8.160e-01  t[s]:    148.99
LCAOMinimize: 	Predicted alpha/alphaT>3.000000, increasing alphaT to 1.272176e-02.
LCAOMinimize: 	Wrong curvature in test step, increasing alphaT to 3.816529e-02.
	FillingsUpdate:  mu: +0.610650765  nElectrons: 350.000000  magneticMoment: [ Abs: 10.19270  Tot: +0.00000 ]
LCAOMinimize: Iter:   4  F: -1896.6671389225029998  |grad|_K:  1.910e-02  alpha: -3.251e-01  linmin: -4.931e-02  cgtest:  9.526e-01  t[s]:    175.23
LCAOMinimize: Encountered beta<0, resetting CG.
LCAOMinimize: 	Step increased F by 6.602726e+01, reducing alpha to 3.631415e-02.
	FillingsUpdate:  mu: +0.491562005  nElectrons: 350.000000  magneticMoment: [ Abs: 15.15404  Tot: +0.00000 ]
LCAOMinimize: Iter:   5  F: -1918.0272791743254857  |grad|_K:  2.273e-02  alpha:  3.631e-02  linmin: -4.873e-02  cgtest:  5.682e-01  t[s]:    210.90
	FillingsUpdate:  mu: +0.716246051  nElectrons: 350.000000  magneticMoment: [ Abs: 17.30244  Tot: -0.00000 ]
LCAOMinimize: Iter:   6  F: -1939.5104351781797050  |grad|_K:  1.864e-02  alpha:  1.980e-02  linmin: -6.194e-02  cgtest:  6.904e-01  t[s]:    231.85
LCAOMinimize: 	Wrong curvature in test step, increasing alphaT to 5.939475e-02.
	FillingsUpdate:  mu: +0.651995431  nElectrons: 350.000000  magneticMoment: [ Abs: 14.61841  Tot: -0.00000 ]
LCAOMinimize: Iter:   7  F: -1948.4451100983274046  |grad|_K:  2.003e-02  alpha: -7.219e-02  linmin: -6.449e-02  cgtest:  5.547e-01  t[s]:    251.10
LCAOMinimize: 	Step increased F by 2.480865e+02, reducing alpha to 2.852494e-02.
	FillingsUpdate:  mu: +0.570117442  nElectrons: 350.000000  magneticMoment: [ Abs: 8.73234  Tot: -0.00000 ]
LCAOMinimize: Iter:   8  F: -1954.4895740335305163  |grad|_K:  1.529e-02  alpha:  2.852e-02  linmin:  1.547e-02  cgtest: -1.149e-01  t[s]:    286.65
	FillingsUpdate:  mu: +0.423415711  nElectrons: 350.000000  magneticMoment: [ Abs: 5.94793  Tot: -0.00000 ]
LCAOMinimize: Iter:   9  F: -1956.3979068164783257  |grad|_K:  1.224e-02  alpha:  2.370e-02  linmin: -9.131e-03  cgtest:  6.610e-01  t[s]:    307.15
LCAOMinimize: 	Predicted alpha/alphaT>3.000000, increasing alphaT to 7.109309e-02.
	FillingsUpdate:  mu: +0.044191114  nElectrons: 350.000000  magneticMoment: [ Abs: 10.54878  Tot: +0.00000 ]
LCAOMinimize: Iter:  10  F: -1962.0203270982485719  |grad|_K:  1.101e-02  alpha:  7.882e-02  linmin:  6.455e-03  cgtest: -1.414e-01  t[s]:    334.00
	FillingsUpdate:  mu: +0.032703892  nElectrons: 350.000000  magneticMoment: [ Abs: 10.82488  Tot: -0.00000 ]
LCAOMinimize: Iter:  11  F: -1962.4452358272401398  |grad|_K:  9.660e-03  alpha:  4.184e-03  linmin: -5.925e-02  cgtest:  9.627e-01  t[s]:    354.91
LCAOMinimize: Encountered beta<0, resetting CG.
LCAOMinimize: 	Predicted alpha/alphaT>3.000000, increasing alphaT to 1.255160e-02.
	FillingsUpdate:  mu: +0.149384048  nElectrons: 350.000000  magneticMoment: [ Abs: 10.86160  Tot: +0.00000 ]
LCAOMinimize: Iter:  12  F: -1963.5540351656206894  |grad|_K:  6.984e-03  alpha:  2.572e-02  linmin: -7.975e-03  cgtest: -1.113e-01  t[s]:    381.14
LCAOMinimize: 	Predicted alpha/alphaT>3.000000, increasing alphaT to 7.717050e-02.
	FillingsUpdate:  mu: +0.097545994  nElectrons: 350.000000  magneticMoment: [ Abs: 10.60376  Tot: -0.00000 ]
LCAOMinimize: Iter:  13  F: -1964.3532571517037013  |grad|_K:  5.302e-03  alpha:  1.867e-02  linmin: -1.160e-01  cgtest:  7.304e-01  t[s]:    407.83
LCAOMinimize: 	Predicted alpha/alphaT>3.000000, increasing alphaT to 5.599712e-02.
	FillingsUpdate:  mu: -0.022487422  nElectrons: 350.000000  magneticMoment: [ Abs: 12.24949  Tot: +0.00000 ]
LCAOMinimize: Iter:  14  F: -1965.2032559208453222  |grad|_K:  7.211e-03  alpha:  5.024e-02  linmin:  4.635e-02  cgtest: -1.997e-01  t[s]:    434.40
	FillingsUpdate:  mu: -0.011816277  nElectrons: 350.000000  magneticMoment: [ Abs: 12.40906  Tot: -0.00000 ]
LCAOMinimize: Iter:  15  F: -1965.2076382954624023  |grad|_K:  7.676e-03  alpha:  8.039e-04  linmin:  2.109e-04  cgtest:  9.880e-01  t[s]:    454.99
LCAOMinimize: 	Predicted alpha/alphaT>3.000000, increasing alphaT to 2.411630e-03.
LCAOMinimize: 	Predicted alpha/alphaT>3.000000, increasing alphaT to 7.234890e-03.
	FillingsUpdate:  mu: +0.130468270  nElectrons: 350.000000  magneticMoment: [ Abs: 12.32252  Tot: +0.00000 ]
LCAOMinimize: Iter:  16  F: -1965.6675781364010618  |grad|_K:  6.198e-03  alpha:  2.006e-02  linmin:  5.213e-02  cgtest: -4.902e-01  t[s]:    487.65
	FillingsUpdate:  mu: +0.147799182  nElectrons: 350.000000  magneticMoment: [ Abs: 12.51699  Tot: +0.00000 ]
LCAOMinimize: Iter:  17  F: -1965.6814673227188450  |grad|_K:  6.200e-03  alpha:  3.727e-03  linmin:  6.566e-03  cgtest:  9.467e-01  t[s]:    508.50
	FillingsUpdate:  mu: +0.078673851  nElectrons: 350.000000  magneticMoment: [ Abs: 12.71071  Tot: +0.00000 ]
LCAOMinimize: Iter:  18  F: -1965.8192461512282989  |grad|_K:  2.078e-03  alpha:  7.320e-03  linmin: -4.664e-02  cgtest:  2.607e-01  t[s]:    529.40
LCAOMinimize: 	Predicted alpha/alphaT>3.000000, increasing alphaT to 2.195984e-02.
	FillingsUpdate:  mu: +0.047058250  nElectrons: 350.000000  magneticMoment: [ Abs: 12.55183  Tot: +0.00000 ]
LCAOMinimize: Iter:  19  F: -1965.8678998529346700  |grad|_K:  1.648e-03  alpha:  2.325e-02  linmin: -9.212e-04  cgtest: -2.418e-02  t[s]:    556.38
	FillingsUpdate:  mu: +0.062504541  nElectrons: 350.000000  magneticMoment: [ Abs: 12.74468  Tot: +0.00000 ]
LCAOMinimize: Iter:  20  F: -1965.9170280326106877  |grad|_K:  2.334e-03  alpha:  3.703e-02  linmin: -1.006e-03  cgtest: -3.299e-02  t[s]:    577.89
	FillingsUpdate:  mu: +0.085451392  nElectrons: 350.000000  magneticMoment: [ Abs: 12.87052  Tot: +0.00000 ]
LCAOMinimize: Iter:  21  F: -1965.9743668109576902  |grad|_K:  1.442e-03  alpha:  1.941e-02  linmin: -1.527e-03  cgtest:  1.862e-01  t[s]:    599.39
	FillingsUpdate:  mu: +0.065191682  nElectrons: 350.000000  magneticMoment: [ Abs: 13.15483  Tot: -0.00000 ]
LCAOMinimize: Iter:  22  F: -1966.0026857780990213  |grad|_K:  7.277e-04  alpha:  2.728e-02  linmin: -3.912e-03  cgtest:  6.652e-02  t[s]:    620.41
LCAOMinimize: 	Predicted alpha/alphaT>3.000000, increasing alphaT to 8.183158e-02.
	FillingsUpdate:  mu: +0.085435025  nElectrons: 350.000000  magneticMoment: [ Abs: 13.91797  Tot: +0.00000 ]
LCAOMinimize: Iter:  23  F: -1966.0455365370573872  |grad|_K:  1.489e-03  alpha:  1.635e-01  linmin: -9.653e-06  cgtest: -3.812e-03  t[s]:    647.63
	FillingsUpdate:  mu: +0.075988329  nElectrons: 350.000000  magneticMoment: [ Abs: 14.76596  Tot: -0.00000 ]
LCAOMinimize: Iter:  24  F: -1966.0912732608042006  |grad|_K:  1.629e-03  alpha:  3.778e-02  linmin: -1.906e-03  cgtest:  2.326e-01  t[s]:    669.30
	FillingsUpdate:  mu: +0.072898094  nElectrons: 350.000000  magneticMoment: [ Abs: 15.29257  Tot: -0.00000 ]
LCAOMinimize: Iter:  25  F: -1966.1346090128215565  |grad|_K:  1.276e-03  alpha:  3.167e-02  linmin: -1.463e-03  cgtest: -3.129e-01  t[s]:    691.40
	FillingsUpdate:  mu: +0.066677490  nElectrons: 350.000000  magneticMoment: [ Abs: 15.71340  Tot: +0.00000 ]
LCAOMinimize: Iter:  26  F: -1966.1570285193722611  |grad|_K:  7.389e-04  alpha:  2.613e-02  linmin: -5.456e-04  cgtest: -2.125e-01  t[s]:    713.16
	FillingsUpdate:  mu: +0.076240503  nElectrons: 350.000000  magneticMoment: [ Abs: 16.14077  Tot: -0.00000 ]
LCAOMinimize: Iter:  27  F: -1966.1715506520863528  |grad|_K:  7.930e-04  alpha:  5.072e-02  linmin: -1.714e-03  cgtest:  3.392e-02  t[s]:    735.06
	FillingsUpdate:  mu: +0.070893610  nElectrons: 350.000000  magneticMoment: [ Abs: 16.74000  Tot: -0.00000 ]
LCAOMinimize: Iter:  28  F: -1966.1847217809388439  |grad|_K:  7.287e-04  alpha:  3.932e-02  linmin: -9.651e-05  cgtest: -2.989e-01  t[s]:    756.70
	FillingsUpdate:  mu: +0.070014326  nElectrons: 350.000000  magneticMoment: [ Abs: 17.33846  Tot: +0.00000 ]
LCAOMinimize: Iter:  29  F: -1966.1923544013350238  |grad|_K:  4.622e-04  alpha:  3.080e-02  linmin: -6.916e-04  cgtest:  4.200e-01  t[s]:    778.06
	FillingsUpdate:  mu: +0.079539851  nElectrons: 350.000000  magneticMoment: [ Abs: 17.61176  Tot: +0.00000 ]
LCAOMinimize: Iter:  30  F: -1966.2021534205860007  |grad|_K:  5.805e-04  alpha:  9.073e-02  linmin: -6.006e-03  cgtest:  3.086e-02  t[s]:    799.38
LCAOMinimize: None of the convergence criteria satisfied after 30 iterations.


---- Citations for features of the code used in this run ----

   Software package:
      R. Sundararaman, K. Letchworth-Weaver, K.A. Schwarz, D. Gunceler, Y. Ozhabes and T.A. Arias, 'JDFTx: software for joint density-functional theory', SoftwareX 6, 278 (2017)

   Simplified rotationally-invariant DFT+U:
      S. L. Dudarev et al., Phys. Rev. B 57, 1505 (1998)

   LibXC library of exchange-correlation functions:
      M. A. L. Marques, M. J. T. Oliveira and T. Burnus, Comput. Phys. Commun. 183, 2272 (2012)

   Hammer, Hansen, and Norskov exchange functional:
      B. Hammer, L. B. Hansen, and J. K. Nørskov, Phys. Rev. B 59, 7413 (1999)

   Perdew, Burke & Ernzerhof correlation functional:
      J. P. Perdew, K. Burke, and M. Ernzerhof, Phys. Rev. Lett. 77, 3865 (1996)

   Pseudopotentials:
      M Schlipf and F Gygi, Comput. Phys. Commun. 196, 36 (2015)

   Total energy minimization with Auxiliary Hamiltonian:
      C. Freysoldt, S. Boeck, and J. Neugebauer, Phys. Rev. B 79, 241103(R) (2009)

This list may not be complete. Please suggest additional citations or
report any other bugs at https://github.com/shankar1729/jdftx/issues

Initialization completed successfully at t[s]:    807.13


-------- Electronic minimization -----------
	FillingsUpdate:  mu: +0.079539854  nElectrons: 350.000000  magneticMoment: [ Abs: 17.61176  Tot: +0.00000 ]
ElecMinimize: Iter:   0  F: -1966.202153420588274  |grad|_K:  6.746e-04  alpha:  1.000e+00
	FillingsUpdate:  mu: +0.370572228  nElectrons: 350.000000  magneticMoment: [ Abs: 19.15131  Tot: -0.00000 ]
	SubspaceRotationAdjust: set factor to 0.992
ElecMinimize: Iter:   1  F: -1988.746488049591335  |grad|_K:  1.031e-03  alpha:  4.680e-01  linmin:  5.371e-03  t[s]:    876.47
	FillingsUpdate:  mu: +0.861371302  nElectrons: 350.000000  magneticMoment: [ Abs: 18.41236  Tot: +0.00000 ]
	SubspaceRotationAdjust: set factor to 0.621
ElecMinimize: Iter:   2  F: -1990.055193472196606  |grad|_K:  1.343e-03  alpha:  4.810e-02  linmin:  4.149e-03  t[s]:    923.52
	FillingsUpdate:  mu: +0.399590341  nElectrons: 350.000000  magneticMoment: [ Abs: 20.20355  Tot: -0.00000 ]
	SubspaceRotationAdjust: set factor to 0.289
ElecMinimize: Iter:   3  F: -1997.935772719700253  |grad|_K:  6.977e-04  alpha:  4.251e-02  linmin:  1.255e-03  t[s]:    970.63
ElecMinimize: 	Predicted alpha/alphaT>3.000000, increasing alphaT to 1.275396e-01.
	FillingsUpdate:  mu: +0.542447269  nElectrons: 350.000000  magneticMoment: [ Abs: 20.35774  Tot: -0.00000 ]
	SubspaceRotationAdjust: set factor to 0.193
ElecMinimize: Iter:   4  F: -2007.651609509966647  |grad|_K:  7.824e-04  alpha:  1.418e-01  linmin:  1.377e-03  t[s]:   1031.10
	FillingsUpdate:  mu: +0.555556186  nElectrons: 350.000000  magneticMoment: [ Abs: 20.92659  Tot: -0.00000 ]
	SubspaceRotationAdjust: set factor to 0.183
ElecMinimize: Iter:   5  F: -2010.286189033233768  |grad|_K:  5.874e-04  alpha:  1.921e-02  linmin: -2.305e-03  t[s]:   1078.27
	FillingsUpdate:  mu: +0.519820824  nElectrons: 350.000000  magneticMoment: [ Abs: 22.00767  Tot: +0.00000 ]
	SubspaceRotationAdjust: set factor to 0.133
	SubspaceRotationAdjust: resetting CG because factor has changed by 0.132926
ElecMinimize: 	State modified externally: resetting search direction.
ElecMinimize: Iter:   6  F: -2014.074377573370384  |grad|_K:  4.384e-04  alpha:  4.421e-02
	FillingsUpdate:  mu: +0.379031719  nElectrons: 350.000000  magneticMoment: [ Abs: 21.66586  Tot: -0.00000 ]
	SubspaceRotationAdjust: set factor to 0.108
ElecMinimize: Iter:   7  F: -2018.598242004488384  |grad|_K:  3.273e-04  alpha:  1.254e-01  linmin: -9.228e-03  t[s]:   1193.71
	FillingsUpdate:  mu: +0.190131915  nElectrons: 350.000000  magneticMoment: [ Abs: 22.58224  Tot: -0.00000 ]
	SubspaceRotationAdjust: set factor to 0.0704
ElecMinimize: Iter:   8  F: -2021.122335516226258  |grad|_K:  1.578e-04  alpha:  1.178e-01  linmin: -1.772e-03  t[s]:   1241.47
	FillingsUpdate:  mu: +0.174014655  nElectrons: 350.000000  magneticMoment: [ Abs: 22.66595  Tot: -0.00000 ]
	SubspaceRotationAdjust: set factor to 0.0554
ElecMinimize: Iter:   9  F: -2022.279301367232392  |grad|_K:  9.565e-05  alpha:  2.584e-01  linmin:  7.625e-04  t[s]:   1288.97
	FillingsUpdate:  mu: +0.164190671  nElectrons: 350.000000  magneticMoment: [ Abs: 23.30236  Tot: +0.00000 ]
	SubspaceRotationAdjust: set factor to 0.0569
ElecMinimize: Iter:  10  F: -2022.770096372745684  |grad|_K:  7.672e-05  alpha:  3.218e-01  linmin:  2.860e-05  t[s]:   1336.13
	FillingsUpdate:  mu: +0.131188074  nElectrons: 350.000000  magneticMoment: [ Abs: 23.77474  Tot: -0.00000 ]
	SubspaceRotationAdjust: set factor to 0.0651
ElecMinimize: Iter:  11  F: -2023.118988321366487  |grad|_K:  5.494e-05  alpha:  3.397e-01  linmin: -2.069e-04  t[s]:   1383.59
	FillingsUpdate:  mu: +0.129434334  nElectrons: 350.000000  magneticMoment: [ Abs: 24.12672  Tot: +0.00000 ]
	SubspaceRotationAdjust: set factor to 0.0761
ElecMinimize: Iter:  12  F: -2023.305532206187991  |grad|_K:  4.665e-05  alpha:  3.441e-01  linmin: -2.464e-05  t[s]:   1430.89
	FillingsUpdate:  mu: +0.139902028  nElectrons: 350.000000  magneticMoment: [ Abs: 24.76965  Tot: -0.00000 ]
	SubspaceRotationAdjust: set factor to 0.0821
ElecMinimize: Iter:  13  F: -2023.449537776929219  |grad|_K:  4.610e-05  alpha:  3.757e-01  linmin: -1.120e-04  t[s]:   1478.31
	FillingsUpdate:  mu: +0.121883419  nElectrons: 350.000000  magneticMoment: [ Abs: 25.45588  Tot: +0.00000 ]
	SubspaceRotationAdjust: set factor to 0.0921
ElecMinimize: Iter:  14  F: -2023.584728702936673  |grad|_K:  4.357e-05  alpha:  3.517e-01  linmin: -1.636e-04  t[s]:   1525.64
	FillingsUpdate:  mu: +0.125731160  nElectrons: 350.000000  magneticMoment: [ Abs: 26.59543  Tot: -0.00000 ]
	SubspaceRotationAdjust: set factor to 0.107
ElecMinimize: Iter:  15  F: -2023.722500985902570  |grad|_K:  4.418e-05  alpha:  3.860e-01  linmin: -1.706e-04  t[s]:   1573.22
	FillingsUpdate:  mu: +0.127236299  nElectrons: 350.000000  magneticMoment: [ Abs: 28.33167  Tot: +0.00000 ]
	SubspaceRotationAdjust: set factor to 0.123
ElecMinimize: Iter:  16  F: -2023.889802110556730  |grad|_K:  5.069e-05  alpha:  4.401e-01  linmin: -1.525e-04  t[s]:   1620.69
	FillingsUpdate:  mu: +0.132204818  nElectrons: 350.000000  magneticMoment: [ Abs: 31.19685  Tot: +0.00000 ]
	SubspaceRotationAdjust: set factor to 0.13
ElecMinimize: Iter:  17  F: -2024.140852470992058  |grad|_K:  6.363e-05  alpha:  4.925e-01  linmin: -8.003e-05  t[s]:   1667.59
ElecMinimize: 	Step increased F by 8.709673e-02, reducing alpha to 2.197620e-03.
ElecMinimize: 	Step increased F by 1.196737e-01, reducing alpha to 2.197620e-04.
ElecMinimize: 	Step increased F by 1.230292e-01, reducing alpha to 2.197620e-05.
ElecMinimize: 	Step failed to reduce F after 3 attempts. Quitting step.
ElecMinimize: 	Undoing step.
ElecMinimize: 	Step failed: resetting search direction.
	FillingsUpdate:  mu: +0.124543646  nElectrons: 350.000000  magneticMoment: [ Abs: 31.19298  Tot: +0.00000 ]
	SubspaceRotationAdjust: set factor to 0.149
ElecMinimize: Iter:  18  F: -2024.017785847623372  |grad|_K:  6.415e-05  alpha:  2.198e-05
	FillingsUpdate:  mu: +0.108016742  nElectrons: 350.000000  magneticMoment: [ Abs: 31.45882  Tot: -0.00000 ]
	SubspaceRotationAdjust: set factor to 0.133
ElecMinimize: Iter:  19  F: -2024.215521627764247  |grad|_K:  4.949e-05  alpha:  2.788e-01  linmin: -1.413e-04  t[s]:   1852.68
	FillingsUpdate:  mu: +0.133184488  nElectrons: 350.000000  magneticMoment: [ Abs: 31.97868  Tot: -0.00000 ]
	SubspaceRotationAdjust: set factor to 0.103
ElecMinimize: Iter:  20  F: -2024.299052736901331  |grad|_K:  4.596e-05  alpha:  1.850e-01  linmin: -2.970e-04  t[s]:   1899.99
	FillingsUpdate:  mu: +0.135208988  nElectrons: 350.000000  magneticMoment: [ Abs: 32.63496  Tot: -0.00000 ]
	SubspaceRotationAdjust: set factor to 0.122
ElecMinimize: Iter:  21  F: -2024.424818747657127  |grad|_K:  3.782e-05  alpha:  3.281e-01  linmin: -1.025e-04  t[s]:   1946.97
	FillingsUpdate:  mu: +0.121214554  nElectrons: 350.000000  magneticMoment: [ Abs: 33.39936  Tot: +0.00000 ]
	SubspaceRotationAdjust: set factor to 0.0937
ElecMinimize: Iter:  22  F: -2024.535394976557427  |grad|_K:  5.255e-05  alpha:  4.447e-01  linmin:  2.373e-04  t[s]:   1993.82
	FillingsUpdate:  mu: +0.135592296  nElectrons: 350.000000  magneticMoment: [ Abs: 34.33179  Tot: -0.00000 ]
	SubspaceRotationAdjust: set factor to 0.0648
ElecMinimize: Iter:  23  F: -2024.599501713874361  |grad|_K:  4.728e-05  alpha:  1.725e-01  linmin:  3.729e-04  t[s]:   2040.70
	FillingsUpdate:  mu: +0.119699453  nElectrons: 350.000000  magneticMoment: [ Abs: 35.06616  Tot: -0.00000 ]
	SubspaceRotationAdjust: set factor to 0.0664
ElecMinimize: Iter:  24  F: -2024.705757941879483  |grad|_K:  3.823e-05  alpha:  3.214e-01  linmin:  1.429e-04  t[s]:   2087.42
	FillingsUpdate:  mu: +0.121349887  nElectrons: 350.000000  magneticMoment: [ Abs: 36.06266  Tot: -0.00000 ]
	SubspaceRotationAdjust: set factor to 0.0597
ElecMinimize: Iter:  25  F: -2024.781061012703958  |grad|_K:  4.593e-05  alpha:  2.921e-01  linmin:  6.552e-04  t[s]:   2134.83
	FillingsUpdate:  mu: +0.128565380  nElectrons: 350.000000  magneticMoment: [ Abs: 37.09463  Tot: +0.00000 ]
	SubspaceRotationAdjust: set factor to 0.0538
ElecMinimize: Iter:  26  F: -2024.823129874075221  |grad|_K:  5.502e-05  alpha:  1.555e-01  linmin:  4.617e-06  t[s]:   2181.75
	FillingsUpdate:  mu: +0.148461366  nElectrons: 350.000000  magneticMoment: [ Abs: 38.50311  Tot: -0.00000 ]
	SubspaceRotationAdjust: set factor to 0.0669
ElecMinimize: Iter:  27  F: -2024.918669039273937  |grad|_K:  4.841e-05  alpha:  2.006e-01  linmin:  6.877e-04  t[s]:   2228.77
	FillingsUpdate:  mu: +0.148499368  nElectrons: 350.000000  magneticMoment: [ Abs: 38.51512  Tot: -0.00000 ]
	SubspaceRotationAdjust: set factor to 0.0757
ElecMinimize: Iter:  28  F: -2024.920151325385405  |grad|_K:  4.884e-05  alpha:  2.827e-03  linmin: -1.369e-03  t[s]:   2275.37
ElecMinimize: 	Predicted alpha/alphaT>3.000000, increasing alphaT to 8.481297e-03.
ElecMinimize: 	Predicted alpha/alphaT>3.000000, increasing alphaT to 2.544389e-02.
ElecMinimize: 	Predicted alpha/alphaT>3.000000, increasing alphaT to 7.633167e-02.
	FillingsUpdate:  mu: +0.107905055  nElectrons: 350.000000  magneticMoment: [ Abs: 39.00798  Tot: +0.00000 ]
	SubspaceRotationAdjust: set factor to 0.0878
ElecMinimize: Iter:  29  F: -2024.948011249484807  |grad|_K:  3.920e-05  alpha:  8.464e-02  linmin:  2.608e-02  t[s]:   2348.67
ElecMinimize: 	Bad step direction: g.d > 0.
ElecMinimize: 	Undoing step.
ElecMinimize: 	Step failed: resetting search direction.
	FillingsUpdate:  mu: +0.107905055  nElectrons: 350.000000  magneticMoment: [ Abs: 39.00798  Tot: +0.00000 ]
	SubspaceRotationAdjust: set factor to 0.111
ElecMinimize: Iter:  30  F: -2024.948011249483443  |grad|_K:  4.032e-05  alpha:  0.000e+00
ElecMinimize: 	Predicted alpha/alphaT>3.000000, increasing alphaT to 2.539307e-01.
	FillingsUpdate:  mu: +0.149461068  nElectrons: 350.000000  magneticMoment: [ Abs: 38.95373  Tot: +0.00000 ]
	SubspaceRotationAdjust: set factor to 0.0863
ElecMinimize: Iter:  31  F: -2025.032425344383682  |grad|_K:  3.590e-05  alpha:  2.926e-01  linmin: -1.049e-02  t[s]:   2442.58
	FillingsUpdate:  mu: +0.133628476  nElectrons: 350.000000  magneticMoment: [ Abs: 39.18217  Tot: -0.00000 ]
	SubspaceRotationAdjust: set factor to 0.0612
ElecMinimize: Iter:  32  F: -2025.081959643406435  |grad|_K:  2.623e-05  alpha:  2.105e-01  linmin: -6.106e-04  t[s]:   2489.83
	FillingsUpdate:  mu: +0.108545454  nElectrons: 350.000000  magneticMoment: [ Abs: 39.69014  Tot: -0.00000 ]
	SubspaceRotationAdjust: set factor to 0.0698
ElecMinimize: Iter:  33  F: -2025.132565028854287  |grad|_K:  2.050e-05  alpha:  4.111e-01  linmin: -1.280e-03  t[s]:   2537.31
	FillingsUpdate:  mu: +0.115841791  nElectrons: 350.000000  magneticMoment: [ Abs: 40.01566  Tot: -0.00000 ]
	SubspaceRotationAdjust: set factor to 0.0809
ElecMinimize: Iter:  34  F: -2025.161654895685842  |grad|_K:  1.788e-05  alpha:  3.868e-01  linmin: -2.603e-04  t[s]:   2584.65
	FillingsUpdate:  mu: +0.122440508  nElectrons: 350.000000  magneticMoment: [ Abs: 40.26041  Tot: -0.00000 ]
	SubspaceRotationAdjust: set factor to 0.0894
ElecMinimize: Iter:  35  F: -2025.181788797742001  |grad|_K:  1.491e-05  alpha:  3.584e-01  linmin: -9.400e-05  t[s]:   2632.34
	FillingsUpdate:  mu: +0.129773482  nElectrons: 350.000000  magneticMoment: [ Abs: 40.54807  Tot: +0.00000 ]
	SubspaceRotationAdjust: set factor to 0.0954
ElecMinimize: Iter:  36  F: -2025.196473341293085  |grad|_K:  1.228e-05  alpha:  3.772e-01  linmin:  3.465e-04  t[s]:   2680.01
	FillingsUpdate:  mu: +0.128662662  nElectrons: 350.000000  magneticMoment: [ Abs: 40.80398  Tot: +0.00000 ]
	SubspaceRotationAdjust: set factor to 0.109
ElecMinimize: Iter:  37  F: -2025.206510479650433  |grad|_K:  1.111e-05  alpha:  3.841e-01  linmin: -7.653e-04  t[s]:   2727.35
	FillingsUpdate:  mu: +0.129044621  nElectrons: 350.000000  magneticMoment: [ Abs: 41.17194  Tot: +0.00000 ]
	SubspaceRotationAdjust: set factor to 0.121
ElecMinimize: Iter:  38  F: -2025.216999894608534  |grad|_K:  1.228e-05  alpha:  4.721e-01  linmin:  2.459e-05  t[s]:   2775.23
	FillingsUpdate:  mu: +0.130585733  nElectrons: 350.000000  magneticMoment: [ Abs: 41.67621  Tot: -0.00000 ]
	SubspaceRotationAdjust: set factor to 0.136
ElecMinimize: Iter:  39  F: -2025.229468398090603  |grad|_K:  1.178e-05  alpha:  4.734e-01  linmin: -1.477e-04  t[s]:   2823.02
	FillingsUpdate:  mu: +0.132636397  nElectrons: 350.000000  magneticMoment: [ Abs: 42.20127  Tot: -0.00000 ]
	SubspaceRotationAdjust: set factor to 0.157
ElecMinimize: Iter:  40  F: -2025.240780113192159  |grad|_K:  1.130e-05  alpha:  4.610e-01  linmin:  2.253e-04  t[s]:   2870.75
	FillingsUpdate:  mu: +0.133796868  nElectrons: 350.000000  magneticMoment: [ Abs: 42.66229  Tot: -0.00000 ]
	SubspaceRotationAdjust: set factor to 0.195
ElecMinimize: Iter:  41  F: -2025.249146845589848  |grad|_K:  1.051e-05  alpha:  3.835e-01  linmin: -8.314e-05  t[s]:   2917.99
	FillingsUpdate:  mu: +0.133685769  nElectrons: 350.000000  magneticMoment: [ Abs: 43.10597  Tot: +0.00000 ]
	SubspaceRotationAdjust: set factor to 0.212
ElecMinimize: Iter:  42  F: -2025.256538175515743  |grad|_K:  1.012e-05  alpha:  3.803e-01  linmin: -8.172e-05  t[s]:   2964.39
	FillingsUpdate:  mu: +0.133708282  nElectrons: 350.000000  magneticMoment: [ Abs: 43.49882  Tot: -0.00000 ]
	SubspaceRotationAdjust: set factor to 0.154
ElecMinimize: Iter:  43  F: -2025.261307516239640  |grad|_K:  1.339e-05  alpha:  2.675e-01  linmin: -1.108e-05  t[s]:   3011.09
	FillingsUpdate:  mu: +0.131460887  nElectrons: 350.000000  magneticMoment: [ Abs: 43.80880  Tot: +0.00000 ]
	SubspaceRotationAdjust: set factor to 0.115
ElecMinimize: Iter:  44  F: -2025.265978255669779  |grad|_K:  9.171e-06  alpha:  1.444e-01  linmin: -1.408e-04  t[s]:   3058.24
	FillingsUpdate:  mu: +0.127575314  nElectrons: 350.000000  magneticMoment: [ Abs: 44.34262  Tot: -0.00000 ]
	SubspaceRotationAdjust: set factor to 0.143
ElecMinimize: Iter:  45  F: -2025.271913303544807  |grad|_K:  1.035e-05  alpha:  4.141e-01  linmin:  9.248e-04  t[s]:   3105.59
	FillingsUpdate:  mu: +0.124766477  nElectrons: 350.000000  magneticMoment: [ Abs: 44.60210  Tot: +0.00000 ]
	SubspaceRotationAdjust: set factor to 0.178
ElecMinimize: Iter:  46  F: -2025.274740785392851  |grad|_K:  9.558e-06  alpha:  1.327e-01  linmin: -1.722e-03  t[s]:   3152.25
	FillingsUpdate:  mu: +0.122197064  nElectrons: 350.000000  magneticMoment: [ Abs: 44.88951  Tot: +0.00000 ]
	SubspaceRotationAdjust: set factor to 0.162
ElecMinimize: Iter:  47  F: -2025.277998100362083  |grad|_K:  1.038e-05  alpha:  1.693e-01  linmin: -1.861e-04  t[s]:   3198.66
	FillingsUpdate:  mu: +0.126521924  nElectrons: 350.000000  magneticMoment: [ Abs: 45.14955  Tot: +0.00000 ]
	SubspaceRotationAdjust: set factor to 0.218
ElecMinimize: Iter:  48  F: -2025.281120851004061  |grad|_K:  1.047e-05  alpha:  1.624e-01  linmin: -1.040e-06  t[s]:   3244.84
	FillingsUpdate:  mu: +0.132979112  nElectrons: 350.000000  magneticMoment: [ Abs: 45.35142  Tot: -0.00000 ]
	SubspaceRotationAdjust: set factor to 0.234
ElecMinimize: Iter:  49  F: -2025.283813756299196  |grad|_K:  1.019e-05  alpha:  1.401e-01  linmin:  2.926e-05  t[s]:   3291.61
	FillingsUpdate:  mu: +0.135170720  nElectrons: 350.000000  magneticMoment: [ Abs: 45.56305  Tot: +0.00000 ]
	SubspaceRotationAdjust: set factor to 0.298
ElecMinimize: Iter:  50  F: -2025.286201028901360  |grad|_K:  1.013e-05  alpha:  1.321e-01  linmin: -1.239e-05  t[s]:   3338.62
	FillingsUpdate:  mu: +0.134558937  nElectrons: 350.000000  magneticMoment: [ Abs: 45.79812  Tot: +0.00000 ]
	SubspaceRotationAdjust: set factor to 0.359
ElecMinimize: Iter:  51  F: -2025.288625302216133  |grad|_K:  1.031e-05  alpha:  1.347e-01  linmin: -1.436e-04  t[s]:   3385.18
	FillingsUpdate:  mu: +0.130277021  nElectrons: 350.000000  magneticMoment: [ Abs: 46.01238  Tot: +0.00000 ]
	SubspaceRotationAdjust: set factor to 0.386
ElecMinimize: Iter:  52  F: -2025.291072372407598  |grad|_K:  1.084e-05  alpha:  1.287e-01  linmin: -4.376e-05  t[s]:   3431.78
	FillingsUpdate:  mu: +0.129716555  nElectrons: 350.000000  magneticMoment: [ Abs: 46.19685  Tot: -0.00000 ]
	SubspaceRotationAdjust: set factor to 0.474
ElecMinimize: Iter:  53  F: -2025.293453239216205  |grad|_K:  1.002e-05  alpha:  1.150e-01  linmin: -1.498e-05  t[s]:   3478.21
	FillingsUpdate:  mu: +0.130811482  nElectrons: 350.000000  magneticMoment: [ Abs: 46.36883  Tot: +0.00000 ]
	SubspaceRotationAdjust: set factor to 0.57
ElecMinimize: Iter:  54  F: -2025.295875895558083  |grad|_K:  1.113e-05  alpha:  1.378e-01  linmin:  2.178e-05  t[s]:   3524.94
	FillingsUpdate:  mu: +0.128442172  nElectrons: 350.000000  magneticMoment: [ Abs: 46.50554  Tot: +0.00000 ]
	SubspaceRotationAdjust: set factor to 0.618
ElecMinimize: Iter:  55  F: -2025.297789453594532  |grad|_K:  1.190e-05  alpha:  8.437e-02  linmin: -7.295e-05  t[s]:   3571.79
	FillingsUpdate:  mu: +0.130549127  nElectrons: 350.000000  magneticMoment: [ Abs: 46.64182  Tot: +0.00000 ]
	SubspaceRotationAdjust: set factor to 0.843
ElecMinimize: Iter:  56  F: -2025.299662168531540  |grad|_K:  1.069e-05  alpha:  7.498e-02  linmin: -1.037e-04  t[s]:   3618.49
	FillingsUpdate:  mu: +0.132508324  nElectrons: 350.000000  magneticMoment: [ Abs: 46.75013  Tot: +0.00000 ]
	SubspaceRotationAdjust: set factor to 0.778
ElecMinimize: Iter:  57  F: -2025.301335796204967  |grad|_K:  1.259e-05  alpha:  8.144e-02  linmin: -2.462e-04  t[s]:   3664.98
	FillingsUpdate:  mu: +0.129047439  nElectrons: 350.000000  magneticMoment: [ Abs: 46.84128  Tot: +0.00000 ]
	SubspaceRotationAdjust: set factor to 0.707
ElecMinimize: Iter:  58  F: -2025.302778547309345  |grad|_K:  1.202e-05  alpha:  4.912e-02  linmin:  2.805e-06  t[s]:   3711.33
	FillingsUpdate:  mu: +0.129810689  nElectrons: 350.000000  magneticMoment: [ Abs: 46.92566  Tot: +0.00000 ]
	SubspaceRotationAdjust: set factor to 0.906
ElecMinimize: Iter:  59  F: -2025.304585629009352  |grad|_K:  9.987e-06  alpha:  7.090e-02  linmin: -8.401e-05  t[s]:   3758.48
	FillingsUpdate:  mu: +0.130185558  nElectrons: 350.000000  magneticMoment: [ Abs: 46.97604  Tot: +0.00000 ]
	SubspaceRotationAdjust: set factor to 1.01
	SubspaceRotationAdjust: resetting CG because factor has changed by 7.5715
ElecMinimize: 	State modified externally: resetting search direction.
ElecMinimize: Iter:  60  F: -2025.306155756551334  |grad|_K:  1.083e-05  alpha:  8.793e-02
	FillingsUpdate:  mu: +0.124073717  nElectrons: 350.000000  magneticMoment: [ Abs: 46.97877  Tot: -0.00000 ]
	SubspaceRotationAdjust: set factor to 0.621
ElecMinimize: Iter:  61  F: -2025.307202684885624  |grad|_K:  1.500e-05  alpha:  5.053e-02  linmin: -6.949e-05  t[s]:   3871.96
	FillingsUpdate:  mu: +0.133998442  nElectrons: 350.000000  magneticMoment: [ Abs: 46.97297  Tot: +0.00000 ]
	SubspaceRotationAdjust: set factor to 0.499
ElecMinimize: Iter:  62  F: -2025.310555165064216  |grad|_K:  8.424e-06  alpha:  8.468e-02  linmin: -1.037e-04  t[s]:   3918.30
	FillingsUpdate:  mu: +0.131560148  nElectrons: 350.000000  magneticMoment: [ Abs: 46.99425  Tot: -0.00000 ]
	SubspaceRotationAdjust: set factor to 0.367
ElecMinimize: Iter:  63  F: -2025.312449267934426  |grad|_K:  7.591e-06  alpha:  1.508e-01  linmin: -2.104e-04  t[s]:   3964.79
	FillingsUpdate:  mu: +0.132303255  nElectrons: 350.000000  magneticMoment: [ Abs: 46.97377  Tot: +0.00000 ]
	SubspaceRotationAdjust: set factor to 0.253
ElecMinimize: Iter:  64  F: -2025.314562127468207  |grad|_K:  7.858e-06  alpha:  2.058e-01  linmin: -1.341e-04  t[s]:   4011.97
	FillingsUpdate:  mu: +0.127804930  nElectrons: 350.000000  magneticMoment: [ Abs: 46.95568  Tot: -0.00000 ]
	SubspaceRotationAdjust: set factor to 0.218
ElecMinimize: Iter:  65  F: -2025.315655810335784  |grad|_K:  6.251e-06  alpha:  8.889e-02  linmin: -1.038e-03  t[s]:   4058.41
	FillingsUpdate:  mu: +0.134007009  nElectrons: 350.000000  magneticMoment: [ Abs: 46.93790  Tot: +0.00000 ]
	SubspaceRotationAdjust: set factor to 0.178
ElecMinimize: Iter:  66  F: -2025.317151367956512  |grad|_K:  5.581e-06  alpha:  2.005e-01  linmin: -2.532e-04  t[s]:   4105.39
	FillingsUpdate:  mu: +0.136062854  nElectrons: 350.000000  magneticMoment: [ Abs: 46.94905  Tot: +0.00000 ]
	SubspaceRotationAdjust: set factor to 0.154
ElecMinimize: Iter:  67  F: -2025.317992565766872  |grad|_K:  5.425e-06  alpha:  1.571e-01  linmin: -4.283e-04  t[s]:   4152.01
	FillingsUpdate:  mu: +0.132108735  nElectrons: 350.000000  magneticMoment: [ Abs: 46.98600  Tot: +0.00000 ]
	SubspaceRotationAdjust: set factor to 0.176
ElecMinimize: Iter:  68  F: -2025.319503073377973  |grad|_K:  4.738e-06  alpha:  2.959e-01  linmin:  8.348e-04  t[s]:   4198.49
	FillingsUpdate:  mu: +0.126384262  nElectrons: 350.000000  magneticMoment: [ Abs: 46.98606  Tot: -0.00000 ]
	SubspaceRotationAdjust: set factor to 0.154
ElecMinimize: Iter:  69  F: -2025.320427444231427  |grad|_K:  4.778e-06  alpha:  2.528e-01  linmin:  9.812e-05  t[s]:   4245.86
	FillingsUpdate:  mu: +0.131399062  nElectrons: 350.000000  magneticMoment: [ Abs: 46.97418  Tot: -0.00000 ]
	SubspaceRotationAdjust: set factor to 0.198
ElecMinimize: Iter:  70  F: -2025.321218541527742  |grad|_K:  3.655e-06  alpha:  2.022e-01  linmin: -2.539e-04  t[s]:   4292.86
	FillingsUpdate:  mu: +0.132320077  nElectrons: 350.000000  magneticMoment: [ Abs: 46.97339  Tot: -0.00000 ]
	SubspaceRotationAdjust: set factor to 0.22
ElecMinimize: Iter:  71  F: -2025.321888808181029  |grad|_K:  3.528e-06  alpha:  2.793e-01  linmin: -6.189e-04  t[s]:   4340.17
	FillingsUpdate:  mu: +0.131562929  nElectrons: 350.000000  magneticMoment: [ Abs: 46.99215  Tot: +0.00000 ]
	SubspaceRotationAdjust: set factor to 0.218
ElecMinimize: Iter:  72  F: -2025.322476558395465  |grad|_K:  3.637e-06  alpha:  2.617e-01  linmin: -3.324e-05  t[s]:   4387.19
	FillingsUpdate:  mu: +0.131309265  nElectrons: 350.000000  magneticMoment: [ Abs: 47.02227  Tot: +0.00000 ]
	SubspaceRotationAdjust: set factor to 0.269
ElecMinimize: Iter:  73  F: -2025.323144560687524  |grad|_K:  3.277e-06  alpha:  2.873e-01  linmin: -2.625e-04  t[s]:   4433.92
	FillingsUpdate:  mu: +0.132406646  nElectrons: 350.000000  magneticMoment: [ Abs: 47.04095  Tot: +0.00000 ]
	SubspaceRotationAdjust: set factor to 0.268
ElecMinimize: Iter:  74  F: -2025.323666297673071  |grad|_K:  3.259e-06  alpha:  2.726e-01  linmin: -1.408e-04  t[s]:   4481.32
	FillingsUpdate:  mu: +0.131653294  nElectrons: 350.000000  magneticMoment: [ Abs: 47.06388  Tot: +0.00000 ]
	SubspaceRotationAdjust: set factor to 0.241
ElecMinimize: Iter:  75  F: -2025.324070936953831  |grad|_K:  2.923e-06  alpha:  2.147e-01  linmin:  3.311e-05  t[s]:   4528.42
	FillingsUpdate:  mu: +0.131067669  nElectrons: 350.000000  magneticMoment: [ Abs: 47.10923  Tot: +0.00000 ]
	SubspaceRotationAdjust: set factor to 0.294
ElecMinimize: Iter:  76  F: -2025.324497449335695  |grad|_K:  2.409e-06  alpha:  2.857e-01  linmin: -5.773e-05  t[s]:   4575.41
	FillingsUpdate:  mu: +0.131328834  nElectrons: 350.000000  magneticMoment: [ Abs: 47.14614  Tot: -0.00000 ]
	SubspaceRotationAdjust: set factor to 0.307
ElecMinimize: Iter:  77  F: -2025.324784078104813  |grad|_K:  2.339e-06  alpha:  2.809e-01  linmin: -5.137e-05  t[s]:   4622.13
	FillingsUpdate:  mu: +0.130660604  nElectrons: 350.000000  magneticMoment: [ Abs: 47.17424  Tot: -0.00000 ]
	SubspaceRotationAdjust: set factor to 0.276
ElecMinimize: Iter:  78  F: -2025.324993169758500  |grad|_K:  2.178e-06  alpha:  2.172e-01  linmin:  1.628e-05  t[s]:   4668.80
	FillingsUpdate:  mu: +0.131629247  nElectrons: 350.000000  magneticMoment: [ Abs: 47.21068  Tot: -0.00000 ]
	SubspaceRotationAdjust: set factor to 0.307
ElecMinimize: Iter:  79  F: -2025.325222037850608  |grad|_K:  1.926e-06  alpha:  2.758e-01  linmin: -5.176e-05  t[s]:   4715.69
	FillingsUpdate:  mu: +0.131352745  nElectrons: 350.000000  magneticMoment: [ Abs: 47.25780  Tot: -0.00000 ]
	SubspaceRotationAdjust: set factor to 0.354
ElecMinimize: Iter:  80  F: -2025.325425073221595  |grad|_K:  1.756e-06  alpha:  3.111e-01  linmin: -4.312e-05  t[s]:   4761.96
	FillingsUpdate:  mu: +0.130392811  nElectrons: 350.000000  magneticMoment: [ Abs: 47.29385  Tot: +0.00000 ]
	SubspaceRotationAdjust: set factor to 0.333
ElecMinimize: Iter:  81  F: -2025.325570037318130  |grad|_K:  1.934e-06  alpha:  2.671e-01  linmin:  6.139e-05  t[s]:   4808.67
	FillingsUpdate:  mu: +0.131789078  nElectrons: 350.000000  magneticMoment: [ Abs: 47.32142  Tot: -0.00000 ]
	SubspaceRotationAdjust: set factor to 0.31
ElecMinimize: Iter:  82  F: -2025.325697205841834  |grad|_K:  1.726e-06  alpha:  1.964e-01  linmin: -2.287e-05  t[s]:   4855.39
	FillingsUpdate:  mu: +0.131536286  nElectrons: 350.000000  magneticMoment: [ Abs: 47.36115  Tot: +0.00000 ]
	SubspaceRotationAdjust: set factor to 0.353
ElecMinimize: Iter:  83  F: -2025.325863777216227  |grad|_K:  1.723e-06  alpha:  3.204e-01  linmin:  9.439e-05  t[s]:   4902.61
	FillingsUpdate:  mu: +0.130839348  nElectrons: 350.000000  magneticMoment: [ Abs: 47.41199  Tot: -0.00000 ]
	SubspaceRotationAdjust: set factor to 0.394
ElecMinimize: Iter:  84  F: -2025.326053436221628  |grad|_K:  1.952e-06  alpha:  3.690e-01  linmin:  6.674e-05  t[s]:   4949.80
	FillingsUpdate:  mu: +0.131997912  nElectrons: 350.000000  magneticMoment: [ Abs: 47.44366  Tot: +0.00000 ]
	SubspaceRotationAdjust: set factor to 0.359
ElecMinimize: Iter:  85  F: -2025.326215246832135  |grad|_K:  2.226e-06  alpha:  2.486e-01  linmin: -8.795e-06  t[s]:   4996.68
	FillingsUpdate:  mu: +0.131640801  nElectrons: 350.000000  magneticMoment: [ Abs: 47.47258  Tot: -0.00000 ]
	SubspaceRotationAdjust: set factor to 0.304
ElecMinimize: Iter:  86  F: -2025.326384161350916  |grad|_K:  2.069e-06  alpha:  1.916e-01  linmin:  1.014e-04  t[s]:   5044.04
	FillingsUpdate:  mu: +0.132053485  nElectrons: 350.000000  magneticMoment: [ Abs: 47.50553  Tot: +0.00000 ]
	SubspaceRotationAdjust: set factor to 0.38
ElecMinimize: Iter:  87  F: -2025.326608568869688  |grad|_K:  1.981e-06  alpha:  3.014e-01  linmin: -9.555e-05  t[s]:   5090.74
	FillingsUpdate:  mu: +0.132082613  nElectrons: 350.000000  magneticMoment: [ Abs: 47.52964  Tot: -0.00000 ]
	SubspaceRotationAdjust: set factor to 0.396
ElecMinimize: Iter:  88  F: -2025.326819336681865  |grad|_K:  2.036e-06  alpha:  3.034e-01  linmin: -1.862e-04  t[s]:   5137.82
	FillingsUpdate:  mu: +0.130467023  nElectrons: 350.000000  magneticMoment: [ Abs: 47.53832  Tot: +0.00000 ]
	SubspaceRotationAdjust: set factor to 0.339
ElecMinimize: Iter:  89  F: -2025.326963924129814  |grad|_K:  2.163e-06  alpha:  1.897e-01  linmin: -3.584e-05  t[s]:   5184.26
	FillingsUpdate:  mu: +0.131560863  nElectrons: 350.000000  magneticMoment: [ Abs: 47.53183  Tot: -0.00000 ]
	SubspaceRotationAdjust: set factor to 0.367
ElecMinimize: Iter:  90  F: -2025.327130420044568  |grad|_K:  1.773e-06  alpha:  2.024e-01  linmin: -1.024e-04  t[s]:   5230.97
	FillingsUpdate:  mu: +0.131669598  nElectrons: 350.000000  magneticMoment: [ Abs: 47.52381  Tot: +0.00000 ]
	SubspaceRotationAdjust: set factor to 0.429
ElecMinimize: Iter:  91  F: -2025.327299301853373  |grad|_K:  1.710e-06  alpha:  3.022e-01  linmin: -7.836e-05  t[s]:   5277.92
	FillingsUpdate:  mu: +0.130393741  nElectrons: 350.000000  magneticMoment: [ Abs: 47.51560  Tot: -0.00000 ]
	SubspaceRotationAdjust: set factor to 0.374
ElecMinimize: Iter:  92  F: -2025.327403666733744  |grad|_K:  1.896e-06  alpha:  2.006e-01  linmin:  2.356e-06  t[s]:   5324.62
	FillingsUpdate:  mu: +0.131785464  nElectrons: 350.000000  magneticMoment: [ Abs: 47.49304  Tot: +0.00000 ]
	SubspaceRotationAdjust: set factor to 0.378
ElecMinimize: Iter:  93  F: -2025.327505798976290  |grad|_K:  1.420e-06  alpha:  1.632e-01  linmin: -4.574e-05  t[s]:   5371.60
	FillingsUpdate:  mu: +0.132019075  nElectrons: 350.000000  magneticMoment: [ Abs: 47.46466  Tot: +0.00000 ]
	SubspaceRotationAdjust: set factor to 0.464
ElecMinimize: Iter:  94  F: -2025.327614933961286  |grad|_K:  1.348e-06  alpha:  3.080e-01  linmin:  1.323e-06  t[s]:   5418.73
	FillingsUpdate:  mu: +0.131115597  nElectrons: 350.000000  magneticMoment: [ Abs: 47.44779  Tot: -0.00000 ]
	SubspaceRotationAdjust: set factor to 0.403
ElecMinimize: Iter:  95  F: -2025.327688372712601  |grad|_K:  1.542e-06  alpha:  2.304e-01  linmin:  1.499e-05  t[s]:   5465.36
	FillingsUpdate:  mu: +0.132199242  nElectrons: 350.000000  magneticMoment: [ Abs: 47.42518  Tot: -0.00000 ]
	SubspaceRotationAdjust: set factor to 0.352
ElecMinimize: Iter:  96  F: -2025.327748450661602  |grad|_K:  1.281e-06  alpha:  1.465e-01  linmin:  1.428e-05  t[s]:   5511.95
	FillingsUpdate:  mu: +0.132159283  nElectrons: 350.000000  magneticMoment: [ Abs: 47.39471  Tot: +0.00000 ]
	SubspaceRotationAdjust: set factor to 0.422
ElecMinimize: Iter:  97  F: -2025.327825053136849  |grad|_K:  1.106e-06  alpha:  2.684e-01  linmin:  6.728e-05  t[s]:   5558.78
	FillingsUpdate:  mu: +0.131592292  nElectrons: 350.000000  magneticMoment: [ Abs: 47.37144  Tot: -0.00000 ]
	SubspaceRotationAdjust: set factor to 0.431
ElecMinimize: Iter:  98  F: -2025.327887384735959  |grad|_K:  1.251e-06  alpha:  2.947e-01  linmin:  7.910e-05  t[s]:   5605.97
	FillingsUpdate:  mu: +0.132351876  nElectrons: 350.000000  magneticMoment: [ Abs: 47.35316  Tot: -0.00000 ]
	SubspaceRotationAdjust: set factor to 0.366
ElecMinimize: Iter:  99  F: -2025.327929239765808  |grad|_K:  1.169e-06  alpha:  1.579e-01  linmin:  7.548e-05  t[s]:   5652.68
	FillingsUpdate:  mu: +0.131945893  nElectrons: 350.000000  magneticMoment: [ Abs: 47.33527  Tot: -0.00000 ]
	SubspaceRotationAdjust: set factor to 0.407
ElecMinimize: Iter: 100  F: -2025.327985937209633  |grad|_K:  1.010e-06  alpha:  2.402e-01  linmin:  7.224e-05  t[s]:   5700.02
	FillingsUpdate:  mu: +0.131916565  nElectrons: 350.000000  magneticMoment: [ Abs: 47.31598  Tot: -0.00000 ]
	SubspaceRotationAdjust: set factor to 0.479
ElecMinimize: Iter: 101  F: -2025.328042492129498  |grad|_K:  1.001e-06  alpha:  3.198e-01  linmin:  1.321e-05  t[s]:   5747.54
	FillingsUpdate:  mu: +0.132322221  nElectrons: 350.000000  magneticMoment: [ Abs: 47.30457  Tot: +0.00000 ]
	SubspaceRotationAdjust: set factor to 0.455
ElecMinimize: Iter: 102  F: -2025.328088747585070  |grad|_K:  1.167e-06  alpha:  2.649e-01  linmin: -4.443e-05  t[s]:   5794.94
	FillingsUpdate:  mu: +0.131732241  nElectrons: 350.000000  magneticMoment: [ Abs: 47.30377  Tot: -0.00000 ]
	SubspaceRotationAdjust: set factor to 0.382
ElecMinimize: Iter: 103  F: -2025.328124920105438  |grad|_K:  1.098e-06  alpha:  1.493e-01  linmin: -4.532e-05  t[s]:   5842.76
	FillingsUpdate:  mu: +0.132132134  nElectrons: 350.000000  magneticMoment: [ Abs: 47.30164  Tot: -0.00000 ]
	SubspaceRotationAdjust: set factor to 0.436
ElecMinimize: Iter: 104  F: -2025.328177317747304  |grad|_K:  9.639e-07  alpha:  2.470e-01  linmin: -2.529e-05  t[s]:   5890.12
	FillingsUpdate:  mu: +0.132272811  nElectrons: 350.000000  magneticMoment: [ Abs: 47.30355  Tot: +0.00000 ]
	SubspaceRotationAdjust: set factor to 0.505
ElecMinimize: Iter: 105  F: -2025.328230046434328  |grad|_K:  1.002e-06  alpha:  3.235e-01  linmin: -5.335e-06  t[s]:   5937.27
	FillingsUpdate:  mu: +0.131432863  nElectrons: 350.000000  magneticMoment: [ Abs: 47.31362  Tot: -0.00000 ]
	SubspaceRotationAdjust: set factor to 0.414
ElecMinimize: Iter: 106  F: -2025.328268154290072  |grad|_K:  1.250e-06  alpha:  2.159e-01  linmin:  2.197e-07  t[s]:   5983.96
	FillingsUpdate:  mu: +0.132106363  nElectrons: 350.000000  magneticMoment: [ Abs: 47.32259  Tot: -0.00000 ]
	SubspaceRotationAdjust: set factor to 0.36
ElecMinimize: Iter: 107  F: -2025.328308021762950  |grad|_K:  1.025e-06  alpha:  1.462e-01  linmin: -4.162e-07  t[s]:   6030.53
	FillingsUpdate:  mu: +0.132085729  nElectrons: 350.000000  magneticMoment: [ Abs: 47.33836  Tot: -0.00000 ]
	SubspaceRotationAdjust: set factor to 0.443
ElecMinimize: Iter: 108  F: -2025.328365312238702  |grad|_K:  9.827e-07  alpha:  3.120e-01  linmin:  1.925e-05  t[s]:   6077.41
	FillingsUpdate:  mu: +0.131505741  nElectrons: 350.000000  magneticMoment: [ Abs: 47.35455  Tot: +0.00000 ]
	SubspaceRotationAdjust: set factor to 0.44
ElecMinimize: Iter: 109  F: -2025.328414337207960  |grad|_K:  1.172e-06  alpha:  2.910e-01  linmin:  2.106e-05  t[s]:   6123.86
	FillingsUpdate:  mu: +0.132066318  nElectrons: 350.000000  magneticMoment: [ Abs: 47.36528  Tot: -0.00000 ]
	SubspaceRotationAdjust: set factor to 0.371
ElecMinimize: Iter: 110  F: -2025.328450336546894  |grad|_K:  1.124e-06  alpha:  1.513e-01  linmin:  2.175e-05  t[s]:   6171.05
	FillingsUpdate:  mu: +0.131724978  nElectrons: 350.000000  magneticMoment: [ Abs: 47.38674  Tot: -0.00000 ]
	SubspaceRotationAdjust: set factor to 0.408
ElecMinimize: Iter: 111  F: -2025.328505140755624  |grad|_K:  1.019e-06  alpha:  2.492e-01  linmin:  3.205e-05  t[s]:   6218.14
	FillingsUpdate:  mu: +0.131752542  nElectrons: 350.000000  magneticMoment: [ Abs: 47.40338  Tot: -0.00000 ]
	SubspaceRotationAdjust: set factor to 0.477
ElecMinimize: Iter: 112  F: -2025.328563469023720  |grad|_K:  1.043e-06  alpha:  3.232e-01  linmin:  2.212e-05  t[s]:   6264.68
	FillingsUpdate:  mu: +0.132096627  nElectrons: 350.000000  magneticMoment: [ Abs: 47.41374  Tot: +0.00000 ]
	SubspaceRotationAdjust: set factor to 0.412
ElecMinimize: Iter: 113  F: -2025.328609292217834  |grad|_K:  1.300e-06  alpha:  2.424e-01  linmin: -1.604e-05  t[s]:   6310.74
	FillingsUpdate:  mu: +0.131384774  nElectrons: 350.000000  magneticMoment: [ Abs: 47.42620  Tot: -0.00000 ]
	SubspaceRotationAdjust: set factor to 0.344
ElecMinimize: Iter: 114  F: -2025.328651023157136  |grad|_K:  1.079e-06  alpha:  1.391e-01  linmin: -2.954e-05  t[s]:   6357.12
	FillingsUpdate:  mu: +0.131565775  nElectrons: 350.000000  magneticMoment: [ Abs: 47.43502  Tot: +0.00000 ]
	SubspaceRotationAdjust: set factor to 0.428
ElecMinimize: Iter: 115  F: -2025.328710208049870  |grad|_K:  1.014e-06  alpha:  2.892e-01  linmin: -5.810e-06  t[s]:   6403.74
	FillingsUpdate:  mu: +0.131979013  nElectrons: 350.000000  magneticMoment: [ Abs: 47.43381  Tot: -0.00000 ]
	SubspaceRotationAdjust: set factor to 0.447
ElecMinimize: Iter: 116  F: -2025.328762763669602  |grad|_K:  1.126e-06  alpha:  2.919e-01  linmin: -1.463e-05  t[s]:   6450.73
	FillingsUpdate:  mu: +0.131314547  nElectrons: 350.000000  magneticMoment: [ Abs: 47.43404  Tot: +0.00000 ]
	SubspaceRotationAdjust: set factor to 0.382
ElecMinimize: Iter: 117  F: -2025.328797320409649  |grad|_K:  1.115e-06  alpha:  1.535e-01  linmin: -3.642e-05  t[s]:   6497.85
	FillingsUpdate:  mu: +0.131705127  nElectrons: 350.000000  magneticMoment: [ Abs: 47.42810  Tot: +0.00000 ]
	SubspaceRotationAdjust: set factor to 0.429
ElecMinimize: Iter: 118  F: -2025.328844241175148  |grad|_K:  9.281e-07  alpha:  2.137e-01  linmin: -7.715e-05  t[s]:   6544.51
	FillingsUpdate:  mu: +0.131901562  nElectrons: 350.000000  magneticMoment: [ Abs: 47.41626  Tot: +0.00000 ]
	SubspaceRotationAdjust: set factor to 0.507
ElecMinimize: Iter: 119  F: -2025.328892437812101  |grad|_K:  9.412e-07  alpha:  3.158e-01  linmin: -8.484e-06  t[s]:   6590.91
	FillingsUpdate:  mu: +0.131262655  nElectrons: 350.000000  magneticMoment: [ Abs: 47.40744  Tot: -0.00000 ]
	SubspaceRotationAdjust: set factor to 0.412
ElecMinimize: Iter: 120  F: -2025.328923815986400  |grad|_K:  1.126e-06  alpha:  2.013e-01  linmin: -3.780e-06  t[s]:   6637.86
	FillingsUpdate:  mu: +0.131993328  nElectrons: 350.000000  magneticMoment: [ Abs: 47.39363  Tot: -0.00000 ]
	SubspaceRotationAdjust: set factor to 0.389
ElecMinimize: Iter: 121  F: -2025.328955633532587  |grad|_K:  8.745e-07  alpha:  1.443e-01  linmin: -1.216e-05  t[s]:   6684.76
	FillingsUpdate:  mu: +0.131877747  nElectrons: 350.000000  magneticMoment: [ Abs: 47.37878  Tot: -0.00000 ]
	SubspaceRotationAdjust: set factor to 0.483
ElecMinimize: Iter: 122  F: -2025.328994983706480  |grad|_K:  8.163e-07  alpha:  2.937e-01  linmin: -1.153e-06  t[s]:   6730.95
	FillingsUpdate:  mu: +0.131403730  nElectrons: 350.000000  magneticMoment: [ Abs: 47.36399  Tot: -0.00000 ]
	SubspaceRotationAdjust: set factor to 0.475
ElecMinimize: Iter: 123  F: -2025.329027074789792  |grad|_K:  9.465e-07  alpha:  2.753e-01  linmin:  3.905e-06  t[s]:   6777.50
	FillingsUpdate:  mu: +0.132038895  nElectrons: 350.000000  magneticMoment: [ Abs: 47.35051  Tot: +0.00000 ]
	SubspaceRotationAdjust: set factor to 0.409
ElecMinimize: Iter: 124  F: -2025.329049763931380  |grad|_K:  8.949e-07  alpha:  1.469e-01  linmin:  4.629e-05  t[s]:   6824.38
	FillingsUpdate:  mu: +0.131773460  nElectrons: 350.000000  magneticMoment: [ Abs: 47.33805  Tot: -0.00000 ]
	SubspaceRotationAdjust: set factor to 0.472
ElecMinimize: Iter: 125  F: -2025.329081778038926  |grad|_K:  7.686e-07  alpha:  2.301e-01  linmin:  6.935e-06  t[s]:   6871.00
	FillingsUpdate:  mu: +0.131629572  nElectrons: 350.000000  magneticMoment: [ Abs: 47.32658  Tot: +0.00000 ]
	SubspaceRotationAdjust: set factor to 0.554
ElecMinimize: Iter: 126  F: -2025.329113242974245  |grad|_K:  7.832e-07  alpha:  3.050e-01  linmin:  8.508e-06  t[s]:   6917.23
	FillingsUpdate:  mu: +0.132117954  nElectrons: 350.000000  magneticMoment: [ Abs: 47.31736  Tot: -0.00000 ]
	SubspaceRotationAdjust: set factor to 0.477
ElecMinimize: Iter: 127  F: -2025.329135285461007  |grad|_K:  9.230e-07  alpha:  2.071e-01  linmin: -2.929e-06  t[s]:   6964.26
	FillingsUpdate:  mu: +0.131695136  nElectrons: 350.000000  magneticMoment: [ Abs: 47.31452  Tot: -0.00000 ]
	SubspaceRotationAdjust: set factor to 0.425
ElecMinimize: Iter: 128  F: -2025.329156236653262  |grad|_K:  7.396e-07  alpha:  1.401e-01  linmin:  5.064e-07  t[s]:   7010.78
	FillingsUpdate:  mu: +0.131832190  nElectrons: 350.000000  magneticMoment: [ Abs: 47.31334  Tot: -0.00000 ]
	SubspaceRotationAdjust: set factor to 0.521
ElecMinimize: Iter: 129  F: -2025.329181912404692  |grad|_K:  6.637e-07  alpha:  2.682e-01  linmin: -1.237e-05  t[s]:   7057.36
	FillingsUpdate:  mu: +0.132059347  nElectrons: 350.000000  magneticMoment: [ Abs: 47.31293  Tot: -0.00000 ]
	SubspaceRotationAdjust: set factor to 0.573
ElecMinimize: Iter: 130  F: -2025.329203307560192  |grad|_K:  7.111e-07  alpha:  2.772e-01  linmin: -2.827e-05  t[s]:   7104.54
	FillingsUpdate:  mu: +0.131559060  nElectrons: 350.000000  magneticMoment: [ Abs: 47.31671  Tot: -0.00000 ]
	SubspaceRotationAdjust: set factor to 0.496
ElecMinimize: Iter: 131  F: -2025.329216525918355  |grad|_K:  7.308e-07  alpha:  1.471e-01  linmin: -4.291e-05  t[s]:   7151.51
	FillingsUpdate:  mu: +0.131853658  nElectrons: 350.000000  magneticMoment: [ Abs: 47.32210  Tot: +0.00000 ]
	SubspaceRotationAdjust: set factor to 0.548
ElecMinimize: Iter: 132  F: -2025.329234277337036  |grad|_K:  5.840e-07  alpha:  1.885e-01  linmin: -6.190e-05  t[s]:   7198.19
	FillingsUpdate:  mu: +0.131852048  nElectrons: 350.000000  magneticMoment: [ Abs: 47.33117  Tot: -0.00000 ]
	SubspaceRotationAdjust: set factor to 0.668
ElecMinimize: Iter: 133  F: -2025.329251990524881  |grad|_K:  5.554e-07  alpha:  2.949e-01  linmin:  2.338e-05  t[s]:   7244.35
	FillingsUpdate:  mu: +0.131639945  nElectrons: 350.000000  magneticMoment: [ Abs: 47.33954  Tot: -0.00000 ]
	SubspaceRotationAdjust: set factor to 0.678
ElecMinimize: Iter: 134  F: -2025.329266335344300  |grad|_K:  6.220e-07  alpha:  2.666e-01  linmin:  2.075e-05  t[s]:   7290.81
	FillingsUpdate:  mu: +0.131956562  nElectrons: 350.000000  magneticMoment: [ Abs: 47.34437  Tot: -0.00000 ]
	SubspaceRotationAdjust: set factor to 0.582
ElecMinimize: Iter: 135  F: -2025.329274838687979  |grad|_K:  6.570e-07  alpha:  1.272e-01  linmin:  3.408e-05  t[s]:   7337.34
	FillingsUpdate:  mu: +0.131659046  nElectrons: 350.000000  magneticMoment: [ Abs: 47.35404  Tot: -0.00000 ]
	SubspaceRotationAdjust: set factor to 0.564
ElecMinimize: Iter: 136  F: -2025.329286109087661  |grad|_K:  5.351e-07  alpha:  1.503e-01  linmin:  3.953e-05  t[s]:   7384.33
	FillingsUpdate:  mu: +0.131823065  nElectrons: 350.000000  magneticMoment: [ Abs: 47.36078  Tot: -0.00000 ]
	SubspaceRotationAdjust: set factor to 0.615
ElecMinimize: Iter: 137  F: -2025.329297668597064  |grad|_K:  4.875e-07  alpha:  2.322e-01  linmin: -1.133e-07  t[s]:   7431.25
	FillingsUpdate:  mu: +0.131883848  nElectrons: 350.000000  magneticMoment: [ Abs: 47.36706  Tot: +0.00000 ]
	SubspaceRotationAdjust: set factor to 0.696
ElecMinimize: Iter: 138  F: -2025.329308326766522  |grad|_K:  4.731e-07  alpha:  2.564e-01  linmin: -1.559e-06  t[s]:   7477.74
	FillingsUpdate:  mu: +0.131539502  nElectrons: 350.000000  magneticMoment: [ Abs: 47.37277  Tot: +0.00000 ]
	SubspaceRotationAdjust: set factor to 0.567
ElecMinimize: Iter: 139  F: -2025.329316883529373  |grad|_K:  5.886e-07  alpha:  2.183e-01  linmin:  1.702e-05  t[s]:   7524.54
	FillingsUpdate:  mu: +0.131860265  nElectrons: 350.000000  magneticMoment: [ Abs: 47.37381  Tot: -0.00000 ]
	SubspaceRotationAdjust: set factor to 0.466
ElecMinimize: Iter: 140  F: -2025.329323101693035  |grad|_K:  5.050e-07  alpha:  1.032e-01  linmin:  9.733e-06  t[s]:   7571.18
	FillingsUpdate:  mu: +0.131855875  nElectrons: 350.000000  magneticMoment: [ Abs: 47.37503  Tot: +0.00000 ]
	SubspaceRotationAdjust: set factor to 0.564
ElecMinimize: Iter: 141  F: -2025.329332873073099  |grad|_K:  4.360e-07  alpha:  2.197e-01  linmin:  1.669e-05  t[s]:   7617.75
	FillingsUpdate:  mu: +0.131613074  nElectrons: 350.000000  magneticMoment: [ Abs: 47.37702  Tot: +0.00000 ]
	SubspaceRotationAdjust: set factor to 0.506
ElecMinimize: Iter: 142  F: -2025.329341085337774  |grad|_K:  5.126e-07  alpha:  2.477e-01  linmin:  2.143e-05  t[s]:   7664.09
	FillingsUpdate:  mu: +0.131872187  nElectrons: 350.000000  magneticMoment: [ Abs: 47.37595  Tot: -0.00000 ]
	SubspaceRotationAdjust: set factor to 0.422
ElecMinimize: Iter: 143  F: -2025.329346246629029  |grad|_K:  4.505e-07  alpha:  1.134e-01  linmin:  3.017e-05  t[s]:   7710.60
	FillingsUpdate:  mu: +0.131810892  nElectrons: 350.000000  magneticMoment: [ Abs: 47.37353  Tot: +0.00000 ]
	SubspaceRotationAdjust: set factor to 0.556
ElecMinimize: Iter: 144  F: -2025.329354450844676  |grad|_K:  3.882e-07  alpha:  2.323e-01  linmin:  1.684e-05  t[s]:   7757.03
	FillingsUpdate:  mu: +0.131618609  nElectrons: 350.000000  magneticMoment: [ Abs: 47.37224  Tot: -0.00000 ]
	SubspaceRotationAdjust: set factor to 0.44
ElecMinimize: Iter: 145  F: -2025.329360551333139  |grad|_K:  4.880e-07  alpha:  2.320e-01  linmin:  2.947e-05  t[s]:   7804.11
	FillingsUpdate:  mu: +0.131905890  nElectrons: 350.000000  magneticMoment: [ Abs: 47.36997  Tot: -0.00000 ]
	SubspaceRotationAdjust: set factor to 0.386
ElecMinimize: Iter: 146  F: -2025.329365127721530  |grad|_K:  3.747e-07  alpha:  1.109e-01  linmin:  2.282e-05  t[s]:   7850.73
	FillingsUpdate:  mu: +0.131902347  nElectrons: 350.000000  magneticMoment: [ Abs: 47.36727  Tot: -0.00000 ]
	SubspaceRotationAdjust: set factor to 0.521
ElecMinimize: Iter: 147  F: -2025.329371784535851  |grad|_K:  3.631e-07  alpha:  2.717e-01  linmin: -1.112e-05  t[s]:   7897.40
	FillingsUpdate:  mu: +0.131664840  nElectrons: 350.000000  magneticMoment: [ Abs: 47.36582  Tot: -0.00000 ]
	SubspaceRotationAdjust: set factor to 0.463
ElecMinimize: Iter: 148  F: -2025.329375937107898  |grad|_K:  4.134e-07  alpha:  1.792e-01  linmin: -8.897e-07  t[s]:   7944.02
	FillingsUpdate:  mu: +0.131874073  nElectrons: 350.000000  magneticMoment: [ Abs: 47.36280  Tot: -0.00000 ]
	SubspaceRotationAdjust: set factor to 0.48
ElecMinimize: Iter: 149  F: -2025.329380603207937  |grad|_K:  3.259e-07  alpha:  1.562e-01  linmin: -1.400e-05  t[s]:   7990.84
	FillingsUpdate:  mu: +0.131884362  nElectrons: 350.000000  magneticMoment: [ Abs: 47.36207  Tot: +0.00000 ]
	SubspaceRotationAdjust: set factor to 0.587
ElecMinimize: Iter: 150  F: -2025.329385930556782  |grad|_K:  3.248e-07  alpha:  2.862e-01  linmin: -3.169e-06  t[s]:   8037.55
	FillingsUpdate:  mu: +0.131707344  nElectrons: 350.000000  magneticMoment: [ Abs: 47.36196  Tot: +0.00000 ]
	SubspaceRotationAdjust: set factor to 0.496
ElecMinimize: Iter: 151  F: -2025.329390396917233  |grad|_K:  4.132e-07  alpha:  2.418e-01  linmin:  8.526e-06  t[s]:   8084.14
	FillingsUpdate:  mu: +0.131939932  nElectrons: 350.000000  magneticMoment: [ Abs: 47.36078  Tot: -0.00000 ]
	SubspaceRotationAdjust: set factor to 0.42
ElecMinimize: Iter: 152  F: -2025.329393849560802  |grad|_K:  3.493e-07  alpha:  1.164e-01  linmin:  2.254e-05  t[s]:   8130.32
	FillingsUpdate:  mu: +0.131873110  nElectrons: 350.000000  magneticMoment: [ Abs: 47.36203  Tot: +0.00000 ]
	SubspaceRotationAdjust: set factor to 0.542
ElecMinimize: Iter: 153  F: -2025.329399318523883  |grad|_K:  3.209e-07  alpha:  2.572e-01  linmin:  4.177e-06  t[s]:   8176.78
	FillingsUpdate:  mu: +0.131691508  nElectrons: 350.000000  magneticMoment: [ Abs: 47.36493  Tot: -0.00000 ]
	SubspaceRotationAdjust: set factor to 0.489
ElecMinimize: Iter: 154  F: -2025.329403880998598  |grad|_K:  3.991e-07  alpha:  2.535e-01  linmin:  5.749e-06  t[s]:   8223.76
	FillingsUpdate:  mu: +0.131930492  nElectrons: 350.000000  magneticMoment: [ Abs: 47.36591  Tot: -0.00000 ]
	SubspaceRotationAdjust: set factor to 0.415
ElecMinimize: Iter: 155  F: -2025.329407306972598  |grad|_K:  3.500e-07  alpha:  1.235e-01  linmin:  1.238e-05  t[s]:   8270.41
	FillingsUpdate:  mu: +0.131907702  nElectrons: 350.000000  magneticMoment: [ Abs: 47.36936  Tot: +0.00000 ]
	SubspaceRotationAdjust: set factor to 0.529
ElecMinimize: Iter: 156  F: -2025.329412819508889  |grad|_K:  3.242e-07  alpha:  2.578e-01  linmin:  4.760e-06  t[s]:   8317.08
	FillingsUpdate:  mu: +0.131707513  nElectrons: 350.000000  magneticMoment: [ Abs: 47.37437  Tot: +0.00000 ]
	SubspaceRotationAdjust: set factor to 0.475
ElecMinimize: Iter: 157  F: -2025.329417460032346  |grad|_K:  4.022e-07  alpha:  2.526e-01  linmin:  6.734e-06  t[s]:   8363.89
	FillingsUpdate:  mu: +0.131919092  nElectrons: 350.000000  magneticMoment: [ Abs: 47.37711  Tot: -0.00000 ]
	SubspaceRotationAdjust: set factor to 0.4
ElecMinimize: Iter: 158  F: -2025.329420907622307  |grad|_K:  3.399e-07  alpha:  1.224e-01  linmin:  1.023e-05  t[s]:   8410.69
	FillingsUpdate:  mu: +0.131900611  nElectrons: 350.000000  magneticMoment: [ Abs: 47.38239  Tot: -0.00000 ]
	SubspaceRotationAdjust: set factor to 0.526
ElecMinimize: Iter: 159  F: -2025.329426234345874  |grad|_K:  3.100e-07  alpha:  2.643e-01  linmin:  8.507e-06  t[s]:   8457.12
	FillingsUpdate:  mu: +0.131743376  nElectrons: 350.000000  magneticMoment: [ Abs: 47.38664  Tot: -0.00000 ]
	SubspaceRotationAdjust: set factor to 0.457
ElecMinimize: Iter: 160  F: -2025.329430155682530  |grad|_K:  3.740e-07  alpha:  2.335e-01  linmin:  1.503e-05  t[s]:   8503.59
	FillingsUpdate:  mu: +0.131936705  nElectrons: 350.000000  magneticMoment: [ Abs: 47.38884  Tot: +0.00000 ]
	SubspaceRotationAdjust: set factor to 0.396
ElecMinimize: Iter: 161  F: -2025.329433162429268  |grad|_K:  3.022e-07  alpha:  1.234e-01  linmin:  4.209e-06  t[s]:   8549.83
	FillingsUpdate:  mu: +0.131885003  nElectrons: 350.000000  magneticMoment: [ Abs: 47.39330  Tot: +0.00000 ]
	SubspaceRotationAdjust: set factor to 0.509
ElecMinimize: Iter: 162  F: -2025.329437328502536  |grad|_K:  2.745e-07  alpha:  2.610e-01  linmin:  1.819e-07  t[s]:   8596.49
	FillingsUpdate:  mu: +0.131753616  nElectrons: 350.000000  magneticMoment: [ Abs: 47.39610  Tot: +0.00000 ]
	SubspaceRotationAdjust: set factor to 0.454
ElecMinimize: Iter: 163  F: -2025.329440439918471  |grad|_K:  3.234e-07  alpha:  2.360e-01  linmin:  1.688e-05  t[s]:   8643.36
	FillingsUpdate:  mu: +0.131935744  nElectrons: 350.000000  magneticMoment: [ Abs: 47.39668  Tot: +0.00000 ]
	SubspaceRotationAdjust: set factor to 0.391
ElecMinimize: Iter: 164  F: -2025.329442696380283  |grad|_K:  2.629e-07  alpha:  1.236e-01  linmin:  3.687e-07  t[s]:   8690.22
	FillingsUpdate:  mu: +0.131913251  nElectrons: 350.000000  magneticMoment: [ Abs: 47.39852  Tot: +0.00000 ]
	SubspaceRotationAdjust: set factor to 0.509
ElecMinimize: Iter: 165  F: -2025.329445744388750  |grad|_K:  2.309e-07  alpha:  2.523e-01  linmin:  5.653e-06  t[s]:   8737.25
	FillingsUpdate:  mu: +0.131784008  nElectrons: 350.000000  magneticMoment: [ Abs: 47.39995  Tot: -0.00000 ]
	SubspaceRotationAdjust: set factor to 0.439
ElecMinimize: Iter: 166  F: -2025.329447979632960  |grad|_K:  2.741e-07  alpha:  2.399e-01  linmin:  1.191e-05  t[s]:   8783.75
	FillingsUpdate:  mu: +0.131919601  nElectrons: 350.000000  magneticMoment: [ Abs: 47.39955  Tot: -0.00000 ]
	SubspaceRotationAdjust: set factor to 0.378
ElecMinimize: Iter: 167  F: -2025.329449566472704  |grad|_K:  2.240e-07  alpha:  1.209e-01  linmin: -1.004e-06  t[s]:   8830.20
	FillingsUpdate:  mu: +0.131918383  nElectrons: 350.000000  magneticMoment: [ Abs: 47.39906  Tot: +0.00000 ]
	SubspaceRotationAdjust: set factor to 0.494
ElecMinimize: Iter: 168  F: -2025.329451847638893  |grad|_K:  2.029e-07  alpha:  2.601e-01  linmin:  1.393e-06  t[s]:   8876.51
	FillingsUpdate:  mu: +0.131818647  nElectrons: 350.000000  magneticMoment: [ Abs: 47.39924  Tot: +0.00000 ]
	SubspaceRotationAdjust: set factor to 0.419
ElecMinimize: Iter: 169  F: -2025.329453526671159  |grad|_K:  2.462e-07  alpha:  2.331e-01  linmin:  7.864e-06  t[s]:   8923.50
	FillingsUpdate:  mu: +0.131938240  nElectrons: 350.000000  magneticMoment: [ Abs: 47.39843  Tot: +0.00000 ]
	SubspaceRotationAdjust: set factor to 0.37
ElecMinimize: Iter: 170  F: -2025.329454878494516  |grad|_K:  2.007e-07  alpha:  1.276e-01  linmin: -9.136e-07  t[s]:   8970.69
	FillingsUpdate:  mu: +0.131931400  nElectrons: 350.000000  magneticMoment: [ Abs: 47.39742  Tot: +0.00000 ]
	SubspaceRotationAdjust: set factor to 0.486
ElecMinimize: Iter: 171  F: -2025.329456842264335  |grad|_K:  1.928e-07  alpha:  2.787e-01  linmin: -1.633e-06  t[s]:   9018.00
	FillingsUpdate:  mu: +0.131836367  nElectrons: 350.000000  magneticMoment: [ Abs: 47.39698  Tot: +0.00000 ]
	SubspaceRotationAdjust: set factor to 0.411
ElecMinimize: Iter: 172  F: -2025.329458303750016  |grad|_K:  2.368e-07  alpha:  2.245e-01  linmin:  4.874e-06  t[s]:   9065.52
	FillingsUpdate:  mu: +0.131960131  nElectrons: 350.000000  magneticMoment: [ Abs: 47.39593  Tot: -0.00000 ]
	SubspaceRotationAdjust: set factor to 0.378
ElecMinimize: Iter: 173  F: -2025.329459660881867  |grad|_K:  1.946e-07  alpha:  1.386e-01  linmin:  8.472e-07  t[s]:   9112.46
	FillingsUpdate:  mu: +0.131957771  nElectrons: 350.000000  magneticMoment: [ Abs: 47.39569  Tot: -0.00000 ]
	SubspaceRotationAdjust: set factor to 0.475
ElecMinimize: Iter: 174  F: -2025.329461619354788  |grad|_K:  1.945e-07  alpha:  2.958e-01  linmin:  1.403e-06  t[s]:   9158.86
	FillingsUpdate:  mu: +0.131855213  nElectrons: 350.000000  magneticMoment: [ Abs: 47.39573  Tot: -0.00000 ]
	SubspaceRotationAdjust: set factor to 0.425
ElecMinimize: Iter: 175  F: -2025.329463218717592  |grad|_K:  2.393e-07  alpha:  2.418e-01  linmin:  4.280e-06  t[s]:   9205.31
	FillingsUpdate:  mu: +0.131975275  nElectrons: 350.000000  magneticMoment: [ Abs: 47.39497  Tot: -0.00000 ]
	SubspaceRotationAdjust: set factor to 0.373
ElecMinimize: Iter: 176  F: -2025.329464600414440  |grad|_K:  2.023e-07  alpha:  1.383e-01  linmin:  5.049e-06  t[s]:   9252.27
	FillingsUpdate:  mu: +0.131962473  nElectrons: 350.000000  magneticMoment: [ Abs: 47.39555  Tot: +0.00000 ]
	SubspaceRotationAdjust: set factor to 0.473
ElecMinimize: Iter: 177  F: -2025.329466624344604  |grad|_K:  1.915e-07  alpha:  2.828e-01  linmin: -1.410e-06  t[s]:   9299.27
	FillingsUpdate:  mu: +0.131884945  nElectrons: 350.000000  magneticMoment: [ Abs: 47.39696  Tot: -0.00000 ]
	SubspaceRotationAdjust: set factor to 0.452
ElecMinimize: Iter: 178  F: -2025.329468309448202  |grad|_K:  2.308e-07  alpha:  2.626e-01  linmin:  6.545e-06  t[s]:   9346.18
	FillingsUpdate:  mu: +0.132017803  nElectrons: 350.000000  magneticMoment: [ Abs: 47.39724  Tot: -0.00000 ]
	SubspaceRotationAdjust: set factor to 0.384
ElecMinimize: Iter: 179  F: -2025.329469570061974  |grad|_K:  2.047e-07  alpha:  1.359e-01  linmin:  9.923e-06  t[s]:   9393.04
	FillingsUpdate:  mu: +0.131993291  nElectrons: 350.000000  magneticMoment: [ Abs: 47.39871  Tot: -0.00000 ]
	SubspaceRotationAdjust: set factor to 0.461
ElecMinimize: Iter: 180  F: -2025.329471401516230  |grad|_K:  1.825e-07  alpha:  2.503e-01  linmin:  6.359e-06  t[s]:   9439.45
	FillingsUpdate:  mu: +0.131930899  nElectrons: 350.000000  magneticMoment: [ Abs: 47.40093  Tot: +0.00000 ]
	SubspaceRotationAdjust: set factor to 0.513
ElecMinimize: Iter: 181  F: -2025.329473052335970  |grad|_K:  2.002e-07  alpha:  2.838e-01  linmin:  3.429e-06  t[s]:   9485.76
	FillingsUpdate:  mu: +0.132039047  nElectrons: 350.000000  magneticMoment: [ Abs: 47.40188  Tot: -0.00000 ]
	SubspaceRotationAdjust: set factor to 0.445
ElecMinimize: Iter: 182  F: -2025.329474117667814  |grad|_K:  2.107e-07  alpha:  1.524e-01  linmin:  8.188e-06  t[s]:   9531.96
	FillingsUpdate:  mu: +0.131978509  nElectrons: 350.000000  magneticMoment: [ Abs: 47.40412  Tot: -0.00000 ]
	SubspaceRotationAdjust: set factor to 0.468
ElecMinimize: Iter: 183  F: -2025.329475573918444  |grad|_K:  1.737e-07  alpha:  1.878e-01  linmin:  5.072e-06  t[s]:   9578.12
	FillingsUpdate:  mu: +0.132003873  nElectrons: 350.000000  magneticMoment: [ Abs: 47.40584  Tot: -0.00000 ]
	SubspaceRotationAdjust: set factor to 0.567
ElecMinimize: Iter: 184  F: -2025.329477139787059  |grad|_K:  1.664e-07  alpha:  2.970e-01  linmin:  8.181e-07  t[s]:   9625.28
	FillingsUpdate:  mu: +0.132036567  nElectrons: 350.000000  magneticMoment: [ Abs: 47.40771  Tot: +0.00000 ]
	SubspaceRotationAdjust: set factor to 0.636
ElecMinimize: Iter: 185  F: -2025.329478545060965  |grad|_K:  1.812e-07  alpha:  2.903e-01  linmin: -2.631e-06  t[s]:   9671.92
	FillingsUpdate:  mu: +0.131941025  nElectrons: 350.000000  magneticMoment: [ Abs: 47.40921  Tot: +0.00000 ]
	SubspaceRotationAdjust: set factor to 0.517
ElecMinimize: Iter: 186  F: -2025.329479430834681  |grad|_K:  2.181e-07  alpha:  1.540e-01  linmin: -5.429e-06  t[s]:   9718.45
	FillingsUpdate:  mu: +0.132046920  nElectrons: 350.000000  magneticMoment: [ Abs: 47.40972  Tot: -0.00000 ]
	SubspaceRotationAdjust: set factor to 0.472
ElecMinimize: Iter: 187  F: -2025.329480524407018  |grad|_K:  1.647e-07  alpha:  1.314e-01  linmin: -3.348e-06  t[s]:   9765.03
	FillingsUpdate:  mu: +0.132034964  nElectrons: 350.000000  magneticMoment: [ Abs: 47.41068  Tot: +0.00000 ]
	SubspaceRotationAdjust: set factor to 0.547
ElecMinimize: Iter: 188  F: -2025.329481792989100  |grad|_K:  1.506e-07  alpha:  2.674e-01  linmin:  6.209e-06  t[s]:   9811.57
	FillingsUpdate:  mu: +0.132013782  nElectrons: 350.000000  magneticMoment: [ Abs: 47.41146  Tot: -0.00000 ]
	SubspaceRotationAdjust: set factor to 0.629
[...]
	FillingsUpdate:  mu: +0.134201274  nElectrons: 350.000000  magneticMoment: [ Abs: 46.79785  Tot: -0.00000 ]
	SubspaceRotationAdjust: set factor to 0.487
ElecMinimize: Iter:  14  F: -2025.370430741075097  |grad|_K:  1.354e-07  alpha:  3.872e-01  linmin:  1.665e-06  t[s]:  38701.00
	FillingsUpdate:  mu: +0.134361278  nElectrons: 350.000000  magneticMoment: [ Abs: 46.79926  Tot: -0.00000 ]
	SubspaceRotationAdjust: set factor to 0.48
ElecMinimize: Iter:  15  F: -2025.370431784641596  |grad|_K:  1.160e-07  alpha:  3.256e-01  linmin:  6.576e-06  t[s]:  38748.23
	FillingsUpdate:  mu: +0.134212597  nElectrons: 350.000000  magneticMoment: [ Abs: 46.79930  Tot: +0.00000 ]
	SubspaceRotationAdjust: set factor to 0.424
ElecMinimize: Iter:  16  F: -2025.370432488990446  |grad|_K:  1.006e-07  alpha:  2.994e-01  linmin: -1.192e-06  t[s]:  38795.50
	FillingsUpdate:  mu: +0.134337636  nElectrons: 350.000000  magneticMoment: [ Abs: 46.80062  Tot: -0.00000 ]
	SubspaceRotationAdjust: set factor to 0.427
ElecMinimize: Iter:  17  F: -2025.370433089098924  |grad|_K:  8.436e-08  alpha:  3.394e-01  linmin:  1.029e-05  t[s]:  38842.49
	FillingsUpdate:  mu: +0.134295640  nElectrons: 350.000000  magneticMoment: [ Abs: 46.80134  Tot: -0.00000 ]
	SubspaceRotationAdjust: set factor to 0.502
ElecMinimize: Iter:  18  F: -2025.370433607193945  |grad|_K:  7.433e-08  alpha:  4.171e-01  linmin:  9.817e-07  t[s]:  38889.93
	FillingsUpdate:  mu: +0.134303812  nElectrons: 350.000000  magneticMoment: [ Abs: 46.80220  Tot: +0.00000 ]
	SubspaceRotationAdjust: set factor to 0.601
ElecMinimize: Iter:  19  F: -2025.370434045702723  |grad|_K:  7.192e-08  alpha:  4.538e-01  linmin: -2.813e-06  t[s]:  38937.19
	FillingsUpdate:  mu: +0.134362514  nElectrons: 350.000000  magneticMoment: [ Abs: 46.80316  Tot: -0.00000 ]
	SubspaceRotationAdjust: set factor to 0.693
ElecMinimize: Iter:  20  F: -2025.370434424594350  |grad|_K:  6.910e-08  alpha:  4.189e-01  linmin:  9.046e-06  t[s]:  38984.26
ElecMinimize: Converged (|Delta F|<1.000000e-06 for 5 iters).
Setting wave functions to eigenvectors of Hamiltonian

# Ionic positions in lattice coordinates:
ion Ni   0.000586250526092  -0.000219873720249   0.158177121107155 1
ion Ni   0.498183397406576   0.500989355161952   0.157256648781283 1
ion V   0.502859231880130   0.000773641496215   0.164500356466626 1
ion V  -0.000654863473944   0.504211449424503   0.156066670489041 1
ion V   0.500000000000000   0.000000000000000  -0.050000000000000 0
ion Co   0.253533737989756   0.244049922532468   0.058743885272888 1
ion Co   0.260471364623057   0.742455627535695   0.056331245636516 1
ion Co   0.000000000000000   0.500000000000000  -0.050000000000000 0
ion Co   0.500000000000000   0.500000000000000  -0.050000000000000 0
ion Co   0.250000000000000   0.250000000000000  -0.150000000000000 0
ion Co   0.250000000000000   0.750000000000000  -0.150000000000000 0
ion Cr  -0.253846485866636   0.252196068478270   0.052942330514054 1
ion Cr  -0.253665708244245   0.747488417602337   0.055857046532711 1
ion Cr   0.000000000000000   0.000000000000000  -0.050000000000000 0
ion Cr  -0.250000000000000   0.250000000000000  -0.150000000000000 0
ion Cr  -0.250000000000000   0.750000000000000  -0.150000000000000 0
ion O   0.238549366631923   0.265245262421676   0.155717257030822 1
ion O   0.239578515851577   0.738535193743332   0.151516221712719 1
ion O  -0.244489991171508   0.261283378975097   0.146450132214554 1
ion O  -0.243863589526652   0.739259029661523   0.151893142538134 1
ion O   0.003913117472674   0.028389880728824   0.045771841102449 1
ion O   0.518021542634012   0.000769722646712   0.056557737360570 1
ion O  -0.021345548437845   0.501131327798498   0.057190237068891 1
ion O   0.487220199064213   0.474195154383819   0.044397420453820 1
ion O   0.250000000000000   0.250000000000000  -0.050000000000000 0
ion O   0.250000000000000   0.750000000000000  -0.050000000000000 0
ion O  -0.250000000000000   0.250000000000000  -0.050000000000000 0
ion O  -0.250000000000000   0.750000000000000  -0.050000000000000 0
ion O   0.000000000000000   0.000000000000000  -0.150000000000000 0
ion O   0.500000000000000   0.000000000000000  -0.150000000000000 0
ion O   0.000000000000000   0.500000000000000  -0.150000000000000 0
ion O   0.500000000000000   0.500000000000000  -0.150000000000000 0
ion O  -0.031135081451460  -0.011016819128464   0.246242271729409 1
ion H   0.069472969772636   0.091949198976040   0.265492163830288 1

# Forces in Lattice coordinates:
force Ni   0.004266138841943   0.005832276252520   0.000923654268773 1
force Ni  -0.002827515737863   0.005031609104424  -0.016270051076939 1
force V  -0.002553982024282  -0.003864584378893  -0.011791338349072 1
force V   0.006383366923924  -0.000828183288151   0.015632214686707 1
force V  -0.085126378606433   0.007936093616984   0.547978556907444 0
force Co  -0.013015390497870   0.009761807343536  -0.000981749424554 1
force Co   0.006100150488579  -0.004175688967850  -0.069420330414918 1
force Co   0.045487889002528  -0.006010718674751   0.151895206088250 0
force Co  -0.048328827991081  -0.025297510381725  -0.066679320846835 0
force Co  -0.001578212188259   0.031839840373819   0.044430559706504 0
force Co  -0.002488078648517  -0.032926010831746  -0.043251910778412 0
force Cr  -0.001753833116584   0.014878880832064   0.008439874730564 1
force Cr   0.003950139118839  -0.005649769481276   0.001965379964572 1
force Cr   0.058261916655613   0.040524881795516   0.035053097269265 0
force Cr  -0.010595980224558   0.040191352169842  -1.462403582973282 0
force Cr  -0.009028330337812  -0.038636602968403  -1.443468804031897 0
force O  -0.000536613891765  -0.003508575355778  -0.000445358738768 1
force O  -0.002434196743399  -0.003670356906408   0.007888241554150 1
force O   0.002294937045212   0.002464372354199  -0.008577567119161 1
force O   0.004979382491983  -0.005367435517483  -0.036749676677447 1
force O  -0.004039048430428  -0.005023702606582   0.004557581424871 1
force O   0.005168499876560  -0.004934493480504  -0.002915084740178 1
force O  -0.002012146624296   0.003905272994140  -0.016129096872797 1
force O   0.004484048596203   0.008471179611561   0.006232839500296 1
force O  -0.029069843789129   0.050000477043302  -0.273081990311488 0
force O  -0.016357237826280  -0.062155327991142   0.198435775193375 0
force O   0.027061953605306   0.062324987643294   1.304511054542442 0
force O   0.033548654250601  -0.065728828353369   1.130089678513643 0
force O  -0.013735871467845  -0.013399226084131   0.147817606131518 0
force O   0.058353211334667  -0.003735662100372  -0.139062012964227 0
force O  -0.001589798802620   0.002545489910685  -0.160340693444268 0
force O   0.045726078162124   0.010406064741927  -0.199300272980247 0
force O  -0.003784776424022   0.005746684457014   0.034209949639668 1
force H  -0.015563792842957  -0.007212459451350  -0.004616759197570 1

# Energy components:
   Eewald =     5412.9553946350479237
       EH =     7236.3103956481945715
     Eloc =   -14806.8613168866995693
      Enl =     -553.0527047503416043
   Epulay =       -0.0004768259422330
      Exc =     -248.4213676844989322
       KE =      932.7551413413675618
        U =        0.9449235605308537
-------------------------------------
     Etot =    -2025.3700109623403023
       TS =        0.0004234622541171
-------------------------------------
        F =    -2025.3704344245943503

IonicMinimize: Iter:  15  F: -2025.370434424594350  |grad|_K:  5.373e-04  alpha:  1.000e+00  linmin:  1.365e-03  t[s]:  39000.62

#--- Lowdin population analysis ---
# oxidation-state Ni +3.609 +3.301
# magnetic-moments Ni +0.892 -0.570
# oxidation-state V +1.175 +1.362 +0.935
# magnetic-moments V -3.000 +2.065 +2.857
# oxidation-state Co +1.168 +1.196 +1.204 +1.156 +1.220 +1.229
# magnetic-moments Co +2.614 +2.658 -2.699 +2.618 -2.678 -2.688
# oxidation-state Cr +2.954 +2.819 +2.850 +2.936 +2.931
# magnetic-moments Cr -3.183 -3.805 -3.605 +3.886 +3.882
# oxidation-state O -0.855 -0.842 -0.752 -0.777 -0.875 -0.914 -0.896 -0.967 -1.009 -1.015 -0.958 -0.976 -0.936 -0.958 -0.991 -0.992 -0.775
# magnetic-moments O +0.110 +0.106 +0.104 +0.088 +0.155 +0.111 +0.074 +0.174 -0.054 -0.044 +0.061 +0.062 -0.082 -0.139 -0.186 -0.081 +0.262
# oxidation-state H +0.369
# magnetic-moments H -0.004


-------- Electronic minimization -----------
	FillingsUpdate:  mu: +0.136610829  nElectrons: 350.000000  magneticMoment: [ Abs: 46.80022  Tot: -0.00000 ]
ElecMinimize: Iter:   0  F: -2025.289336385862043  |grad|_K:  4.655e-05  alpha:  1.000e+00
	FillingsUpdate:  mu: +0.137122076  nElectrons: 350.000000  magneticMoment: [ Abs: 46.81132  Tot: +0.00000 ]
	SubspaceRotationAdjust: set factor to 0.839
ElecMinimize: Iter:   1  F: -2025.364552135614986  |grad|_K:  9.467e-06  alpha:  1.994e-01  linmin:  6.352e-04  t[s]:  39080.81
	FillingsUpdate:  mu: +0.129136133  nElectrons: 350.000000  magneticMoment: [ Abs: 46.77292  Tot: +0.00000 ]
	SubspaceRotationAdjust: set factor to 0.573
ElecMinimize: Iter:   2  F: -2025.368223618576849  |grad|_K:  6.766e-06  alpha:  2.340e-01  linmin: -8.604e-04  t[s]:  39128.53
	FillingsUpdate:  mu: +0.136102341  nElectrons: 350.000000  magneticMoment: [ Abs: 46.81081  Tot: +0.00000 ]
	SubspaceRotationAdjust: set factor to 0.381
ElecMinimize: Iter:   3  F: -2025.369148479391470  |grad|_K:  3.597e-06  alpha:  1.033e-01  linmin: -6.459e-04  t[s]:  39176.10
ElecMinimize: 	Predicted alpha/alphaT>3.000000, increasing alphaT to 3.099803e-01.
	FillingsUpdate:  mu: +0.136164158  nElectrons: 350.000000  magneticMoment: [ Abs: 46.81311  Tot: +0.00000 ]
	SubspaceRotationAdjust: set factor to 0.532
ElecMinimize: Iter:   4  F: -2025.369915433363531  |grad|_K:  2.605e-06  alpha:  3.257e-01  linmin:  2.460e-07  t[s]:  39237.33
	FillingsUpdate:  mu: +0.132196059  nElectrons: 350.000000  magneticMoment: [ Abs: 46.79568  Tot: +0.00000 ]
	SubspaceRotationAdjust: set factor to 0.428
ElecMinimize: Iter:   5  F: -2025.370200968829522  |grad|_K:  2.105e-06  alpha:  2.435e-01  linmin: -6.578e-05  t[s]:  39285.22
	FillingsUpdate:  mu: +0.134798168  nElectrons: 350.000000  magneticMoment: [ Abs: 46.80576  Tot: -0.00000 ]
	SubspaceRotationAdjust: set factor to 0.362
ElecMinimize: Iter:   6  F: -2025.370363572046472  |grad|_K:  1.197e-06  alpha:  2.080e-01  linmin:  5.976e-05  t[s]:  39332.69
	FillingsUpdate:  mu: +0.134624530  nElectrons: 350.000000  magneticMoment: [ Abs: 46.80466  Tot: -0.00000 ]
	SubspaceRotationAdjust: set factor to 0.478
ElecMinimize: Iter:   7  F: -2025.370456932258321  |grad|_K:  6.659e-07  alpha:  3.747e-01  linmin: -1.599e-06  t[s]:  39379.49
	FillingsUpdate:  mu: +0.133832017  nElectrons: 350.000000  magneticMoment: [ Abs: 46.80109  Tot: -0.00000 ]
	SubspaceRotationAdjust: set factor to 0.414
ElecMinimize: Iter:   8  F: -2025.370480249941011  |grad|_K:  5.114e-07  alpha:  3.009e-01  linmin: -1.602e-05  t[s]:  39426.54
	FillingsUpdate:  mu: +0.134562336  nElectrons: 350.000000  magneticMoment: [ Abs: 46.80417  Tot: +0.00000 ]
	SubspaceRotationAdjust: set factor to 0.276
ElecMinimize: Iter:   9  F: -2025.370489797279333  |grad|_K:  3.131e-07  alpha:  2.079e-01  linmin:  5.474e-06  t[s]:  39473.76
	FillingsUpdate:  mu: +0.134307818  nElectrons: 350.000000  magneticMoment: [ Abs: 46.80302  Tot: +0.00000 ]
	SubspaceRotationAdjust: set factor to 0.311
ElecMinimize: Iter:  10  F: -2025.370495193322540  |grad|_K:  1.969e-07  alpha:  3.148e-01  linmin: -7.456e-06  t[s]:  39521.67
	FillingsUpdate:  mu: +0.134240236  nElectrons: 350.000000  magneticMoment: [ Abs: 46.80271  Tot: +0.00000 ]
	SubspaceRotationAdjust: set factor to 0.345
ElecMinimize: Iter:  11  F: -2025.370497378622076  |grad|_K:  1.469e-07  alpha:  3.222e-01  linmin: -1.235e-06  t[s]:  39568.86
	FillingsUpdate:  mu: +0.134379831  nElectrons: 350.000000  magneticMoment: [ Abs: 46.80326  Tot: +0.00000 ]
	SubspaceRotationAdjust: set factor to 0.349
ElecMinimize: Iter:  12  F: -2025.370498602573889  |grad|_K:  1.047e-07  alpha:  3.244e-01  linmin:  4.391e-06  t[s]:  39616.36
	FillingsUpdate:  mu: +0.134275419  nElectrons: 350.000000  magneticMoment: [ Abs: 46.80281  Tot: -0.00000 ]
	SubspaceRotationAdjust: set factor to 0.348
ElecMinimize: Iter:  13  F: -2025.370499322654268  |grad|_K:  8.543e-08  alpha:  3.758e-01  linmin: -3.190e-06  t[s]:  39663.99
	FillingsUpdate:  mu: +0.134342063  nElectrons: 350.000000  magneticMoment: [ Abs: 46.80312  Tot: -0.00000 ]
	SubspaceRotationAdjust: set factor to 0.382
ElecMinimize: Iter:  14  F: -2025.370499760130542  |grad|_K:  6.815e-08  alpha:  3.426e-01  linmin:  3.218e-06  t[s]:  39711.70
	FillingsUpdate:  mu: +0.134330650  nElectrons: 350.000000  magneticMoment: [ Abs: 46.80316  Tot: +0.00000 ]
	SubspaceRotationAdjust: set factor to 0.463
ElecMinimize: Iter:  15  F: -2025.370500081078944  |grad|_K:  5.542e-08  alpha:  3.952e-01  linmin:  1.163e-06  t[s]:  39759.10
	FillingsUpdate:  mu: +0.134298462  nElectrons: 350.000000  magneticMoment: [ Abs: 46.80313  Tot: +0.00000 ]
	SubspaceRotationAdjust: set factor to 0.538
ElecMinimize: Iter:  16  F: -2025.370500301453603  |grad|_K:  5.406e-08  alpha:  4.103e-01  linmin: -5.402e-06  t[s]:  39806.34
	FillingsUpdate:  mu: +0.134380354  nElectrons: 350.000000  magneticMoment: [ Abs: 46.80362  Tot: -0.00000 ]
	SubspaceRotationAdjust: set factor to 0.524
ElecMinimize: Iter:  17  F: -2025.370500490732184  |grad|_K:  6.071e-08  alpha:  3.700e-01  linmin:  3.488e-07  t[s]:  39853.63
ElecMinimize: Converged (|Delta F|<1.000000e-06 for 5 iters).
Setting wave functions to eigenvectors of Hamiltonian

# Ionic positions in lattice coordinates:
ion Ni   0.000852087311301   0.000280980835013   0.158319075008048 1
ion Ni   0.497933043749174   0.501224182001912   0.157135068393056 1
ion V   0.502657953161924   0.000637838698474   0.164429365613627 1
ion V  -0.000456418131941   0.504189466176161   0.156143112607871 1
ion V   0.500000000000000   0.000000000000000  -0.050000000000000 0
ion Co   0.252769509404454   0.244773637534079   0.058668266699242 1
ion Co   0.260542140061545   0.742571294351994   0.056136407806080 1
ion Co   0.000000000000000   0.500000000000000  -0.050000000000000 0
ion Co   0.500000000000000   0.500000000000000  -0.050000000000000 0
ion Co   0.250000000000000   0.250000000000000  -0.150000000000000 0
ion Co   0.250000000000000   0.750000000000000  -0.150000000000000 0
ion Cr  -0.253690733369742   0.252971881337758   0.053053064514791 1
ion Cr  -0.253409975789885   0.747190980076826   0.055992054394216 1
ion Cr   0.000000000000000   0.000000000000000  -0.050000000000000 0
ion Cr  -0.250000000000000   0.250000000000000  -0.150000000000000 0
ion Cr  -0.250000000000000   0.750000000000000  -0.150000000000000 0
ion O   0.238429119675730   0.264821635873116   0.155586532722401 1
ion O   0.239386287939682   0.738523426059095   0.151689029603726 1
ion O  -0.244354810428830   0.261182471232627   0.146460109694711 1
ion O  -0.243653852427842   0.739055834023778   0.151871674590644 1
ion O   0.004310376567974   0.028105221758354   0.045821482444574 1
ion O   0.518639517252313   0.000507899475121   0.056580081918530 1
ion O  -0.021773757592962   0.501493077467194   0.057197403776060 1
ion O   0.487536934408334   0.474544383070822   0.044494639427246 1
ion O   0.250000000000000   0.250000000000000  -0.050000000000000 0
ion O   0.250000000000000   0.750000000000000  -0.050000000000000 0
ion O  -0.250000000000000   0.250000000000000  -0.050000000000000 0
ion O  -0.250000000000000   0.750000000000000  -0.050000000000000 0
ion O   0.000000000000000   0.000000000000000  -0.150000000000000 0
ion O   0.500000000000000   0.000000000000000  -0.150000000000000 0
ion O   0.000000000000000   0.500000000000000  -0.150000000000000 0
ion O   0.500000000000000   0.500000000000000  -0.150000000000000 0
ion O  -0.032479111618916  -0.010903724380224   0.246463703640107 1
ion H   0.067702928938444   0.091725157658289   0.265954018495648 1

# Forces in Lattice coordinates:
force Ni   0.000040144446876   0.004181734121755   0.045654441611765 1
force Ni  -0.002520798280803   0.002869521005577   0.009492740472659 1
force V   0.001099756498669   0.000545431889772   0.005802315308527 1
force V  -0.000542844723312   0.000888897177444   0.021254802283033 1
force V  -0.082455408942675   0.008031199722086   0.555128614411105 0
force Co  -0.004892956324572   0.010237121360576  -0.014958871386198 1
force Co   0.006061332980543  -0.000667381446840  -0.046169794045040 1
force Co   0.043962993731913  -0.005176733493474   0.145292800764574 0
force Co  -0.047023261789953  -0.024137581585929  -0.062467249090352 0
force Co  -0.001572501192593   0.032087907582704   0.040172998048162 0
force Co  -0.002478211157884  -0.033087929887567  -0.047127323762889 0
force Cr  -0.004599557858303  -0.014470851408446  -0.010983571022054 1
force Cr  -0.003870821461645   0.010859516923761  -0.019882629037999 1
force Cr   0.056507716631737   0.040443432653553   0.040472333757609 0
force Cr  -0.010536114287725   0.040167695507153  -1.461651664035896 0
force Cr  -0.008976957644463  -0.038578709829728  -1.442329555158715 0
force O  -0.000628901229579  -0.001637908904279   0.013876065746608 1
force O  -0.000305015250277  -0.003552187891419  -0.019529490978394 1
force O   0.001648988635166   0.005734863283092   0.000376140299021 1
force O   0.004591432674049  -0.004946402063752  -0.018258401056306 1
force O  -0.008495707824399  -0.001434790539868  -0.002150718672635 1
force O   0.003047413750840  -0.000654663661838  -0.005374850301958 1
force O   0.010551010916984   0.000702703719953  -0.015690879215031 1
force O  -0.001522783051026   0.007059917440506  -0.007158769311128 1
force O  -0.029246102818171   0.051692878954254  -0.267360394470449 0
force O  -0.016090186947495  -0.062945753581209   0.202802415085551 0
force O   0.027449224702487   0.064133238640928   1.306777936949072 0
force O   0.034170800620612  -0.066551058301280   1.128671836691091 0
force O  -0.013612982205993  -0.013352645931092   0.149079839412188 0
force O   0.057925596923768  -0.003707517258476  -0.138423251572576 0
force O  -0.001186367872841   0.002587033059364  -0.159641478144786 0
force O   0.045348704809685   0.010371117311452  -0.198124617739944 0
force O  -0.009493783959009   0.000938606786958  -0.002412560258495 1
force H  -0.010213720090648  -0.002454960372903   0.005735645565121 1

# Energy components:
   Eewald =     5412.2845615144360636
       EH =     7235.6382350702579060
     Eloc =   -14805.5182875477403286
      Enl =     -553.0537990120355971
   Epulay =       -0.0004768259422330
      Exc =     -248.4212536397059239
       KE =      932.7558285296879603
        U =        0.9451157468348478
-------------------------------------
     Etot =    -2025.3700761642064663
       TS =        0.0004243265256884
-------------------------------------
        F =    -2025.3705004907321836

IonicMinimize: Iter:  16  F: -2025.370500490732184  |grad|_K:  4.809e-04  alpha:  1.000e+00  linmin: -1.224e-02  t[s]:  39869.78
IonicMinimize: Converged (|Delta F|<1.000000e-04 for 3 iters).

#--- Lowdin population analysis ---
# oxidation-state Ni +3.611 +3.301
# magnetic-moments Ni +0.893 -0.571
# oxidation-state V +1.174 +1.362 +0.936
# magnetic-moments V -3.001 +2.065 +2.857
# oxidation-state Co +1.168 +1.196 +1.204 +1.156 +1.220 +1.229
# magnetic-moments Co +2.614 +2.658 -2.698 +2.618 -2.678 -2.688
# oxidation-state Cr +2.954 +2.818 +2.850 +2.936 +2.931
# magnetic-moments Cr -3.184 -3.802 -3.605 +3.886 +3.882
# oxidation-state O -0.855 -0.842 -0.752 -0.776 -0.876 -0.915 -0.895 -0.966 -1.009 -1.015 -0.958 -0.976 -0.936 -0.958 -0.991 -0.992 -0.776
# magnetic-moments O +0.111 +0.104 +0.104 +0.087 +0.156 +0.111 +0.073 +0.173 -0.054 -0.044 +0.061 +0.062 -0.082 -0.139 -0.186 -0.081 +0.262
# oxidation-state H +0.369
# magnetic-moments H -0.004


Dumping 'run.ionpos' ... done
Dumping 'run.lattice' ... done
Dumping 'run.Ecomponents' ... done
End date and time: Wed May 21 03:57:40 2025  (Duration: 0-11:04:33.89)
Done!
