
*************** JDFTx 1.7.0  ***************

Start date and time: Sun May 18 08:38:49 2025
Executable /data2/jt577/jdftx_eat_withLibXC/build/jdftx with command-line: -i /data2/jt577/May_2025/Relax_Mag_litU/rel10+1_6/O/runs/calc_/run.in
Running on hosts (process indices):  node3225 (0-8)
Divided in process groups (process indices):  0 (0)  1 (1)  2 (2)  3 (3)  4 (4)  5 (5)  6 (6)  7 (7)  8 (8)
Resource initialization completed at t[s]:      0.00
Run totals: 9 processes, 36 threads, 0 GPUs


Input parsed successfully to the following command list (including defaults):

add-mix 
add-U 	Ni d 0.235196 \
	V d 0.113923 \
	Co d 0.121273 \
	Cr d 0.128623
basis kpoint-dependent
coords-type Lattice
core-overlap-check vector
coulomb-interaction Periodic
davidson-band-ratio 1.1
dump End IonicPositions Lattice Ecomponents
dump-name run.$VAR
elec-cutoff 30
elec-eigen-algo Davidson
elec-ex-corr gga-x-rpbe gga-c-pbe
elec-smearing Fermi 0.001
electronic-minimize  \
	dirUpdateScheme      FletcherReeves \
	linminMethod         DirUpdateRecommended \
	nIterations          1000 \
	history              15 \
	knormThreshold       0 \
	energyDiffThreshold  1e-06 \
	nEnergyDiff          5 \
	alphaTstart          1 \
	alphaTmin            1e-10 \
	updateTestStepSize   yes \
	alphaTreduceFactor   0.1 \
	alphaTincreaseFactor 3 \
	nAlphaAdjustMax      3 \
	wolfeEnergy          0.0001 \
	wolfeGradient        0.9 \
	fdTest               no
exchange-regularization WignerSeitzTruncated
fluid None
fluid-ex-corr (null) lda-PZ
fluid-gummel-loop 10 1.000000e-05
fluid-minimize  \
	dirUpdateScheme      PolakRibiere \
	linminMethod         DirUpdateRecommended \
	nIterations          100 \
	history              15 \
	knormThreshold       0 \
	energyDiffThreshold  0 \
	nEnergyDiff          2 \
	alphaTstart          1 \
	alphaTmin            1e-10 \
	updateTestStepSize   yes \
	alphaTreduceFactor   0.1 \
	alphaTincreaseFactor 3 \
	nAlphaAdjustMax      3 \
	wolfeEnergy          0.0001 \
	wolfeGradient        0.9 \
	fdTest               no
fluid-solvent H2O 55.338 ScalarEOS \
	epsBulk 78.4 \
	pMol 0.92466 \
	epsInf 1.77 \
	Pvap 1.06736e-10 \
	sigmaBulk 4.62e-05 \
	Rvdw 2.61727 \
	Res 1.42 \
	tauNuc 343133 \
	poleEl 15 7 1
forces-output-coords Positions
initial-magnetic-moments  \
	Ni 1 -1 1 1 -1 -1 1 \
	V -1 1 1 -1 1 \
	Co -1 -1 1 \
	Cr -1
initial-state run.$VAR
ion Ni  0.000000000000000   0.000000000000000   0.150000000000000 1
ion Ni  0.500000000000000   0.500000000000000   0.150000000000000 1
ion Ni  0.250000000000000   0.250000000000000   0.050000000000000 1
ion Ni  0.250000000000000   0.750000000000000   0.050000000000000 1
ion Ni -0.250000000000000   0.750000000000000   0.050000000000000 1
ion Ni  0.250000000000000   0.750000000000000  -0.150000000000000 0
ion Ni -0.250000000000000   0.250000000000000  -0.150000000000000 0
ion V  0.500000000000000   0.000000000000000   0.150000000000000 1
ion V  0.000000000000000   0.500000000000000   0.150000000000000 1
ion V  0.500000000000000   0.000000000000000  -0.050000000000000 0
ion V  0.000000000000000   0.500000000000000  -0.050000000000000 0
ion V  0.500000000000000   0.500000000000000  -0.050000000000000 0
ion Co -0.250000000000000   0.250000000000000   0.050000000000000 1
ion Co  0.000000000000000   0.000000000000000  -0.050000000000000 0
ion Co -0.250000000000000   0.750000000000000  -0.150000000000000 0
ion Cr  0.250000000000000   0.250000000000000  -0.150000000000000 0
ion O  0.250000000000000   0.250000000000000   0.150000000000000 1
ion O  0.250000000000000   0.750000000000000   0.150000000000000 1
ion O -0.250000000000000   0.250000000000000   0.150000000000000 1
ion O -0.250000000000000   0.750000000000000   0.150000000000000 1
ion O  0.000000000000000   0.000000000000000   0.050000000000000 1
ion O  0.500000000000000   0.000000000000000   0.050000000000000 1
ion O  0.000000000000000   0.500000000000000   0.050000000000000 1
ion O  0.500000000000000   0.500000000000000   0.050000000000000 1
ion O  0.250000000000000   0.250000000000000  -0.050000000000000 0
ion O  0.250000000000000   0.750000000000000  -0.050000000000000 0
ion O -0.250000000000000   0.250000000000000  -0.050000000000000 0
ion O -0.250000000000000   0.750000000000000  -0.050000000000000 0
ion O  0.000000000000000   0.000000000000000  -0.150000000000000 0
ion O  0.500000000000000   0.000000000000000  -0.150000000000000 0
ion O  0.000000000000000   0.500000000000000  -0.150000000000000 0
ion O  0.500000000000000   0.500000000000000  -0.150000000000000 0
ion O -0.000095572322686   0.000198307128402   0.224876729873325 1
ion-species SG15/$ID_ONCV_PBE.upf
ion-width 0
ionic-minimize  \
	dirUpdateScheme      L-BFGS \
	linminMethod         DirUpdateRecommended \
	nIterations          1000 \
	history              15 \
	knormThreshold       0.0001 \
	energyDiffThreshold  0.0001 \
	nEnergyDiff          3 \
	alphaTstart          1 \
	alphaTmin            1e-10 \
	updateTestStepSize   yes \
	alphaTreduceFactor   0.1 \
	alphaTincreaseFactor 3 \
	nAlphaAdjustMax      3 \
	wolfeEnergy          0.0001 \
	wolfeGradient        0.9 \
	fdTest               no
kpoint   0.500000000000   0.500000000000   0.500000000000  1.00000000000000
kpoint-folding 3 3 1 
latt-move-scale 1 1 1
latt-scale 1 1 1 
lattice  \
	   8.140000000000001    8.140000000000001    0.000000000000000  \
	   8.140000000000001   -8.140000000000001    0.000000000000000  \
	   0.000000000000000    0.000000000000000   40.700000000000003 
lattice-minimize  \
	dirUpdateScheme      L-BFGS \
	linminMethod         DirUpdateRecommended \
	nIterations          0 \
	history              15 \
	knormThreshold       0 \
	energyDiffThreshold  1e-06 \
	nEnergyDiff          2 \
	alphaTstart          1 \
	alphaTmin            1e-10 \
	updateTestStepSize   yes \
	alphaTreduceFactor   0.1 \
	alphaTincreaseFactor 3 \
	nAlphaAdjustMax      3 \
	wolfeEnergy          0.0001 \
	wolfeGradient        0.9 \
	fdTest               no
lcao-params -1 1e-06 0.001
pcm-variant GLSSA13
spintype z-spin
subspace-rotation-factor 1 yes
symmetries none
symmetry-threshold 0.0001


Applied RMS atom displacement 0 bohrs to make symmetries exact.

---------- Initializing the Grid ----------
R = 
[         8.14         8.14            0  ]
[         8.14        -8.14            0  ]
[            0            0         40.7  ]
unit cell volume = 5393.53
G =
[   0.385945   0.385945         -0  ]
[   0.385945  -0.385945         -0  ]
[         -0         -0   0.154378  ]
Minimum fftbox size, Smin = [  60  60  204  ]
Chosen fftbox size, S = [  60  60  210  ]

---------- Exchange Correlation functional ----------
Initialized LibXC exchange functional 'Hammer, Hansen, and Norskov'
Initialized LibXC correlation functional 'Perdew, Burke & Ernzerhof'

---------- Setting up pseudopotentials ----------
Width of ionic core gaussian charges (only for fluid interactions / plotting) set to 0

Reading pseudopotential file '/data2/jt577/jdftx_eat_withLibXC/build/pseudopotentials/SG15/Ni_ONCV_PBE.upf':
  'Ni' pseudopotential, 'PBE' functional
  Generated using ONCVPSP code by D. R. Hamann
  Author: Martin Schlipf and Francois Gygi  Date: 150915.
  18 valence electrons, 4 orbitals, 6 projectors, 1292 radial grid points, with lMax = 2
  Transforming local potential to a uniform radial grid of dG=0.02 with 1419 points.
  Transforming nonlocal projectors to a uniform radial grid of dG=0.02 with 528 points.
    3S    l: 0   occupation:  2.0   eigenvalue: -4.081355
    3P    l: 1   occupation:  6.0   eigenvalue: -2.623460
    4S    l: 0   occupation:  2.0   eigenvalue: -0.207378
    3D    l: 2   occupation:  8.0   eigenvalue: -0.326118
  Transforming atomic orbitals to a uniform radial grid of dG=0.02 with 528 points.
  WARNING: large normalization error in atomic orbital 1s (integral: 0.000006).
  Core radius for overlap checks: 1.99 bohrs.
  Reading pulay file /data2/jt577/jdftx_eat_withLibXC/build/pseudopotentials/SG15/Ni_ONCV_PBE.pulay ... using dE_dnG = -7.250568e-04 computed for Ecut = 30.

Reading pseudopotential file '/data2/jt577/jdftx_eat_withLibXC/build/pseudopotentials/SG15/V_ONCV_PBE.upf':
  'V' pseudopotential, 'PBE' functional
  Generated using ONCVPSP code by D. R. Hamann
  Author: Martin Schlipf and Francois Gygi  Date: 150915.
  13 valence electrons, 4 orbitals, 6 projectors, 1536 radial grid points, with lMax = 2
  Transforming local potential to a uniform radial grid of dG=0.02 with 1419 points.
  Transforming nonlocal projectors to a uniform radial grid of dG=0.02 with 528 points.
    3S    l: 0   occupation:  2.0   eigenvalue: -2.581105
    3P    l: 1   occupation:  6.0   eigenvalue: -1.618486
    4S    l: 0   occupation:  2.0   eigenvalue: -0.172804
    3D    l: 2   occupation:  3.0   eigenvalue: -0.189795
  Transforming atomic orbitals to a uniform radial grid of dG=0.02 with 528 points.
  Core radius for overlap checks: 1.80 bohrs.
  Reading pulay file /data2/jt577/jdftx_eat_withLibXC/build/pseudopotentials/SG15/V_ONCV_PBE.pulay ... using dE_dnG = -1.698632e-04 computed for Ecut = 30.

Reading pseudopotential file '/data2/jt577/jdftx_eat_withLibXC/build/pseudopotentials/SG15/Co_ONCV_PBE.upf':
  'Co' pseudopotential, 'PBE' functional
  Generated using ONCVPSP code by D. R. Hamann
  Author: Martin Schlipf and Francois Gygi  Date: 150915.
  17 valence electrons, 4 orbitals, 6 projectors, 1388 radial grid points, with lMax = 2
  Transforming local potential to a uniform radial grid of dG=0.02 with 1419 points.
  Transforming nonlocal projectors to a uniform radial grid of dG=0.02 with 528 points.
    3S    l: 0   occupation:  2.0   eigenvalue: -3.763303
    3P    l: 1   occupation:  6.0   eigenvalue: -2.412101
    4S    l: 0   occupation:  2.0   eigenvalue: -0.201022
    3D    l: 2   occupation:  7.0   eigenvalue: -0.301498
  Transforming atomic orbitals to a uniform radial grid of dG=0.02 with 528 points.
  Core radius for overlap checks: 1.94 bohrs.
  Reading pulay file /data2/jt577/jdftx_eat_withLibXC/build/pseudopotentials/SG15/Co_ONCV_PBE.pulay ... using dE_dnG = -9.787391e-05 computed for Ecut = 30.

Reading pseudopotential file '/data2/jt577/jdftx_eat_withLibXC/build/pseudopotentials/SG15/Cr_ONCV_PBE.upf':
  'Cr' pseudopotential, 'PBE' functional
  Generated using ONCVPSP code by D. R. Hamann
  Author: Martin Schlipf and Francois Gygi  Date: 150915.
  14 valence electrons, 4 orbitals, 6 projectors, 1160 radial grid points, with lMax = 2
  Transforming local potential to a uniform radial grid of dG=0.02 with 1419 points.
  Transforming nonlocal projectors to a uniform radial grid of dG=0.02 with 528 points.
    3S    l: 0   occupation:  2.0   eigenvalue: -2.865131
    3P    l: 1   occupation:  6.0   eigenvalue: -1.810600
    4S    l: 0   occupation:  2.0   eigenvalue: -0.180525
    3D    l: 2   occupation:  4.0   eigenvalue: -0.220312
  Transforming atomic orbitals to a uniform radial grid of dG=0.02 with 528 points.
  WARNING: large normalization error in atomic orbital 1s (integral: 0.000001).
  Core radius for overlap checks: 2.10 bohrs.
  Reading pulay file /data2/jt577/jdftx_eat_withLibXC/build/pseudopotentials/SG15/Cr_ONCV_PBE.pulay ... using dE_dnG = -9.817895e-06 computed for Ecut = 30.

Reading pseudopotential file '/data2/jt577/jdftx_eat_withLibXC/build/pseudopotentials/SG15/O_ONCV_PBE.upf':
  'O' pseudopotential, 'PBE' functional
  Generated using ONCVPSP code by D. R. Hamann
  Author: Martin Schlipf and Francois Gygi  Date: 150915.
  6 valence electrons, 2 orbitals, 4 projectors, 936 radial grid points, with lMax = 1
  Transforming local potential to a uniform radial grid of dG=0.02 with 1419 points.
  Transforming nonlocal projectors to a uniform radial grid of dG=0.02 with 528 points.
    2S    l: 0   occupation:  2.0   eigenvalue: -0.880572
    2P    l: 1   occupation:  4.0   eigenvalue: -0.331869
  Transforming atomic orbitals to a uniform radial grid of dG=0.02 with 528 points.
  Core radius for overlap checks: 1.29 bohrs.
  Reading pulay file /data2/jt577/jdftx_eat_withLibXC/build/pseudopotentials/SG15/O_ONCV_PBE.pulay ... using dE_dnG = -8.209514e-03 computed for Ecut = 30.

Initialized 5 species with 33 total atoms.

Folded 1 k-points by 3x3x1 to 9 k-points.

---------- Setting up k-points, bands, fillings ----------
No reducable k-points. 
Computing the number of bands and number of electrons
Calculating initial fillings.
nElectrons: 358.000000   nBands: 228   nStates: 18

----- Setting up reduced wavefunction bases (one per k-point) -----
average nbasis = 42312.000 , ideal nbasis = 42330.081

---------- Setting up ewald sum ----------
Optimum gaussian width for ewald sums = 3.906449 bohr.
Real space sum over 605 unit cells with max indices [  5  5  2  ]
Reciprocal space sum over 5915 terms with max indices [  6  6  17  ]

---------- Allocating electronic variables ----------
Initializing wave functions:  linear combination of atomic orbitals
Ni (M=1) pseudo-atom majority spin occupations:   s ( 1 0.5 )  p ( 3 )  d ( 5 )
Ni (M=1) pseudo-atom minority spin occupations:   s ( 1 0 )  p ( 3 )  d ( 4.5 )
V (M=1) pseudo-atom majority spin occupations:   s ( 1 0 )  p ( 3 )  d ( 3 )
V (M=1) pseudo-atom minority spin occupations:   s ( 1 0 )  p ( 3 )  d ( 2 )
Co (M=1) pseudo-atom majority spin occupations:   s ( 1 0 )  p ( 3 )  d ( 5 )
Co (M=1) pseudo-atom minority spin occupations:   s ( 1 0 )  p ( 3 )  d ( 4 )
Cr (M=1) pseudo-atom majority spin occupations:   s ( 1 0 )  p ( 3 )  d ( 3.5 )
Cr (M=1) pseudo-atom minority spin occupations:   s ( 1 0 )  p ( 3 )  d ( 2.5 )
O pseudo-atom occupations:   s ( 2 )  p ( 4 )
	FillingsUpdate:  mu: -0.291913101  nElectrons: 358.000000  magneticMoment: [ Abs: 0.50334  Tot: +0.00000 ]
LCAOMinimize: Iter:   0  F: -2024.0327906582838295  |grad|_K:  1.083e-02  alpha:  1.000e+00
LCAOMinimize: 	Step increased F by 8.999481e+00, reducing alpha to 1.756337e-02.
	FillingsUpdate:  mu: -0.290599636  nElectrons: 358.000000  magneticMoment: [ Abs: 0.55279  Tot: -0.00000 ]
LCAOMinimize: Iter:   1  F: -2025.9169289955975728  |grad|_K:  1.017e-02  alpha:  1.756e-02  linmin: -4.963e-02  cgtest:  1.012e+00  t[s]:    116.96
LCAOMinimize: Encountered beta<0, resetting CG.
LCAOMinimize: 	Wrong curvature in test step, increasing alphaT to 5.269010e-02.
	FillingsUpdate:  mu: -0.245637483  nElectrons: 358.000000  magneticMoment: [ Abs: 0.70303  Tot: +0.00000 ]
LCAOMinimize: Iter:   2  F: -2028.3421858443380188  |grad|_K:  1.531e-02  alpha: -2.118e-02  linmin: -6.633e-02  cgtest:  6.288e-01  t[s]:    145.95
LCAOMinimize: 	Step increased F by 2.213301e+02, reducing alpha to 3.065416e-02.
	FillingsUpdate:  mu: +0.183129831  nElectrons: 358.000000  magneticMoment: [ Abs: 1.15328  Tot: -0.00000 ]
LCAOMinimize: Iter:   3  F: -2046.3902696855229806  |grad|_K:  3.237e-02  alpha:  3.065e-02  linmin: -2.154e-02  cgtest:  5.796e-02  t[s]:    200.15
LCAOMinimize: 	Step increased F by 1.356185e+01, reducing alpha to 5.702988e-04.
	FillingsUpdate:  mu: +0.201914305  nElectrons: 358.000000  magneticMoment: [ Abs: 1.09785  Tot: +0.00000 ]
LCAOMinimize: Iter:   4  F: -2048.3091169241783973  |grad|_K:  3.639e-02  alpha:  5.703e-04  linmin: -3.640e-02  cgtest:  8.541e-01  t[s]:    254.04
LCAOMinimize: 	Wrong curvature in test step, increasing alphaT to 1.710896e-03.
	FillingsUpdate:  mu: +0.204877770  nElectrons: 358.000000  magneticMoment: [ Abs: 1.14863  Tot: -0.00000 ]
LCAOMinimize: Iter:   5  F: -2050.5700266650019330  |grad|_K:  3.558e-02  alpha: -2.012e-03  linmin: -4.533e-02  cgtest:  9.350e-01  t[s]:    285.93
LCAOMinimize: 	Step increased F by 1.315466e+02, reducing alpha to 4.283211e-02.
	FillingsUpdate:  mu: +0.143082850  nElectrons: 358.000000  magneticMoment: [ Abs: 0.50767  Tot: -0.00000 ]
LCAOMinimize: Iter:   6  F: -2056.7092696904492186  |grad|_K:  1.403e-02  alpha:  4.283e-02  linmin:  1.612e-02  cgtest: -2.174e+00  t[s]:    341.63
LCAOMinimize: 	Wrong curvature in test step, increasing alphaT to 1.284963e-01.
	FillingsUpdate:  mu: +0.845281510  nElectrons: 358.000000  magneticMoment: [ Abs: 1.80673  Tot: -0.00000 ]
LCAOMinimize: Iter:   7  F: -2071.1136070040670347  |grad|_K:  1.638e-02  alpha: -9.841e-03  linmin:  1.187e-02  cgtest:  3.311e-01  t[s]:    370.93
LCAOMinimize: 	Step increased F by 1.187388e+02, reducing alpha to 1.617644e-02.
LCAOMinimize: 	Step increased F by 3.794772e+00, reducing alpha to 1.617644e-03.
	FillingsUpdate:  mu: +0.789569932  nElectrons: 358.000000  magneticMoment: [ Abs: 2.11897  Tot: -0.00000 ]
LCAOMinimize: Iter:   8  F: -2071.4834549144934499  |grad|_K:  1.595e-02  alpha:  1.618e-03  linmin: -1.268e-02  cgtest:  9.386e-01  t[s]:    448.69
LCAOMinimize: 	Predicted alpha/alphaT>3.000000, increasing alphaT to 4.852932e-03.
LCAOMinimize: 	Predicted alpha/alphaT>3.000000, increasing alphaT to 1.455880e-02.
LCAOMinimize: 	Predicted alpha/alphaT>3.000000, increasing alphaT to 4.367639e-02.
LCAOMinimize: 	Step increased F by 1.878415e-01, reducing alpha to 8.399655e-03.
	FillingsUpdate:  mu: +0.678486642  nElectrons: 358.000000  magneticMoment: [ Abs: 2.10238  Tot: -0.00000 ]
LCAOMinimize: Iter:   9  F: -2073.3636499473136610  |grad|_K:  1.454e-02  alpha:  8.400e-03  linmin: -8.424e-02  cgtest:  9.397e-01  t[s]:    519.39
LCAOMinimize: Encountered beta<0, resetting CG.
LCAOMinimize: 	Wrong curvature in test step, increasing alphaT to 2.519896e-02.
	FillingsUpdate:  mu: +0.590000785  nElectrons: 358.000000  magneticMoment: [ Abs: 2.15523  Tot: +0.00000 ]
LCAOMinimize: Iter:  10  F: -2075.0547881595011859  |grad|_K:  1.428e-02  alpha: -4.657e-01  linmin: -9.885e-02  cgtest:  8.750e-01  t[s]:    548.18
LCAOMinimize: 	Step increased F by 8.144859e+01, reducing alpha to 2.346472e-02.
	FillingsUpdate:  mu: +0.087365538  nElectrons: 358.000000  magneticMoment: [ Abs: 3.54828  Tot: -0.00000 ]
LCAOMinimize: Iter:  11  F: -2078.9375843536695356  |grad|_K:  1.457e-02  alpha:  2.346e-02  linmin:  2.408e-02  cgtest: -4.552e-02  t[s]:    603.39
LCAOMinimize: 	Predicted alpha/alphaT>3.000000, increasing alphaT to 7.039417e-02.
	FillingsUpdate:  mu: +0.014882952  nElectrons: 358.000000  magneticMoment: [ Abs: 3.90386  Tot: -0.00000 ]
LCAOMinimize: Iter:  12  F: -2080.7382883170985224  |grad|_K:  1.832e-02  alpha:  7.091e-03  linmin: -6.083e-02  cgtest:  8.217e-01  t[s]:    643.55
	FillingsUpdate:  mu: -0.028699191  nElectrons: 358.000000  magneticMoment: [ Abs: 3.86011  Tot: -0.00000 ]
LCAOMinimize: Iter:  13  F: -2083.3870672717503112  |grad|_K:  1.057e-02  alpha:  8.724e-03  linmin: -6.343e-02  cgtest:  6.527e-01  t[s]:    675.67
LCAOMinimize: Encountered beta<0, resetting CG.
LCAOMinimize: 	Predicted alpha/alphaT>3.000000, increasing alphaT to 2.617219e-02.
LCAOMinimize: 	Predicted alpha/alphaT>3.000000, increasing alphaT to 7.851658e-02.
	FillingsUpdate:  mu: +0.109001319  nElectrons: 358.000000  magneticMoment: [ Abs: 4.11836  Tot: +0.00000 ]
LCAOMinimize: Iter:  14  F: -2084.8316644181727497  |grad|_K:  8.849e-03  alpha:  1.513e-02  linmin: -1.134e-01  cgtest:  4.417e-01  t[s]:    724.91
LCAOMinimize: 	Step increased F by 3.098351e+00, reducing alpha to 3.635263e-03.
	FillingsUpdate:  mu: +0.110921778  nElectrons: 358.000000  magneticMoment: [ Abs: 4.32288  Tot: -0.00000 ]
LCAOMinimize: Iter:  15  F: -2085.2506462939281846  |grad|_K:  9.230e-03  alpha:  3.635e-03  linmin: -1.058e-01  cgtest:  8.112e-01  t[s]:    779.73
LCAOMinimize: 	Wrong curvature in test step, increasing alphaT to 1.090579e-02.
	FillingsUpdate:  mu: +0.116232924  nElectrons: 358.000000  magneticMoment: [ Abs: 4.69252  Tot: -0.00000 ]
LCAOMinimize: Iter:  16  F: -2085.6664831702296397  |grad|_K:  7.815e-03  alpha: -1.189e-01  linmin: -9.268e-02  cgtest:  9.134e-01  t[s]:    808.65
LCAOMinimize: Encountered beta<0, resetting CG.
LCAOMinimize: 	Step increased F by 1.457305e+01, reducing alpha to 1.639144e-02.
	FillingsUpdate:  mu: +0.115935513  nElectrons: 358.000000  magneticMoment: [ Abs: 5.26896  Tot: -0.00000 ]
LCAOMinimize: Iter:  17  F: -2086.2658695486488796  |grad|_K:  5.363e-03  alpha:  1.639e-02  linmin: -8.700e-02  cgtest:  8.525e-01  t[s]:    863.97
LCAOMinimize: Encountered beta<0, resetting CG.
LCAOMinimize: 	Predicted alpha/alphaT>3.000000, increasing alphaT to 4.917433e-02.
	FillingsUpdate:  mu: +0.442952646  nElectrons: 358.000000  magneticMoment: [ Abs: 6.86775  Tot: -0.00000 ]
LCAOMinimize: Iter:  18  F: -2086.9100613852397146  |grad|_K:  1.517e-02  alpha:  7.300e-02  linmin:  2.296e-02  cgtest: -2.357e-01  t[s]:    905.23
LCAOMinimize: 	Bad step direction: g.d > 0.
LCAOMinimize: 	Undoing step.
LCAOMinimize: 	Step failed: resetting search direction.
	FillingsUpdate:  mu: +0.442952646  nElectrons: 358.000000  magneticMoment: [ Abs: 6.86775  Tot: -0.00000 ]
LCAOMinimize: Iter:  19  F: -2086.9100613852397146  |grad|_K:  1.517e-02  alpha:  0.000e+00
LCAOMinimize: 	Step increased F by 2.599221e-01, reducing alpha to 2.922461e-03.
	FillingsUpdate:  mu: +0.302236678  nElectrons: 358.000000  magneticMoment: [ Abs: 6.92909  Tot: -0.00000 ]
LCAOMinimize: Iter:  20  F: -2087.4441483239193076  |grad|_K:  1.004e-02  alpha:  2.922e-03  linmin: -1.199e-01  cgtest:  9.942e-01  t[s]:    983.61
LCAOMinimize: Encountered beta<0, resetting CG.
LCAOMinimize: 	Predicted alpha/alphaT>3.000000, increasing alphaT to 8.767383e-03.
	FillingsUpdate:  mu: +0.095447102  nElectrons: 358.000000  magneticMoment: [ Abs: 7.05880  Tot: -0.00000 ]
LCAOMinimize: Iter:  21  F: -2087.9194291268936468  |grad|_K:  4.496e-03  alpha:  9.871e-03  linmin: -2.441e-02  cgtest:  1.201e-01  t[s]:   1024.06
LCAOMinimize: 	Predicted alpha/alphaT>3.000000, increasing alphaT to 2.961425e-02.
LCAOMinimize: 	Predicted alpha/alphaT>3.000000, increasing alphaT to 8.884276e-02.
	FillingsUpdate:  mu: -0.068525853  nElectrons: 358.000000  magneticMoment: [ Abs: 6.30787  Tot: +0.00000 ]
LCAOMinimize: Iter:  22  F: -2088.9156372175284559  |grad|_K:  5.382e-03  alpha:  1.022e-01  linmin:  1.290e-02  cgtest: -1.512e-01  t[s]:   1072.89
	FillingsUpdate:  mu: -0.056895003  nElectrons: 358.000000  magneticMoment: [ Abs: 6.47755  Tot: -0.00000 ]
LCAOMinimize: Iter:  23  F: -2088.9386994902552033  |grad|_K:  5.170e-03  alpha:  3.412e-03  linmin:  1.674e-02  cgtest:  9.115e-01  t[s]:   1104.59
LCAOMinimize: 	Predicted alpha/alphaT>3.000000, increasing alphaT to 1.023704e-02.
	FillingsUpdate:  mu: +0.043386745  nElectrons: 358.000000  magneticMoment: [ Abs: 6.75839  Tot: +0.00000 ]
LCAOMinimize: Iter:  24  F: -2089.1624309469925720  |grad|_K:  4.680e-03  alpha:  1.981e-02  linmin:  1.647e-02  cgtest: -1.598e-01  t[s]:   1145.30
	FillingsUpdate:  mu: +0.052492533  nElectrons: 358.000000  magneticMoment: [ Abs: 7.29137  Tot: +0.00000 ]
LCAOMinimize: Iter:  25  F: -2089.2811009622823804  |grad|_K:  3.156e-03  alpha:  1.340e-02  linmin:  1.766e-04  cgtest:  6.803e-01  t[s]:   1177.05
LCAOMinimize: Encountered beta<0, resetting CG.
	FillingsUpdate:  mu: +0.008466727  nElectrons: 358.000000  magneticMoment: [ Abs: 7.33784  Tot: -0.00000 ]
LCAOMinimize: Iter:  26  F: -2089.3416858789705657  |grad|_K:  1.647e-03  alpha:  1.281e-02  linmin:  9.002e-03  cgtest: -9.450e-02  t[s]:   1208.75
	FillingsUpdate:  mu: -0.000300637  nElectrons: 358.000000  magneticMoment: [ Abs: 7.31222  Tot: -0.00000 ]
LCAOMinimize: Iter:  27  F: -2089.3638303608463502  |grad|_K:  1.035e-03  alpha:  1.838e-02  linmin: -2.088e-03  cgtest:  2.914e-01  t[s]:   1240.38
	FillingsUpdate:  mu: +0.017558820  nElectrons: 358.000000  magneticMoment: [ Abs: 7.46239  Tot: +0.00000 ]
LCAOMinimize: Iter:  28  F: -2089.3829164850540110  |grad|_K:  1.499e-03  alpha:  3.669e-02  linmin: -3.003e-04  cgtest: -1.869e-02  t[s]:   1272.04
	FillingsUpdate:  mu: +0.017243038  nElectrons: 358.000000  magneticMoment: [ Abs: 7.74965  Tot: +0.00000 ]
LCAOMinimize: Iter:  29  F: -2089.4049974547601778  |grad|_K:  1.069e-03  alpha:  1.905e-02  linmin: -5.081e-04  cgtest:  3.240e-02  t[s]:   1303.64
	FillingsUpdate:  mu: +0.004839125  nElectrons: 358.000000  magneticMoment: [ Abs: 7.95942  Tot: +0.00000 ]
LCAOMinimize: Iter:  30  F: -2089.4307061408235313  |grad|_K:  9.346e-04  alpha:  4.470e-02  linmin: -8.907e-04  cgtest:  1.832e-01  t[s]:   1335.23
LCAOMinimize: None of the convergence criteria satisfied after 30 iterations.


---- Citations for features of the code used in this run ----

   Software package:
      R. Sundararaman, K. Letchworth-Weaver, K.A. Schwarz, D. Gunceler, Y. Ozhabes and T.A. Arias, 'JDFTx: software for joint density-functional theory', SoftwareX 6, 278 (2017)

   Simplified rotationally-invariant DFT+U:
      S. L. Dudarev et al., Phys. Rev. B 57, 1505 (1998)

   LibXC library of exchange-correlation functions:
      M. A. L. Marques, M. J. T. Oliveira and T. Burnus, Comput. Phys. Commun. 183, 2272 (2012)

   Hammer, Hansen, and Norskov exchange functional:
      B. Hammer, L. B. Hansen, and J. K. Nørskov, Phys. Rev. B 59, 7413 (1999)

   Perdew, Burke & Ernzerhof correlation functional:
      J. P. Perdew, K. Burke, and M. Ernzerhof, Phys. Rev. Lett. 77, 3865 (1996)

   Pseudopotentials:
      M Schlipf and F Gygi, Comput. Phys. Commun. 196, 36 (2015)

   Total energy minimization with Auxiliary Hamiltonian:
      C. Freysoldt, S. Boeck, and J. Neugebauer, Phys. Rev. B 79, 241103(R) (2009)

This list may not be complete. Please suggest additional citations or
report any other bugs at https://github.com/shankar1729/jdftx/issues

Initialization completed successfully at t[s]:   1346.93


-------- Electronic minimization -----------
	FillingsUpdate:  mu: +0.004839167  nElectrons: 358.000000  magneticMoment: [ Abs: 7.95942  Tot: +0.00000 ]
ElecMinimize: Iter:   0  F: -2089.430706140828079  |grad|_K:  1.132e-03  alpha:  1.000e+00
	FillingsUpdate:  mu: +0.929728837  nElectrons: 358.000000  magneticMoment: [ Abs: 8.84907  Tot: -0.00000 ]
	SubspaceRotationAdjust: set factor to 0.992
ElecMinimize: Iter:   1  F: -2145.942479085481409  |grad|_K:  1.566e-03  alpha:  4.682e-01  linmin:  8.488e-03  t[s]:   1453.27
ElecMinimize: 	Step increased F by 9.144623e+01, reducing alpha to 9.601732e-03.
	FillingsUpdate:  mu: +0.493778509  nElectrons: 358.000000  magneticMoment: [ Abs: 9.57895  Tot: +0.00000 ]
	SubspaceRotationAdjust: set factor to 1.62
ElecMinimize: Iter:   2  F: -2150.508296191351747  |grad|_K:  9.624e-04  alpha:  9.602e-03  linmin: -4.029e-03  t[s]:   1571.78
	FillingsUpdate:  mu: +0.521302791  nElectrons: 358.000000  magneticMoment: [ Abs: 9.60017  Tot: +0.00000 ]
	SubspaceRotationAdjust: set factor to 1.51
ElecMinimize: Iter:   3  F: -2153.430633570111240  |grad|_K:  1.163e-03  alpha:  1.309e-02  linmin: -1.676e-03  t[s]:   1643.17
ElecMinimize: 	Predicted alpha/alphaT>3.000000, increasing alphaT to 3.926959e-02.
	FillingsUpdate:  mu: +0.258284462  nElectrons: 358.000000  magneticMoment: [ Abs: 9.92805  Tot: -0.00000 ]
	SubspaceRotationAdjust: set factor to 0.94
ElecMinimize: Iter:   4  F: -2175.530741077235689  |grad|_K:  1.119e-03  alpha:  6.724e-02  linmin: -4.274e-05  t[s]:   1735.43
	FillingsUpdate:  mu: +0.174183946  nElectrons: 358.000000  magneticMoment: [ Abs: 10.69957  Tot: +0.00000 ]
	SubspaceRotationAdjust: set factor to 0.994
ElecMinimize: Iter:   5  F: -2179.572723730963389  |grad|_K:  6.330e-04  alpha:  1.412e-02  linmin: -1.315e-03  t[s]:   1807.59
ElecMinimize: 	Predicted alpha/alphaT>3.000000, increasing alphaT to 4.236189e-02.
	FillingsUpdate:  mu: +0.699653069  nElectrons: 358.000000  magneticMoment: [ Abs: 16.56107  Tot: +0.00000 ]
	SubspaceRotationAdjust: set factor to 0.54
ElecMinimize: Iter:   6  F: -2179.817697793603656  |grad|_K:  1.597e-03  alpha:  6.869e-02  linmin:  7.006e-03  t[s]:   1898.93
ElecMinimize: 	Bad step direction: g.d > 0.
ElecMinimize: 	Undoing step.
ElecMinimize: 	Step failed: resetting search direction.
	FillingsUpdate:  mu: +0.699653069  nElectrons: 358.000000  magneticMoment: [ Abs: 16.56107  Tot: +0.00000 ]
	SubspaceRotationAdjust: set factor to 0.313
ElecMinimize: Iter:   7  F: -2179.817697793607294  |grad|_K:  1.215e-03  alpha:  0.000e+00
	FillingsUpdate:  mu: +0.932803108  nElectrons: 358.000000  magneticMoment: [ Abs: 15.67578  Tot: -0.00000 ]
	SubspaceRotationAdjust: set factor to 0.163
ElecMinimize: Iter:   8  F: -2184.741701038334213  |grad|_K:  8.916e-04  alpha:  3.052e-02  linmin:  1.849e-02  t[s]:   2022.68
	FillingsUpdate:  mu: +0.132882244  nElectrons: 358.000000  magneticMoment: [ Abs: 13.51828  Tot: +0.00000 ]
	SubspaceRotationAdjust: set factor to 0.122
	SubspaceRotationAdjust: resetting CG because factor has changed by 0.122223
ElecMinimize: 	State modified externally: resetting search direction.
ElecMinimize: Iter:   9  F: -2190.327277721995870  |grad|_K:  2.957e-04  alpha:  6.490e-02
ElecMinimize: 	Predicted alpha/alphaT>3.000000, increasing alphaT to 1.946862e-01.
	FillingsUpdate:  mu: +0.081995541  nElectrons: 358.000000  magneticMoment: [ Abs: 14.46811  Tot: +0.00000 ]
	SubspaceRotationAdjust: set factor to 0.0461
ElecMinimize: Iter:  10  F: -2192.309585410716863  |grad|_K:  1.687e-04  alpha:  1.017e-01  linmin:  8.592e-05  t[s]:   2219.16
	FillingsUpdate:  mu: +0.235255903  nElectrons: 358.000000  magneticMoment: [ Abs: 15.60485  Tot: +0.00000 ]
	SubspaceRotationAdjust: set factor to 0.0652
ElecMinimize: Iter:  11  F: -2193.209116635282953  |grad|_K:  9.242e-05  alpha:  1.803e-01  linmin: -6.248e-04  t[s]:   2290.78
	FillingsUpdate:  mu: +0.177854059  nElectrons: 358.000000  magneticMoment: [ Abs: 15.94773  Tot: -0.00000 ]
	SubspaceRotationAdjust: set factor to 0.0648
ElecMinimize: Iter:  12  F: -2193.566334179357000  |grad|_K:  6.805e-05  alpha:  2.323e-01  linmin: -3.187e-04  t[s]:   2363.05
	FillingsUpdate:  mu: +0.112990402  nElectrons: 358.000000  magneticMoment: [ Abs: 16.34933  Tot: -0.00000 ]
	SubspaceRotationAdjust: set factor to 0.0806
ElecMinimize: Iter:  13  F: -2193.815615680374322  |grad|_K:  5.854e-05  alpha:  3.029e-01  linmin: -2.124e-04  t[s]:   2435.61
	FillingsUpdate:  mu: +0.095281215  nElectrons: 358.000000  magneticMoment: [ Abs: 16.91374  Tot: +0.00000 ]
	SubspaceRotationAdjust: set factor to 0.0839
ElecMinimize: Iter:  14  F: -2194.000854796060594  |grad|_K:  5.823e-05  alpha:  3.008e-01  linmin: -3.466e-04  t[s]:   2507.10
	FillingsUpdate:  mu: +0.097380571  nElectrons: 358.000000  magneticMoment: [ Abs: 17.46478  Tot: +0.00000 ]
	SubspaceRotationAdjust: set factor to 0.102
ElecMinimize: Iter:  15  F: -2194.156598275747001  |grad|_K:  4.674e-05  alpha:  2.477e-01  linmin: -1.970e-04  t[s]:   2579.42
	FillingsUpdate:  mu: +0.118264945  nElectrons: 358.000000  magneticMoment: [ Abs: 18.16273  Tot: -0.00000 ]
	SubspaceRotationAdjust: set factor to 0.118
ElecMinimize: Iter:  16  F: -2194.287109776242687  |grad|_K:  4.578e-05  alpha:  3.202e-01  linmin: -1.411e-04  t[s]:   2652.03
	FillingsUpdate:  mu: +0.115162768  nElectrons: 358.000000  magneticMoment: [ Abs: 19.00116  Tot: +0.00000 ]
	SubspaceRotationAdjust: set factor to 0.129
ElecMinimize: Iter:  17  F: -2194.395794977682726  |grad|_K:  4.628e-05  alpha:  2.821e-01  linmin: -8.836e-05  t[s]:   2725.54
	FillingsUpdate:  mu: +0.107054309  nElectrons: 358.000000  magneticMoment: [ Abs: 20.07326  Tot: +0.00000 ]
	SubspaceRotationAdjust: set factor to 0.158
ElecMinimize: Iter:  18  F: -2194.531374156875245  |grad|_K:  5.078e-05  alpha:  3.416e-01  linmin: -9.470e-05  t[s]:   2797.76
	FillingsUpdate:  mu: +0.110528307  nElectrons: 358.000000  magneticMoment: [ Abs: 21.15288  Tot: -0.00000 ]
	SubspaceRotationAdjust: set factor to 0.153
ElecMinimize: Iter:  19  F: -2194.683521684507468  |grad|_K:  5.770e-05  alpha:  3.146e-01  linmin: -7.241e-05  t[s]:   2870.04
	FillingsUpdate:  mu: +0.104274910  nElectrons: 358.000000  magneticMoment: [ Abs: 22.42793  Tot: +0.00000 ]
	SubspaceRotationAdjust: set factor to 0.138
ElecMinimize: Iter:  20  F: -2194.838627378671390  |grad|_K:  5.790e-05  alpha:  2.025e-01  linmin: -8.431e-05  t[s]:   2942.24
	FillingsUpdate:  mu: +0.111780604  nElectrons: 358.000000  magneticMoment: [ Abs: 23.40142  Tot: +0.00000 ]
	SubspaceRotationAdjust: set factor to 0.138
ElecMinimize: Iter:  21  F: -2194.949236436752471  |grad|_K:  6.318e-05  alpha:  1.642e-01  linmin:  3.772e-05  t[s]:   3013.90
	FillingsUpdate:  mu: +0.104976381  nElectrons: 358.000000  magneticMoment: [ Abs: 23.69899  Tot: -0.00000 ]
	SubspaceRotationAdjust: set factor to 0.164
ElecMinimize: Iter:  22  F: -2194.984732389527835  |grad|_K:  5.658e-05  alpha:  3.867e-02  linmin: -3.274e-04  t[s]:   3085.85
	FillingsUpdate:  mu: +0.107528913  nElectrons: 358.000000  magneticMoment: [ Abs: 24.17054  Tot: -0.00000 ]
	SubspaceRotationAdjust: set factor to 0.115
ElecMinimize: Iter:  23  F: -2195.030024301828689  |grad|_K:  7.228e-05  alpha:  6.387e-02  linmin:  2.480e-04  t[s]:   3158.00
	FillingsUpdate:  mu: +0.118423538  nElectrons: 358.000000  magneticMoment: [ Abs: 24.38204  Tot: +0.00000 ]
	SubspaceRotationAdjust: set factor to 0.0818
ElecMinimize: Iter:  24  F: -2195.041677112712478  |grad|_K:  6.909e-05  alpha:  1.443e-02  linmin: -1.646e-04  t[s]:   3229.44
	FillingsUpdate:  mu: +0.112875091  nElectrons: 358.000000  magneticMoment: [ Abs: 24.86218  Tot: -0.00000 ]
	SubspaceRotationAdjust: set factor to 0.0695
ElecMinimize: Iter:  25  F: -2195.072694105237133  |grad|_K:  5.484e-05  alpha:  3.570e-02  linmin:  3.399e-04  t[s]:   3300.87
	FillingsUpdate:  mu: +0.110781671  nElectrons: 358.000000  magneticMoment: [ Abs: 24.90114  Tot: -0.00000 ]
	SubspaceRotationAdjust: set factor to 0.0664
ElecMinimize: Iter:  26  F: -2195.075295618386008  |grad|_K:  5.031e-05  alpha:  5.510e-03  linmin: -2.403e-04  t[s]:   3371.49
	FillingsUpdate:  mu: +0.091625791  nElectrons: 358.000000  magneticMoment: [ Abs: 24.97474  Tot: -0.00000 ]
	SubspaceRotationAdjust: set factor to 0.0829
ElecMinimize: Iter:  27  F: -2195.083120922205126  |grad|_K:  4.200e-05  alpha:  1.581e-02  linmin:  2.792e-04  t[s]:   3442.86
	FillingsUpdate:  mu: +0.085764022  nElectrons: 358.000000  magneticMoment: [ Abs: 24.98701  Tot: -0.00000 ]
	SubspaceRotationAdjust: set factor to 0.0996
ElecMinimize: Iter:  28  F: -2195.084537677497792  |grad|_K:  4.133e-05  alpha:  5.799e-03  linmin: -5.684e-05  t[s]:   3513.37
	FillingsUpdate:  mu: +0.082963163  nElectrons: 358.000000  magneticMoment: [ Abs: 24.99373  Tot: +0.00000 ]
	SubspaceRotationAdjust: set factor to 0.122
ElecMinimize: Iter:  29  F: -2195.086688088569645  |grad|_K:  3.908e-05  alpha:  6.928e-03  linmin:  4.837e-05  t[s]:   3584.48
	FillingsUpdate:  mu: +0.083425842  nElectrons: 358.000000  magneticMoment: [ Abs: 24.99269  Tot: -0.00000 ]
	SubspaceRotationAdjust: set factor to 0.142
ElecMinimize: Iter:  30  F: -2195.087988511988897  |grad|_K:  3.803e-05  alpha:  5.034e-03  linmin:  4.801e-06  t[s]:   3655.03
	FillingsUpdate:  mu: +0.082784551  nElectrons: 358.000000  magneticMoment: [ Abs: 24.98734  Tot: -0.00000 ]
	SubspaceRotationAdjust: set factor to 0.156
ElecMinimize: Iter:  31  F: -2195.089103615577187  |grad|_K:  3.718e-05  alpha:  4.427e-03  linmin:  1.428e-05  t[s]:   3726.97
	FillingsUpdate:  mu: +0.081616519  nElectrons: 358.000000  magneticMoment: [ Abs: 24.97939  Tot: +0.00000 ]
	SubspaceRotationAdjust: set factor to 0.161
ElecMinimize: Iter:  32  F: -2195.090024129397989  |grad|_K:  3.661e-05  alpha:  3.851e-03  linmin:  1.181e-05  t[s]:   3798.12
	FillingsUpdate:  mu: +0.081377967  nElectrons: 358.000000  magneticMoment: [ Abs: 24.96986  Tot: -0.00000 ]
	SubspaceRotationAdjust: set factor to 0.157
ElecMinimize: Iter:  33  F: -2195.090837126379483  |grad|_K:  3.604e-05  alpha:  3.507e-03  linmin:  1.281e-05  t[s]:   3869.78
	FillingsUpdate:  mu: +0.082219531  nElectrons: 358.000000  magneticMoment: [ Abs: 24.95958  Tot: -0.00000 ]
	SubspaceRotationAdjust: set factor to 0.147
ElecMinimize: Iter:  34  F: -2195.091574734921323  |grad|_K:  3.528e-05  alpha:  3.286e-03  linmin:  1.356e-05  t[s]:   3942.21
	FillingsUpdate:  mu: +0.083679351  nElectrons: 358.000000  magneticMoment: [ Abs: 24.94924  Tot: +0.00000 ]
	SubspaceRotationAdjust: set factor to 0.134
ElecMinimize: Iter:  35  F: -2195.092254895495444  |grad|_K:  3.423e-05  alpha:  3.163e-03  linmin:  1.442e-05  t[s]:   4014.11
	FillingsUpdate:  mu: +0.084516296  nElectrons: 358.000000  magneticMoment: [ Abs: 24.93945  Tot: +0.00000 ]
	SubspaceRotationAdjust: set factor to 0.121
ElecMinimize: Iter:  36  F: -2195.092884057461561  |grad|_K:  3.291e-05  alpha:  3.111e-03  linmin:  1.476e-05  t[s]:   4085.88
	FillingsUpdate:  mu: +0.084595425  nElectrons: 358.000000  magneticMoment: [ Abs: 24.93064  Tot: +0.00000 ]
	SubspaceRotationAdjust: set factor to 0.11
ElecMinimize: Iter:  37  F: -2195.093464649198268  |grad|_K:  3.143e-05  alpha:  3.106e-03  linmin:  1.431e-05  t[s]:   4157.83
	FillingsUpdate:  mu: +0.084627439  nElectrons: 358.000000  magneticMoment: [ Abs: 24.92304  Tot: +0.00000 ]
	SubspaceRotationAdjust: set factor to 0.102
ElecMinimize: Iter:  38  F: -2195.093998655283031  |grad|_K:  2.993e-05  alpha:  3.130e-03  linmin:  1.306e-05  t[s]:   4230.49
	FillingsUpdate:  mu: +0.084764782  nElectrons: 358.000000  magneticMoment: [ Abs: 24.91675  Tot: -0.00000 ]
	SubspaceRotationAdjust: set factor to 0.0957
ElecMinimize: Iter:  39  F: -2195.094488995894608  |grad|_K:  2.853e-05  alpha:  3.166e-03  linmin:  1.123e-05  t[s]:   4303.22
	FillingsUpdate:  mu: +0.084812023  nElectrons: 358.000000  magneticMoment: [ Abs: 24.91173  Tot: -0.00000 ]
	SubspaceRotationAdjust: set factor to 0.092
ElecMinimize: Iter:  40  F: -2195.094939567926303  |grad|_K:  2.728e-05  alpha:  3.198e-03  linmin:  9.092e-06  t[s]:   4375.36
	FillingsUpdate:  mu: +0.084290154  nElectrons: 358.000000  magneticMoment: [ Abs: 24.90793  Tot: +0.00000 ]
	SubspaceRotationAdjust: set factor to 0.0901
ElecMinimize: Iter:  41  F: -2195.095354899715858  |grad|_K:  2.622e-05  alpha:  3.220e-03  linmin:  6.876e-06  t[s]:   4448.41
	FillingsUpdate:  mu: +0.083442026  nElectrons: 358.000000  magneticMoment: [ Abs: 24.90525  Tot: -0.00000 ]
	SubspaceRotationAdjust: set factor to 0.0895
ElecMinimize: Iter:  42  F: -2195.095739795529425  |grad|_K:  2.535e-05  alpha:  3.226e-03  linmin:  4.716e-06  t[s]:   4521.18
	FillingsUpdate:  mu: +0.082203936  nElectrons: 358.000000  magneticMoment: [ Abs: 24.90356  Tot: +0.00000 ]
	SubspaceRotationAdjust: set factor to 0.0898
ElecMinimize: Iter:  43  F: -2195.096099105904614  |grad|_K:  2.465e-05  alpha:  3.219e-03  linmin:  2.682e-06  t[s]:   4593.27
	FillingsUpdate:  mu: +0.080675430  nElectrons: 358.000000  magneticMoment: [ Abs: 24.90275  Tot: -0.00000 ]
	SubspaceRotationAdjust: set factor to 0.0903
ElecMinimize: Iter:  44  F: -2195.096437575208256  |grad|_K:  2.412e-05  alpha:  3.202e-03  linmin:  7.674e-07  t[s]:   4666.23
	FillingsUpdate:  mu: +0.079017338  nElectrons: 358.000000  magneticMoment: [ Abs: 24.90270  Tot: -0.00000 ]
	SubspaceRotationAdjust: set factor to 0.0905
ElecMinimize: Iter:  45  F: -2195.096759751517311  |grad|_K:  2.372e-05  alpha:  3.182e-03  linmin: -1.041e-06  t[s]:   4738.03
	FillingsUpdate:  mu: +0.077499960  nElectrons: 358.000000  magneticMoment: [ Abs: 24.90332  Tot: -0.00000 ]
	SubspaceRotationAdjust: set factor to 0.09
ElecMinimize: Iter:  46  F: -2195.097069883922813  |grad|_K:  2.343e-05  alpha:  3.164e-03  linmin: -2.795e-06  t[s]:   4809.99
	FillingsUpdate:  mu: +0.076209388  nElectrons: 358.000000  magneticMoment: [ Abs: 24.90452  Tot: +0.00000 ]
	SubspaceRotationAdjust: set factor to 0.0885
ElecMinimize: Iter:  47  F: -2195.097371806528827  |grad|_K:  2.321e-05  alpha:  3.156e-03  linmin: -4.547e-06  t[s]:   4882.56
	FillingsUpdate:  mu: +0.075061558  nElectrons: 358.000000  magneticMoment: [ Abs: 24.90621  Tot: +0.00000 ]
	SubspaceRotationAdjust: set factor to 0.0859
ElecMinimize: Iter:  48  F: -2195.097668789149793  |grad|_K:  2.302e-05  alpha:  3.162e-03  linmin: -6.331e-06  t[s]:   4954.28
	FillingsUpdate:  mu: +0.074693500  nElectrons: 358.000000  magneticMoment: [ Abs: 24.90831  Tot: -0.00000 ]
	SubspaceRotationAdjust: set factor to 0.0824
ElecMinimize: Iter:  49  F: -2195.097963373216771  |grad|_K:  2.284e-05  alpha:  3.184e-03  linmin: -8.200e-06  t[s]:   5025.93
	FillingsUpdate:  mu: +0.073999652  nElectrons: 358.000000  magneticMoment: [ Abs: 24.91075  Tot: -0.00000 ]
	SubspaceRotationAdjust: set factor to 0.0782
ElecMinimize: Iter:  50  F: -2195.098257252248914  |grad|_K:  2.264e-05  alpha:  3.224e-03  linmin: -1.020e-05  t[s]:   5098.16
	FillingsUpdate:  mu: +0.073187307  nElectrons: 358.000000  magneticMoment: [ Abs: 24.91346  Tot: +0.00000 ]
	SubspaceRotationAdjust: set factor to 0.0737
ElecMinimize: Iter:  51  F: -2195.098551229044006  |grad|_K:  2.239e-05  alpha:  3.282e-03  linmin: -1.233e-05  t[s]:   5170.65
	FillingsUpdate:  mu: +0.072518744  nElectrons: 358.000000  magneticMoment: [ Abs: 24.91639  Tot: +0.00000 ]
	SubspaceRotationAdjust: set factor to 0.0692
ElecMinimize: Iter:  52  F: -2195.098845264402826  |grad|_K:  2.208e-05  alpha:  3.354e-03  linmin: -1.462e-05  t[s]:   5243.38
	FillingsUpdate:  mu: +0.072074018  nElectrons: 358.000000  magneticMoment: [ Abs: 24.91948  Tot: -0.00000 ]
	SubspaceRotationAdjust: set factor to 0.0649
ElecMinimize: Iter:  53  F: -2195.099138669073454  |grad|_K:  2.172e-05  alpha:  3.437e-03  linmin: -1.705e-05  t[s]:   5315.26
	FillingsUpdate:  mu: +0.071759956  nElectrons: 358.000000  magneticMoment: [ Abs: 24.92270  Tot: -0.00000 ]
	SubspaceRotationAdjust: set factor to 0.0611
ElecMinimize: Iter:  54  F: -2195.099430337619197  |grad|_K:  2.132e-05  alpha:  3.528e-03  linmin: -1.960e-05  t[s]:   5387.15
	FillingsUpdate:  mu: +0.071464835  nElectrons: 358.000000  magneticMoment: [ Abs: 24.92608  Tot: -0.00000 ]
	SubspaceRotationAdjust: set factor to 0.0577
ElecMinimize: Iter:  55  F: -2195.099719050916065  |grad|_K:  2.089e-05  alpha:  3.623e-03  linmin: -2.224e-05  t[s]:   5459.64
	FillingsUpdate:  mu: +0.071124874  nElectrons: 358.000000  magneticMoment: [ Abs: 24.92964  Tot: -0.00000 ]
	SubspaceRotationAdjust: set factor to 0.0549
ElecMinimize: Iter:  56  F: -2195.100003724021917  |grad|_K:  2.046e-05  alpha:  3.717e-03  linmin: -2.490e-05  t[s]:   5532.64
	FillingsUpdate:  mu: +0.070711809  nElectrons: 358.000000  magneticMoment: [ Abs: 24.93338  Tot: +0.00000 ]
	SubspaceRotationAdjust: set factor to 0.0526
ElecMinimize: Iter:  57  F: -2195.100283606688208  |grad|_K:  2.004e-05  alpha:  3.809e-03  linmin: -2.755e-05  t[s]:   5605.31
	FillingsUpdate:  mu: +0.070193746  nElectrons: 358.000000  magneticMoment: [ Abs: 24.93740  Tot: +0.00000 ]
	SubspaceRotationAdjust: set factor to 0.0507
ElecMinimize: Iter:  58  F: -2195.100558405628817  |grad|_K:  1.965e-05  alpha:  3.895e-03  linmin: -3.011e-05  t[s]:   5678.20
	FillingsUpdate:  mu: +0.069744184  nElectrons: 358.000000  magneticMoment: [ Abs: 24.94174  Tot: +0.00000 ]
	SubspaceRotationAdjust: set factor to 0.0493
ElecMinimize: Iter:  59  F: -2195.100828310107772  |grad|_K:  1.931e-05  alpha:  3.976e-03  linmin: -3.255e-05  t[s]:   5751.38
	FillingsUpdate:  mu: +0.069965422  nElectrons: 358.000000  magneticMoment: [ Abs: 24.94652  Tot: -0.00000 ]
	SubspaceRotationAdjust: set factor to 0.0482
ElecMinimize: Iter:  60  F: -2195.101093975493768  |grad|_K:  1.903e-05  alpha:  4.050e-03  linmin: -3.481e-05  t[s]:   5824.23
	FillingsUpdate:  mu: +0.070389325  nElectrons: 358.000000  magneticMoment: [ Abs: 24.95181  Tot: -0.00000 ]
	SubspaceRotationAdjust: set factor to 0.0474
ElecMinimize: Iter:  61  F: -2195.101356445207330  |grad|_K:  1.882e-05  alpha:  4.116e-03  linmin: -3.686e-05  t[s]:   5896.17
	FillingsUpdate:  mu: +0.070770130  nElectrons: 358.000000  magneticMoment: [ Abs: 24.95774  Tot: +0.00000 ]
	SubspaceRotationAdjust: set factor to 0.0468
ElecMinimize: Iter:  62  F: -2195.101617063548474  |grad|_K:  1.869e-05  alpha:  4.176e-03  linmin: -3.867e-05  t[s]:   5968.29
	FillingsUpdate:  mu: +0.071099581  nElectrons: 358.000000  magneticMoment: [ Abs: 24.96445  Tot: -0.00000 ]
	SubspaceRotationAdjust: set factor to 0.0463
ElecMinimize: Iter:  63  F: -2195.101877365841574  |grad|_K:  1.862e-05  alpha:  4.230e-03  linmin: -4.024e-05  t[s]:   6041.65
	FillingsUpdate:  mu: +0.071742701  nElectrons: 358.000000  magneticMoment: [ Abs: 24.97206  Tot: +0.00000 ]
	SubspaceRotationAdjust: set factor to 0.0459
ElecMinimize: Iter:  64  F: -2195.102138969567477  |grad|_K:  1.862e-05  alpha:  4.279e-03  linmin: -4.159e-05  t[s]:   6114.30
	FillingsUpdate:  mu: +0.072429850  nElectrons: 358.000000  magneticMoment: [ Abs: 24.98073  Tot: -0.00000 ]
	SubspaceRotationAdjust: set factor to 0.0455
ElecMinimize: Iter:  65  F: -2195.102403458790832  |grad|_K:  1.868e-05  alpha:  4.324e-03  linmin: -4.276e-05  t[s]:   6186.92
	FillingsUpdate:  mu: +0.073411180  nElectrons: 358.000000  magneticMoment: [ Abs: 24.99059  Tot: +0.00000 ]
	SubspaceRotationAdjust: set factor to 0.0451
ElecMinimize: Iter:  66  F: -2195.102672266534228  |grad|_K:  1.878e-05  alpha:  4.365e-03  linmin: -4.380e-05  t[s]:   6259.61
	FillingsUpdate:  mu: +0.074479228  nElectrons: 358.000000  magneticMoment: [ Abs: 25.00177  Tot: +0.00000 ]
	SubspaceRotationAdjust: set factor to 0.0446
ElecMinimize: Iter:  67  F: -2195.102946560209602  |grad|_K:  1.892e-05  alpha:  4.403e-03  linmin: -4.473e-05  t[s]:   6331.42
	FillingsUpdate:  mu: +0.075319486  nElectrons: 358.000000  magneticMoment: [ Abs: 25.01440  Tot: -0.00000 ]
	SubspaceRotationAdjust: set factor to 0.0441
ElecMinimize: Iter:  68  F: -2195.103227129514380  |grad|_K:  1.907e-05  alpha:  4.437e-03  linmin: -4.561e-05  t[s]:   6403.81
	FillingsUpdate:  mu: +0.075743927  nElectrons: 358.000000  magneticMoment: [ Abs: 25.02853  Tot: +0.00000 ]
	SubspaceRotationAdjust: set factor to 0.0437
ElecMinimize: Iter:  69  F: -2195.103514311378603  |grad|_K:  1.921e-05  alpha:  4.468e-03  linmin: -4.649e-05  t[s]:   6476.20
	FillingsUpdate:  mu: +0.075899516  nElectrons: 358.000000  magneticMoment: [ Abs: 25.04424  Tot: -0.00000 ]
	SubspaceRotationAdjust: set factor to 0.0432
ElecMinimize: Iter:  70  F: -2195.103807948637041  |grad|_K:  1.935e-05  alpha:  4.495e-03  linmin: -4.738e-05  t[s]:   6549.04
	FillingsUpdate:  mu: +0.076198631  nElectrons: 358.000000  magneticMoment: [ Abs: 25.06152  Tot: +0.00000 ]
	SubspaceRotationAdjust: set factor to 0.0428
ElecMinimize: Iter:  71  F: -2195.104107403924900  |grad|_K:  1.947e-05  alpha:  4.517e-03  linmin: -4.835e-05  t[s]:   6621.93
	FillingsUpdate:  mu: +0.076766945  nElectrons: 358.000000  magneticMoment: [ Abs: 25.08035  Tot: -0.00000 ]
	SubspaceRotationAdjust: set factor to 0.0425
ElecMinimize: Iter:  72  F: -2195.104411648218957  |grad|_K:  1.955e-05  alpha:  4.533e-03  linmin: -4.941e-05  t[s]:   6694.71
	FillingsUpdate:  mu: +0.077482221  nElectrons: 358.000000  magneticMoment: [ Abs: 25.10065  Tot: +0.00000 ]
	SubspaceRotationAdjust: set factor to 0.0424
ElecMinimize: Iter:  73  F: -2195.104719390421451  |grad|_K:  1.961e-05  alpha:  4.542e-03  linmin: -5.061e-05  t[s]:   6766.50
	FillingsUpdate:  mu: +0.078207325  nElectrons: 358.000000  magneticMoment: [ Abs: 25.12233  Tot: -0.00000 ]
	SubspaceRotationAdjust: set factor to 0.0425
ElecMinimize: Iter:  74  F: -2195.105029261497748  |grad|_K:  1.965e-05  alpha:  4.544e-03  linmin: -5.196e-05  t[s]:   6839.39
	FillingsUpdate:  mu: +0.078895406  nElectrons: 358.000000  magneticMoment: [ Abs: 25.14528  Tot: +0.00000 ]
	SubspaceRotationAdjust: set factor to 0.0428
ElecMinimize: Iter:  75  F: -2195.105339980161261  |grad|_K:  1.967e-05  alpha:  4.537e-03  linmin: -5.351e-05  t[s]:   6912.93
	FillingsUpdate:  mu: +0.079587339  nElectrons: 358.000000  magneticMoment: [ Abs: 25.16937  Tot: -0.00000 ]
	SubspaceRotationAdjust: set factor to 0.0434
ElecMinimize: Iter:  76  F: -2195.105650525320016  |grad|_K:  1.969e-05  alpha:  4.521e-03  linmin: -5.525e-05  t[s]:   6985.70
	FillingsUpdate:  mu: +0.080289221  nElectrons: 358.000000  magneticMoment: [ Abs: 25.19452  Tot: +0.00000 ]
	SubspaceRotationAdjust: set factor to 0.0442
ElecMinimize: Iter:  77  F: -2195.105960233170208  |grad|_K:  1.973e-05  alpha:  4.496e-03  linmin: -5.720e-05  t[s]:   7058.61
	FillingsUpdate:  mu: +0.080988447  nElectrons: 358.000000  magneticMoment: [ Abs: 25.22063  Tot: -0.00000 ]
	SubspaceRotationAdjust: set factor to 0.0454
ElecMinimize: Iter:  78  F: -2195.106268875468231  |grad|_K:  1.979e-05  alpha:  4.462e-03  linmin: -5.935e-05  t[s]:   7131.18
	FillingsUpdate:  mu: +0.081761037  nElectrons: 358.000000  magneticMoment: [ Abs: 25.24766  Tot: -0.00000 ]
	SubspaceRotationAdjust: set factor to 0.047
ElecMinimize: Iter:  79  F: -2195.106576672745632  |grad|_K:  1.990e-05  alpha:  4.417e-03  linmin: -6.165e-05  t[s]:   7203.93
	FillingsUpdate:  mu: +0.082386544  nElectrons: 358.000000  magneticMoment: [ Abs: 25.27560  Tot: -0.00000 ]
	SubspaceRotationAdjust: set factor to 0.0489
ElecMinimize: Iter:  80  F: -2195.106884264744167  |grad|_K:  2.006e-05  alpha:  4.362e-03  linmin: -6.411e-05  t[s]:   7276.56
	FillingsUpdate:  mu: +0.082687881  nElectrons: 358.000000  magneticMoment: [ Abs: 25.30446  Tot: +0.00000 ]
	SubspaceRotationAdjust: set factor to 0.0512
ElecMinimize: Iter:  81  F: -2195.107192671519897  |grad|_K:  2.029e-05  alpha:  4.299e-03  linmin: -6.665e-05  t[s]:   7351.61
	FillingsUpdate:  mu: +0.082769719  nElectrons: 358.000000  magneticMoment: [ Abs: 25.33426  Tot: +0.00000 ]
	SubspaceRotationAdjust: set factor to 0.0538
ElecMinimize: Iter:  82  F: -2195.107503221297065  |grad|_K:  2.059e-05  alpha:  4.227e-03  linmin: -6.924e-05  t[s]:   7427.16
	FillingsUpdate:  mu: +0.082448162  nElectrons: 358.000000  magneticMoment: [ Abs: 25.36509  Tot: -0.00000 ]
	SubspaceRotationAdjust: set factor to 0.0567
ElecMinimize: Iter:  83  F: -2195.107817477583012  |grad|_K:  2.096e-05  alpha:  4.148e-03  linmin: -7.183e-05  t[s]:   7502.82
	FillingsUpdate:  mu: +0.082387138  nElectrons: 358.000000  magneticMoment: [ Abs: 25.39700  Tot: +0.00000 ]
	SubspaceRotationAdjust: set factor to 0.0598
ElecMinimize: Iter:  84  F: -2195.108137151039955  |grad|_K:  2.141e-05  alpha:  4.064e-03  linmin: -7.440e-05  t[s]:   7577.22
	FillingsUpdate:  mu: +0.082870014  nElectrons: 358.000000  magneticMoment: [ Abs: 25.43006  Tot: +0.00000 ]
	SubspaceRotationAdjust: set factor to 0.0632
ElecMinimize: Iter:  85  F: -2195.108464010651460  |grad|_K:  2.193e-05  alpha:  3.977e-03  linmin: -7.691e-05  t[s]:   7652.11
	FillingsUpdate:  mu: +0.083460940  nElectrons: 358.000000  magneticMoment: [ Abs: 25.46430  Tot: +0.00000 ]
	SubspaceRotationAdjust: set factor to 0.0667
ElecMinimize: Iter:  86  F: -2195.108799765054755  |grad|_K:  2.250e-05  alpha:  3.888e-03  linmin: -7.933e-05  t[s]:   7725.38
	FillingsUpdate:  mu: +0.083835354  nElectrons: 358.000000  magneticMoment: [ Abs: 25.49976  Tot: -0.00000 ]
	SubspaceRotationAdjust: set factor to 0.0704
ElecMinimize: Iter:  87  F: -2195.109145936159621  |grad|_K:  2.313e-05  alpha:  3.799e-03  linmin: -8.161e-05  t[s]:   7798.27
	FillingsUpdate:  mu: +0.084084820  nElectrons: 358.000000  magneticMoment: [ Abs: 25.53644  Tot: -0.00000 ]
	SubspaceRotationAdjust: set factor to 0.0743
ElecMinimize: Iter:  88  F: -2195.109503724434035  |grad|_K:  2.380e-05  alpha:  3.708e-03  linmin: -8.371e-05  t[s]:   7871.15
	FillingsUpdate:  mu: +0.084208783  nElectrons: 358.000000  magneticMoment: [ Abs: 25.57426  Tot: -0.00000 ]
	SubspaceRotationAdjust: set factor to 0.0784
ElecMinimize: Iter:  89  F: -2195.109873861846154  |grad|_K:  2.449e-05  alpha:  3.617e-03  linmin: -8.554e-05  t[s]:   7943.69
	FillingsUpdate:  mu: +0.084340645  nElectrons: 358.000000  magneticMoment: [ Abs: 25.61314  Tot: -0.00000 ]
	SubspaceRotationAdjust: set factor to 0.083
ElecMinimize: Iter:  90  F: -2195.110256491872860  |grad|_K:  2.518e-05  alpha:  3.525e-03  linmin: -8.707e-05  t[s]:   8016.57
	FillingsUpdate:  mu: +0.084551367  nElectrons: 358.000000  magneticMoment: [ Abs: 25.65291  Tot: +0.00000 ]
	SubspaceRotationAdjust: set factor to 0.0882
ElecMinimize: Iter:  91  F: -2195.110651101014355  |grad|_K:  2.588e-05  alpha:  3.429e-03  linmin: -8.818e-05  t[s]:   8089.24
	FillingsUpdate:  mu: +0.084760707  nElectrons: 358.000000  magneticMoment: [ Abs: 25.69340  Tot: +0.00000 ]
	SubspaceRotationAdjust: set factor to 0.0941
ElecMinimize: Iter:  92  F: -2195.111056501699750  |grad|_K:  2.656e-05  alpha:  3.330e-03  linmin: -8.882e-05  t[s]:   8162.31
	FillingsUpdate:  mu: +0.084874535  nElectrons: 358.000000  magneticMoment: [ Abs: 25.73438  Tot: -0.00000 ]
	SubspaceRotationAdjust: set factor to 0.101
ElecMinimize: Iter:  93  F: -2195.111470913382618  |grad|_K:  2.723e-05  alpha:  3.226e-03  linmin: -8.892e-05  t[s]:   8235.44
	FillingsUpdate:  mu: +0.084844117  nElectrons: 358.000000  magneticMoment: [ Abs: 25.77562  Tot: -0.00000 ]
	SubspaceRotationAdjust: set factor to 0.109
ElecMinimize: Iter:  94  F: -2195.111892115249248  |grad|_K:  2.787e-05  alpha:  3.117e-03  linmin: -8.845e-05  t[s]:   8308.49
	FillingsUpdate:  mu: +0.084678695  nElectrons: 358.000000  magneticMoment: [ Abs: 25.81692  Tot: -0.00000 ]
	SubspaceRotationAdjust: set factor to 0.119
ElecMinimize: Iter:  95  F: -2195.112317664467810  |grad|_K:  2.850e-05  alpha:  3.002e-03  linmin: -8.742e-05  t[s]:   8381.36
	FillingsUpdate:  mu: +0.084481280  nElectrons: 358.000000  magneticMoment: [ Abs: 25.85817  Tot: -0.00000 ]
	SubspaceRotationAdjust: set factor to 0.131
ElecMinimize: Iter:  96  F: -2195.112745147314399  |grad|_K:  2.911e-05  alpha:  2.883e-03  linmin: -8.584e-05  t[s]:   8453.75
	FillingsUpdate:  mu: +0.084475960  nElectrons: 358.000000  magneticMoment: [ Abs: 25.89927  Tot: +0.00000 ]
	SubspaceRotationAdjust: set factor to 0.145
ElecMinimize: Iter:  97  F: -2195.113172428887083  |grad|_K:  2.973e-05  alpha:  2.760e-03  linmin: -8.381e-05  t[s]:   8526.39
	FillingsUpdate:  mu: +0.084715163  nElectrons: 358.000000  magneticMoment: [ Abs: 25.94024  Tot: -0.00000 ]
	SubspaceRotationAdjust: set factor to 0.161
ElecMinimize: Iter:  98  F: -2195.113597876597396  |grad|_K:  3.035e-05  alpha:  2.636e-03  linmin: -8.139e-05  t[s]:   8598.72
	FillingsUpdate:  mu: +0.085264333  nElectrons: 358.000000  magneticMoment: [ Abs: 25.98121  Tot: -0.00000 ]
	SubspaceRotationAdjust: set factor to 0.179
ElecMinimize: Iter:  99  F: -2195.114020515981792  |grad|_K:  3.100e-05  alpha:  2.512e-03  linmin: -7.872e-05  t[s]:   8671.38
	FillingsUpdate:  mu: +0.086131601  nElectrons: 358.000000  magneticMoment: [ Abs: 26.02239  Tot: -0.00000 ]
	SubspaceRotationAdjust: set factor to 0.199
ElecMinimize: Iter: 100  F: -2195.114440128574188  |grad|_K:  3.169e-05  alpha:  2.392e-03  linmin: -7.592e-05  t[s]:   8743.80
	FillingsUpdate:  mu: +0.086647075  nElectrons: 358.000000  magneticMoment: [ Abs: 26.06408  Tot: +0.00000 ]
	SubspaceRotationAdjust: set factor to 0.22
ElecMinimize: Iter: 101  F: -2195.114857241774189  |grad|_K:  3.241e-05  alpha:  2.278e-03  linmin: -7.311e-05  t[s]:   8816.28
	FillingsUpdate:  mu: +0.087579930  nElectrons: 358.000000  magneticMoment: [ Abs: 26.10667  Tot: -0.00000 ]
	SubspaceRotationAdjust: set factor to 0.241
ElecMinimize: Iter: 102  F: -2195.115273034846268  |grad|_K:  3.318e-05  alpha:  2.172e-03  linmin: -7.041e-05  t[s]:   8888.74
	FillingsUpdate:  mu: +0.088449091  nElectrons: 358.000000  magneticMoment: [ Abs: 26.15059  Tot: +0.00000 ]
	SubspaceRotationAdjust: set factor to 0.262
ElecMinimize: Iter: 103  F: -2195.115689122199456  |grad|_K:  3.397e-05  alpha:  2.075e-03  linmin: -6.788e-05  t[s]:   8961.48
	FillingsUpdate:  mu: +0.089147658  nElectrons: 358.000000  magneticMoment: [ Abs: 26.19628  Tot: -0.00000 ]
	SubspaceRotationAdjust: set factor to 0.281
ElecMinimize: Iter: 104  F: -2195.116107267266216  |grad|_K:  3.478e-05  alpha:  1.990e-03  linmin: -6.556e-05  t[s]:   9033.76
	FillingsUpdate:  mu: +0.089502495  nElectrons: 358.000000  magneticMoment: [ Abs: 26.24414  Tot: -0.00000 ]
	SubspaceRotationAdjust: set factor to 0.299
ElecMinimize: Iter: 105  F: -2195.116529036195516  |grad|_K:  3.557e-05  alpha:  1.916e-03  linmin: -6.345e-05  t[s]:   9106.67
	FillingsUpdate:  mu: +0.089428390  nElectrons: 358.000000  magneticMoment: [ Abs: 26.29449  Tot: -0.00000 ]
	SubspaceRotationAdjust: set factor to 0.316
ElecMinimize: Iter: 106  F: -2195.116955469461118  |grad|_K:  3.630e-05  alpha:  1.853e-03  linmin: -6.149e-05  t[s]:   9179.14
	FillingsUpdate:  mu: +0.089318448  nElectrons: 358.000000  magneticMoment: [ Abs: 26.34751  Tot: +0.00000 ]
	SubspaceRotationAdjust: set factor to 0.334
ElecMinimize: Iter: 107  F: -2195.117386846102363  |grad|_K:  3.695e-05  alpha:  1.799e-03  linmin: -5.961e-05  t[s]:   9252.32
	FillingsUpdate:  mu: +0.089294761  nElectrons: 358.000000  magneticMoment: [ Abs: 26.40320  Tot: -0.00000 ]
	SubspaceRotationAdjust: set factor to 0.353
ElecMinimize: Iter: 108  F: -2195.117822560026525  |grad|_K:  3.750e-05  alpha:  1.754e-03  linmin: -5.774e-05  t[s]:   9324.71
	FillingsUpdate:  mu: +0.089334877  nElectrons: 358.000000  magneticMoment: [ Abs: 26.46142  Tot: -0.00000 ]
	SubspaceRotationAdjust: set factor to 0.376
ElecMinimize: Iter: 109  F: -2195.118261129773146  |grad|_K:  3.794e-05  alpha:  1.715e-03  linmin: -5.577e-05  t[s]:   9397.44
	FillingsUpdate:  mu: +0.089397307  nElectrons: 358.000000  magneticMoment: [ Abs: 26.52187  Tot: -0.00000 ]
	SubspaceRotationAdjust: set factor to 0.404
ElecMinimize: Iter: 110  F: -2195.118700354211796  |grad|_K:  3.827e-05  alpha:  1.679e-03  linmin: -5.364e-05  t[s]:   9469.58
	FillingsUpdate:  mu: +0.089425687  nElectrons: 358.000000  magneticMoment: [ Abs: 26.58409  Tot: -0.00000 ]
	SubspaceRotationAdjust: set factor to 0.44
ElecMinimize: Iter: 111  F: -2195.119137569953637  |grad|_K:  3.851e-05  alpha:  1.643e-03  linmin: -5.130e-05  t[s]:   9542.72
	FillingsUpdate:  mu: +0.089559168  nElectrons: 358.000000  magneticMoment: [ Abs: 26.64763  Tot: +0.00000 ]
	SubspaceRotationAdjust: set factor to 0.485
ElecMinimize: Iter: 112  F: -2195.119570061457125  |grad|_K:  3.869e-05  alpha:  1.607e-03  linmin: -4.874e-05  t[s]:   9615.56
	FillingsUpdate:  mu: +0.090222396  nElectrons: 358.000000  magneticMoment: [ Abs: 26.71199  Tot: +0.00000 ]
	SubspaceRotationAdjust: set factor to 0.539
ElecMinimize: Iter: 113  F: -2195.119995591313454  |grad|_K:  3.885e-05  alpha:  1.569e-03  linmin: -4.603e-05  t[s]:   9688.17
	FillingsUpdate:  mu: +0.091379434  nElectrons: 358.000000  magneticMoment: [ Abs: 26.77677  Tot: -0.00000 ]
	SubspaceRotationAdjust: set factor to 0.603
ElecMinimize: Iter: 114  F: -2195.120413033693694  |grad|_K:  3.904e-05  alpha:  1.529e-03  linmin: -4.330e-05  t[s]:   9761.14
	FillingsUpdate:  mu: +0.092656109  nElectrons: 358.000000  magneticMoment: [ Abs: 26.84176  Tot: -0.00000 ]
	SubspaceRotationAdjust: set factor to 0.67
ElecMinimize: Iter: 115  F: -2195.120822982042682  |grad|_K:  3.931e-05  alpha:  1.489e-03  linmin: -4.075e-05  t[s]:   9833.91
	FillingsUpdate:  mu: +0.093751793  nElectrons: 358.000000  magneticMoment: [ Abs: 26.90700  Tot: -0.00000 ]
	SubspaceRotationAdjust: set factor to 0.735
ElecMinimize: Iter: 116  F: -2195.121228162966418  |grad|_K:  3.971e-05  alpha:  1.453e-03  linmin: -3.856e-05  t[s]:   9906.95
	FillingsUpdate:  mu: +0.094222482  nElectrons: 358.000000  magneticMoment: [ Abs: 26.97277  Tot: +0.00000 ]
	SubspaceRotationAdjust: set factor to 0.789
ElecMinimize: Iter: 117  F: -2195.121633375204055  |grad|_K:  4.021e-05  alpha:  1.426e-03  linmin: -3.689e-05  t[s]:   9980.78
	FillingsUpdate:  mu: +0.094384638  nElectrons: 358.000000  magneticMoment: [ Abs: 27.03944  Tot: -0.00000 ]
	SubspaceRotationAdjust: set factor to 0.826
ElecMinimize: Iter: 118  F: -2195.122044727637331  |grad|_K:  4.076e-05  alpha:  1.412e-03  linmin: -3.579e-05  t[s]:  10053.24
	FillingsUpdate:  mu: +0.094533360  nElectrons: 358.000000  magneticMoment: [ Abs: 27.10721  Tot: +0.00000 ]
	SubspaceRotationAdjust: set factor to 0.85
ElecMinimize: Iter: 119  F: -2195.122468082076011  |grad|_K:  4.122e-05  alpha:  1.415e-03  linmin: -3.512e-05  t[s]:  10126.03
	FillingsUpdate:  mu: +0.094817750  nElectrons: 358.000000  magneticMoment: [ Abs: 27.17594  Tot: -0.00000 ]
	SubspaceRotationAdjust: set factor to 0.868
ElecMinimize: Iter: 120  F: -2195.122907031361137  |grad|_K:  4.144e-05  alpha:  1.434e-03  linmin: -3.453e-05  t[s]:  10199.43
	FillingsUpdate:  mu: +0.095295407  nElectrons: 358.000000  magneticMoment: [ Abs: 27.24488  Tot: -0.00000 ]
	SubspaceRotationAdjust: set factor to 0.895
ElecMinimize: Iter: 121  F: -2195.123361171755278  |grad|_K:  4.136e-05  alpha:  1.467e-03  linmin: -3.361e-05  t[s]:  10272.38
	FillingsUpdate:  mu: +0.096112788  nElectrons: 358.000000  magneticMoment: [ Abs: 27.31286  Tot: -0.00000 ]
	SubspaceRotationAdjust: set factor to 0.945
	SubspaceRotationAdjust: resetting CG because factor has changed by 7.73533
ElecMinimize: 	State modified externally: resetting search direction.
ElecMinimize: Iter: 122  F: -2195.123825711119935  |grad|_K:  4.156e-05  alpha:  1.506e-03
ElecMinimize: 	Predicted alpha/alphaT>3.000000, increasing alphaT to 4.518937e-03.
ElecMinimize: 	Predicted alpha/alphaT>3.000000, increasing alphaT to 1.355681e-02.
ElecMinimize: 	Predicted alpha/alphaT>3.000000, increasing alphaT to 4.067043e-02.
	FillingsUpdate:  mu: +0.114064677  nElectrons: 358.000000  magneticMoment: [ Abs: 27.21237  Tot: +0.00000 ]
	SubspaceRotationAdjust: set factor to 0.529
ElecMinimize: Iter: 123  F: -2195.159852887379202  |grad|_K:  8.518e-05  alpha:  1.095e-01  linmin: -2.453e-03  t[s]:  10489.04
	FillingsUpdate:  mu: +0.120305327  nElectrons: 358.000000  magneticMoment: [ Abs: 27.51271  Tot: -0.00000 ]
	SubspaceRotationAdjust: set factor to 0.238
ElecMinimize: Iter: 124  F: -2195.249301142624972  |grad|_K:  5.414e-05  alpha:  6.631e-02  linmin: -7.182e-05  t[s]:  10560.76
	FillingsUpdate:  mu: +0.115995344  nElectrons: 358.000000  magneticMoment: [ Abs: 27.85535  Tot: -0.00000 ]
	SubspaceRotationAdjust: set factor to 0.117
	SubspaceRotationAdjust: resetting CG because factor has changed by 0.124035
ElecMinimize: 	State modified externally: resetting search direction.
ElecMinimize: Iter: 125  F: -2195.294304397440101  |grad|_K:  3.360e-05  alpha:  8.947e-02
	FillingsUpdate:  mu: +0.108914507  nElectrons: 358.000000  magneticMoment: [ Abs: 28.07585  Tot: +0.00000 ]
	SubspaceRotationAdjust: set factor to 0.119
ElecMinimize: Iter: 126  F: -2195.328134279291589  |grad|_K:  2.226e-05  alpha:  1.779e-01  linmin:  8.764e-03  t[s]:  10738.81
	FillingsUpdate:  mu: +0.100321600  nElectrons: 358.000000  magneticMoment: [ Abs: 28.34056  Tot: -0.00000 ]
	SubspaceRotationAdjust: set factor to 0.105
ElecMinimize: Iter: 127  F: -2195.357667795022280  |grad|_K:  2.085e-05  alpha:  3.737e-01  linmin:  1.660e-03  t[s]:  10811.14
	FillingsUpdate:  mu: +0.101082361  nElectrons: 358.000000  magneticMoment: [ Abs: 28.78110  Tot: +0.00000 ]
	SubspaceRotationAdjust: set factor to 0.114
ElecMinimize: Iter: 128  F: -2195.394986176566817  |grad|_K:  1.624e-05  alpha:  5.062e-01  linmin:  2.009e-04  t[s]:  10884.86
	FillingsUpdate:  mu: +0.098047430  nElectrons: 358.000000  magneticMoment: [ Abs: 28.98667  Tot: +0.00000 ]
	SubspaceRotationAdjust: set factor to 0.135
ElecMinimize: Iter: 129  F: -2195.411873662294056  |grad|_K:  1.041e-05  alpha:  3.696e-01  linmin:  1.085e-04  t[s]:  10958.24
	FillingsUpdate:  mu: +0.099125748  nElectrons: 358.000000  magneticMoment: [ Abs: 29.09162  Tot: -0.00000 ]
	SubspaceRotationAdjust: set factor to 0.147
ElecMinimize: Iter: 130  F: -2195.417318596810674  |grad|_K:  7.852e-06  alpha:  2.889e-01  linmin:  6.156e-05  t[s]:  11032.78
	FillingsUpdate:  mu: +0.096692527  nElectrons: 358.000000  magneticMoment: [ Abs: 29.23220  Tot: +0.00000 ]
	SubspaceRotationAdjust: set factor to 0.108
ElecMinimize: Iter: 131  F: -2195.420241887978136  |grad|_K:  8.349e-06  alpha:  2.724e-01  linmin:  1.960e-04  t[s]:  11107.18
	FillingsUpdate:  mu: +0.099306148  nElectrons: 358.000000  magneticMoment: [ Abs: 29.40331  Tot: -0.00000 ]
	SubspaceRotationAdjust: set factor to 0.0913
ElecMinimize: Iter: 132  F: -2195.423138138074592  |grad|_K:  6.989e-06  alpha:  2.395e-01  linmin:  7.777e-05  t[s]:  11180.18
	FillingsUpdate:  mu: +0.096782306  nElectrons: 358.000000  magneticMoment: [ Abs: 29.76484  Tot: -0.00000 ]
	SubspaceRotationAdjust: set factor to 0.108
ElecMinimize: Iter: 133  F: -2195.427575122879716  |grad|_K:  7.516e-06  alpha:  5.234e-01  linmin:  5.030e-05  t[s]:  11253.08
	FillingsUpdate:  mu: +0.094611494  nElectrons: 358.000000  magneticMoment: [ Abs: 30.17008  Tot: +0.00000 ]
	SubspaceRotationAdjust: set factor to 0.109
ElecMinimize: Iter: 134  F: -2195.431713602140462  |grad|_K:  7.952e-06  alpha:  4.219e-01  linmin:  1.599e-05  t[s]:  11325.43
	FillingsUpdate:  mu: +0.099622634  nElectrons: 358.000000  magneticMoment: [ Abs: 30.53390  Tot: -0.00000 ]
	SubspaceRotationAdjust: set factor to 0.0893
ElecMinimize: Iter: 135  F: -2195.435143282667013  |grad|_K:  8.197e-06  alpha:  3.080e-01  linmin:  6.950e-05  t[s]:  11397.89
	FillingsUpdate:  mu: +0.096040611  nElectrons: 358.000000  magneticMoment: [ Abs: 30.94813  Tot: -0.00000 ]
	SubspaceRotationAdjust: set factor to 0.0947
ElecMinimize: Iter: 136  F: -2195.438773992361803  |grad|_K:  6.972e-06  alpha:  3.116e-01  linmin: -1.700e-04  t[s]:  11470.24
	FillingsUpdate:  mu: +0.094572593  nElectrons: 358.000000  magneticMoment: [ Abs: 31.35435  Tot: +0.00000 ]
	SubspaceRotationAdjust: set factor to 0.106
ElecMinimize: Iter: 137  F: -2195.442470085589321  |grad|_K:  7.027e-06  alpha:  4.288e-01  linmin: -2.399e-04  t[s]:  11542.38
	FillingsUpdate:  mu: +0.100052285  nElectrons: 358.000000  magneticMoment: [ Abs: 31.67033  Tot: +0.00000 ]
	SubspaceRotationAdjust: set factor to 0.0952
ElecMinimize: Iter: 138  F: -2195.445399300316694  |grad|_K:  7.817e-06  alpha:  3.238e-01  linmin:  2.329e-04  t[s]:  11614.16
	FillingsUpdate:  mu: +0.094961965  nElectrons: 358.000000  magneticMoment: [ Abs: 32.06001  Tot: +0.00000 ]
	SubspaceRotationAdjust: set factor to 0.102
ElecMinimize: Iter: 139  F: -2195.448861063187451  |grad|_K:  7.443e-06  alpha:  3.304e-01  linmin: -3.885e-04  t[s]:  11685.90
	FillingsUpdate:  mu: +0.093444877  nElectrons: 358.000000  magneticMoment: [ Abs: 32.41049  Tot: -0.00000 ]
	SubspaceRotationAdjust: set factor to 0.115
ElecMinimize: Iter: 140  F: -2195.452444996241411  |grad|_K:  7.921e-06  alpha:  3.594e-01  linmin:  2.530e-04  t[s]:  11758.09
	FillingsUpdate:  mu: +0.094554213  nElectrons: 358.000000  magneticMoment: [ Abs: 32.70472  Tot: -0.00000 ]
	SubspaceRotationAdjust: set factor to 0.119
ElecMinimize: Iter: 141  F: -2195.455806093441879  |grad|_K:  7.184e-06  alpha:  3.182e-01  linmin: -2.504e-04  t[s]:  11829.81
	FillingsUpdate:  mu: +0.091220951  nElectrons: 358.000000  magneticMoment: [ Abs: 32.89435  Tot: +0.00000 ]
	SubspaceRotationAdjust: set factor to 0.133
ElecMinimize: Iter: 142  F: -2195.458435392283263  |grad|_K:  6.969e-06  alpha:  2.857e-01  linmin: -7.381e-07  t[s]:  11901.84
	FillingsUpdate:  mu: +0.093393256  nElectrons: 358.000000  magneticMoment: [ Abs: 33.09643  Tot: -0.00000 ]
	SubspaceRotationAdjust: set factor to 0.154
ElecMinimize: Iter: 143  F: -2195.461365795534221  |grad|_K:  6.782e-06  alpha:  3.464e-01  linmin: -9.129e-06  t[s]:  11975.47
	FillingsUpdate:  mu: +0.095196300  nElectrons: 358.000000  magneticMoment: [ Abs: 33.27871  Tot: -0.00000 ]
	SubspaceRotationAdjust: set factor to 0.184
ElecMinimize: Iter: 144  F: -2195.464297885649557  |grad|_K:  7.199e-06  alpha:  3.657e-01  linmin: -3.077e-05  t[s]:  12048.19
	FillingsUpdate:  mu: +0.093263126  nElectrons: 358.000000  magneticMoment: [ Abs: 33.42273  Tot: +0.00000 ]
	SubspaceRotationAdjust: set factor to 0.197
ElecMinimize: Iter: 145  F: -2195.467143152689005  |grad|_K:  7.780e-06  alpha:  3.147e-01  linmin: -4.487e-05  t[s]:  12119.90
	FillingsUpdate:  mu: +0.100469039  nElectrons: 358.000000  magneticMoment: [ Abs: 33.51193  Tot: +0.00000 ]
	SubspaceRotationAdjust: set factor to 0.178
ElecMinimize: Iter: 146  F: -2195.469402579316920  |grad|_K:  8.829e-06  alpha:  2.119e-01  linmin: -7.297e-06  t[s]:  12192.85
	FillingsUpdate:  mu: +0.093966297  nElectrons: 358.000000  magneticMoment: [ Abs: 33.59462  Tot: -0.00000 ]
	SubspaceRotationAdjust: set factor to 0.166
ElecMinimize: Iter: 147  F: -2195.471834243010562  |grad|_K:  7.326e-06  alpha:  1.782e-01  linmin:  3.553e-05  t[s]:  12265.69
	FillingsUpdate:  mu: +0.095315349  nElectrons: 358.000000  magneticMoment: [ Abs: 33.66543  Tot: +0.00000 ]
	SubspaceRotationAdjust: set factor to 0.201
ElecMinimize: Iter: 148  F: -2195.474500189389346  |grad|_K:  6.798e-06  alpha:  2.862e-01  linmin: -3.171e-05  t[s]:  12337.22
	FillingsUpdate:  mu: +0.096672781  nElectrons: 358.000000  magneticMoment: [ Abs: 33.71328  Tot: -0.00000 ]
	SubspaceRotationAdjust: set factor to 0.236
ElecMinimize: Iter: 149  F: -2195.476825406321950  |grad|_K:  6.596e-06  alpha:  2.876e-01  linmin: -7.486e-05  t[s]:  12408.65
	FillingsUpdate:  mu: +0.095256683  nElectrons: 358.000000  magneticMoment: [ Abs: 33.75286  Tot: +0.00000 ]
	SubspaceRotationAdjust: set factor to 0.188
ElecMinimize: Iter: 150  F: -2195.478362460884000  |grad|_K:  8.123e-06  alpha:  1.988e-01  linmin:  1.299e-05  t[s]:  12480.99
	FillingsUpdate:  mu: +0.096026033  nElectrons: 358.000000  magneticMoment: [ Abs: 33.77426  Tot: -0.00000 ]
	SubspaceRotationAdjust: set factor to 0.166
ElecMinimize: Iter: 151  F: -2195.479809605990795  |grad|_K:  5.971e-06  alpha:  1.286e-01  linmin:  1.203e-05  t[s]:  12553.67
	FillingsUpdate:  mu: +0.095609073  nElectrons: 358.000000  magneticMoment: [ Abs: 33.81014  Tot: +0.00000 ]
	SubspaceRotationAdjust: set factor to 0.198
ElecMinimize: Iter: 152  F: -2195.481465212921648  |grad|_K:  5.141e-06  alpha:  2.681e-01  linmin:  1.133e-04  t[s]:  12627.29
	FillingsUpdate:  mu: +0.095197001  nElectrons: 358.000000  magneticMoment: [ Abs: 33.83778  Tot: +0.00000 ]
	SubspaceRotationAdjust: set factor to 0.232
ElecMinimize: Iter: 153  F: -2195.482775566244072  |grad|_K:  5.197e-06  alpha:  2.885e-01  linmin:  1.684e-04  t[s]:  12700.89
	FillingsUpdate:  mu: +0.098598217  nElectrons: 358.000000  magneticMoment: [ Abs: 33.83914  Tot: +0.00000 ]
	SubspaceRotationAdjust: set factor to 0.201
ElecMinimize: Iter: 154  F: -2195.483609708984204  |grad|_K:  5.920e-06  alpha:  1.861e-01  linmin:  1.428e-05  t[s]:  12772.61
	FillingsUpdate:  mu: +0.095263706  nElectrons: 358.000000  magneticMoment: [ Abs: 33.85653  Tot: -0.00000 ]
	SubspaceRotationAdjust: set factor to 0.166
ElecMinimize: Iter: 155  F: -2195.484436909347551  |grad|_K:  4.819e-06  alpha:  1.337e-01  linmin:  4.452e-05  t[s]:  12845.62
	FillingsUpdate:  mu: +0.095444926  nElectrons: 358.000000  magneticMoment: [ Abs: 33.84752  Tot: +0.00000 ]
	SubspaceRotationAdjust: set factor to 0.185
ElecMinimize: Iter: 156  F: -2195.485414755713919  |grad|_K:  4.308e-06  alpha:  2.420e-01  linmin: -5.658e-05  t[s]:  12918.76
	FillingsUpdate:  mu: +0.095582523  nElectrons: 358.000000  magneticMoment: [ Abs: 33.83855  Tot: -0.00000 ]
	SubspaceRotationAdjust: set factor to 0.214
ElecMinimize: Iter: 157  F: -2195.486426204290638  |grad|_K:  4.105e-06  alpha:  3.107e-01  linmin:  4.172e-05  t[s]:  12990.66
	FillingsUpdate:  mu: +0.095265498  nElectrons: 358.000000  magneticMoment: [ Abs: 33.81108  Tot: -0.00000 ]
	SubspaceRotationAdjust: set factor to 0.239
ElecMinimize: Iter: 158  F: -2195.487332265252462  |grad|_K:  4.286e-06  alpha:  3.112e-01  linmin:  2.362e-05  t[s]:  13062.42
	FillingsUpdate:  mu: +0.093551405  nElectrons: 358.000000  magneticMoment: [ Abs: 33.79743  Tot: +0.00000 ]
	SubspaceRotationAdjust: set factor to 0.218
ElecMinimize: Iter: 159  F: -2195.488048047098800  |grad|_K:  5.096e-06  alpha:  2.251e-01  linmin: -1.997e-06  t[s]:  13134.47
	FillingsUpdate:  mu: +0.094731824  nElectrons: 358.000000  magneticMoment: [ Abs: 33.76019  Tot: -0.00000 ]
	SubspaceRotationAdjust: set factor to 0.181
ElecMinimize: Iter: 160  F: -2195.488592176315706  |grad|_K:  4.310e-06  alpha:  1.196e-01  linmin: -2.412e-05  t[s]:  13207.52
	FillingsUpdate:  mu: +0.094652293  nElectrons: 358.000000  magneticMoment: [ Abs: 33.73918  Tot: +0.00000 ]
	SubspaceRotationAdjust: set factor to 0.218
ElecMinimize: Iter: 161  F: -2195.489339793532508  |grad|_K:  3.737e-06  alpha:  2.311e-01  linmin:  5.009e-05  t[s]:  13279.27
	FillingsUpdate:  mu: +0.094789168  nElectrons: 358.000000  magneticMoment: [ Abs: 33.72520  Tot: +0.00000 ]
	SubspaceRotationAdjust: set factor to 0.258
ElecMinimize: Iter: 162  F: -2195.490010897548018  |grad|_K:  3.844e-06  alpha:  2.788e-01  linmin:  6.906e-06  t[s]:  13351.22
	FillingsUpdate:  mu: +0.095947994  nElectrons: 358.000000  magneticMoment: [ Abs: 33.69855  Tot: +0.00000 ]
	SubspaceRotationAdjust: set factor to 0.207
ElecMinimize: Iter: 163  F: -2195.490459638727316  |grad|_K:  4.666e-06  alpha:  1.720e-01  linmin: -2.795e-05  t[s]:  13424.05
	FillingsUpdate:  mu: +0.094902067  nElectrons: 358.000000  magneticMoment: [ Abs: 33.70397  Tot: -0.00000 ]
	SubspaceRotationAdjust: set factor to 0.203
ElecMinimize: Iter: 164  F: -2195.490951001476333  |grad|_K:  3.683e-06  alpha:  1.300e-01  linmin: -2.832e-05  t[s]:  13496.43
	FillingsUpdate:  mu: +0.094609148  nElectrons: 358.000000  magneticMoment: [ Abs: 33.69273  Tot: +0.00000 ]
	SubspaceRotationAdjust: set factor to 0.248
ElecMinimize: Iter: 165  F: -2195.491585827958716  |grad|_K:  3.468e-06  alpha:  2.693e-01  linmin:  1.139e-04  t[s]:  13569.12
	FillingsUpdate:  mu: +0.094931689  nElectrons: 358.000000  magneticMoment: [ Abs: 33.70149  Tot: +0.00000 ]
	SubspaceRotationAdjust: set factor to 0.307
ElecMinimize: Iter: 166  F: -2195.492193987268820  |grad|_K:  3.706e-06  alpha:  2.948e-01  linmin:  6.943e-05  t[s]:  13641.35
	FillingsUpdate:  mu: +0.094282152  nElectrons: 358.000000  magneticMoment: [ Abs: 33.74197  Tot: -0.00000 ]
	SubspaceRotationAdjust: set factor to 0.241
ElecMinimize: Iter: 167  F: -2195.492697622285959  |grad|_K:  4.996e-06  alpha:  2.156e-01  linmin: -4.787e-05  t[s]:  13713.87
	FillingsUpdate:  mu: +0.095723850  nElectrons: 358.000000  magneticMoment: [ Abs: 33.74252  Tot: +0.00000 ]
	SubspaceRotationAdjust: set factor to 0.208
ElecMinimize: Iter: 168  F: -2195.493034699023156  |grad|_K:  3.804e-06  alpha:  6.927e-02  linmin: -7.462e-04  t[s]:  13786.89
ElecMinimize: 	Predicted alpha/alphaT>3.000000, increasing alphaT to 2.078004e-01.
	FillingsUpdate:  mu: +0.095992729  nElectrons: 358.000000  magneticMoment: [ Abs: 33.77988  Tot: -0.00000 ]
	SubspaceRotationAdjust: set factor to 0.199
ElecMinimize: Iter: 169  F: -2195.493669378391587  |grad|_K:  4.539e-06  alpha:  2.319e-01  linmin:  1.562e-04  t[s]:  13881.03
	FillingsUpdate:  mu: +0.095023775  nElectrons: 358.000000  magneticMoment: [ Abs: 33.83095  Tot: +0.00000 ]
	SubspaceRotationAdjust: set factor to 0.169
ElecMinimize: Iter: 170  F: -2195.494003481040636  |grad|_K:  4.147e-06  alpha:  1.002e-01  linmin:  1.720e-04  t[s]:  13954.60
	FillingsUpdate:  mu: +0.095368122  nElectrons: 358.000000  magneticMoment: [ Abs: 33.89173  Tot: +0.00000 ]
	SubspaceRotationAdjust: set factor to 0.231
ElecMinimize: Iter: 171  F: -2195.494574202685271  |grad|_K:  3.465e-06  alpha:  1.973e-01  linmin:  7.799e-05  t[s]:  14028.59
	FillingsUpdate:  mu: +0.096376400  nElectrons: 358.000000  magneticMoment: [ Abs: 33.91783  Tot: -0.00000 ]
	SubspaceRotationAdjust: set factor to 0.185
ElecMinimize: Iter: 172  F: -2195.494922594386026  |grad|_K:  4.576e-06  alpha:  1.677e-01  linmin:  6.223e-05  t[s]:  14101.36
	FillingsUpdate:  mu: +0.095900534  nElectrons: 358.000000  magneticMoment: [ Abs: 33.97995  Tot: -0.00000 ]
	SubspaceRotationAdjust: set factor to 0.206
ElecMinimize: Iter: 173  F: -2195.495331830827581  |grad|_K:  3.372e-06  alpha:  1.147e-01  linmin: -1.133e-05  t[s]:  14173.94
	FillingsUpdate:  mu: +0.095540312  nElectrons: 358.000000  magneticMoment: [ Abs: 34.04186  Tot: -0.00000 ]
	SubspaceRotationAdjust: set factor to 0.223
ElecMinimize: Iter: 174  F: -2195.495814244535268  |grad|_K:  3.855e-06  alpha:  2.420e-01  linmin: -5.777e-05  t[s]:  14246.92
	FillingsUpdate:  mu: +0.096683114  nElectrons: 358.000000  magneticMoment: [ Abs: 34.06079  Tot: +0.00000 ]
	SubspaceRotationAdjust: set factor to 0.192
ElecMinimize: Iter: 175  F: -2195.496092126928488  |grad|_K:  3.828e-06  alpha:  1.045e-01  linmin: -6.402e-05  t[s]:  14319.72
	FillingsUpdate:  mu: +0.096496785  nElectrons: 358.000000  magneticMoment: [ Abs: 34.13275  Tot: +0.00000 ]
	SubspaceRotationAdjust: set factor to 0.266
ElecMinimize: Iter: 176  F: -2195.496571829656204  |grad|_K:  3.254e-06  alpha:  1.849e-01  linmin: -6.680e-05  t[s]:  14392.47
	FillingsUpdate:  mu: +0.095643032  nElectrons: 358.000000  magneticMoment: [ Abs: 34.19774  Tot: +0.00000 ]
	SubspaceRotationAdjust: set factor to 0.203
ElecMinimize: Iter: 177  F: -2195.496935024868890  |grad|_K:  4.488e-06  alpha:  1.944e-01  linmin: -5.807e-05  t[s]:  14465.29
	FillingsUpdate:  mu: +0.096880617  nElectrons: 358.000000  magneticMoment: [ Abs: 34.22196  Tot: -0.00000 ]
	SubspaceRotationAdjust: set factor to 0.173
ElecMinimize: Iter: 178  F: -2195.497222362412231  |grad|_K:  3.218e-06  alpha:  7.975e-02  linmin: -7.387e-05  t[s]:  14537.06
	FillingsUpdate:  mu: +0.097525178  nElectrons: 358.000000  magneticMoment: [ Abs: 34.27091  Tot: +0.00000 ]
	SubspaceRotationAdjust: set factor to 0.232
ElecMinimize: Iter: 179  F: -2195.497643976469135  |grad|_K:  3.311e-06  alpha:  2.319e-01  linmin:  3.950e-05  t[s]:  14609.07
	FillingsUpdate:  mu: +0.096816569  nElectrons: 358.000000  magneticMoment: [ Abs: 34.31402  Tot: +0.00000 ]
	SubspaceRotationAdjust: set factor to 0.203
ElecMinimize: Iter: 180  F: -2195.497885604220301  |grad|_K:  3.551e-06  alpha:  1.286e-01  linmin:  2.444e-05  t[s]:  14681.35
	FillingsUpdate:  mu: +0.097491404  nElectrons: 358.000000  magneticMoment: [ Abs: 34.34510  Tot: +0.00000 ]
	SubspaceRotationAdjust: set factor to 0.208
ElecMinimize: Iter: 181  F: -2195.498203131038281  |grad|_K:  2.732e-06  alpha:  1.454e-01  linmin:  6.951e-05  t[s]:  14754.25
	FillingsUpdate:  mu: +0.097377316  nElectrons: 358.000000  magneticMoment: [ Abs: 34.38290  Tot: +0.00000 ]
	SubspaceRotationAdjust: set factor to 0.254
ElecMinimize: Iter: 182  F: -2195.498529066185256  |grad|_K:  2.604e-06  alpha:  2.524e-01  linmin: -4.220e-05  t[s]:  14826.73
	FillingsUpdate:  mu: +0.097230440  nElectrons: 358.000000  magneticMoment: [ Abs: 34.40928  Tot: +0.00000 ]
	SubspaceRotationAdjust: set factor to 0.293
ElecMinimize: Iter: 183  F: -2195.498828730764671  |grad|_K:  2.658e-06  alpha:  2.524e-01  linmin: -4.507e-05  t[s]:  14900.49
	FillingsUpdate:  mu: +0.098253085  nElectrons: 358.000000  magneticMoment: [ Abs: 34.41086  Tot: -0.00000 ]
	SubspaceRotationAdjust: set factor to 0.221
ElecMinimize: Iter: 184  F: -2195.499013255016507  |grad|_K:  3.542e-06  alpha:  1.466e-01  linmin: -4.791e-05  t[s]:  14973.41
	FillingsUpdate:  mu: +0.097430544  nElectrons: 358.000000  magneticMoment: [ Abs: 34.43148  Tot: +0.00000 ]
	SubspaceRotationAdjust: set factor to 0.207
ElecMinimize: Iter: 185  F: -2195.499221805389880  |grad|_K:  2.524e-06  alpha:  9.675e-02  linmin:  3.104e-06  t[s]:  15046.17
	FillingsUpdate:  mu: +0.097643431  nElectrons: 358.000000  magneticMoment: [ Abs: 34.43659  Tot: +0.00000 ]
	SubspaceRotationAdjust: set factor to 0.25
ElecMinimize: Iter: 186  F: -2195.499490911709472  |grad|_K:  2.308e-06  alpha:  2.440e-01  linmin:  7.811e-05  t[s]:  15118.66
	FillingsUpdate:  mu: +0.098014624  nElectrons: 358.000000  magneticMoment: [ Abs: 34.43032  Tot: +0.00000 ]
	SubspaceRotationAdjust: set factor to 0.279
ElecMinimize: Iter: 187  F: -2195.499722288376233  |grad|_K:  2.673e-06  alpha:  2.526e-01  linmin:  1.088e-04  t[s]:  15191.26
	FillingsUpdate:  mu: +0.097432283  nElectrons: 358.000000  magneticMoment: [ Abs: 34.43652  Tot: +0.00000 ]
	SubspaceRotationAdjust: set factor to 0.233
ElecMinimize: Iter: 188  F: -2195.499859056962123  |grad|_K:  2.952e-06  alpha:  1.186e-01  linmin:  1.722e-04  t[s]:  15263.62
	FillingsUpdate:  mu: +0.098074776  nElectrons: 358.000000  magneticMoment: [ Abs: 34.42254  Tot: +0.00000 ]
	SubspaceRotationAdjust: set factor to 0.195
[...]
ion O   0.251381018639094   0.273103192814406   0.145312997360581 1
ion O   0.254267893763161   0.727451107433135   0.145515619529404 1
ion O  -0.254149574592898   0.275569357709767   0.147873469794956 1
ion O  -0.250143169836562   0.726143972012358   0.144520677009395 1
ion O   0.003090243919141  -0.005837944403232   0.055582897694412 1
ion O   0.496386107319092  -0.006324115268484   0.052079816420083 1
ion O   0.007543292783814   0.504126367706919   0.051348098814729 1
ion O   0.504271066655654   0.508174693676007   0.047835480284598 1
ion O   0.250000000000000   0.250000000000000  -0.050000000000000 0
ion O   0.250000000000000   0.750000000000000  -0.050000000000000 0
ion O  -0.250000000000000   0.250000000000000  -0.050000000000000 0
ion O  -0.250000000000000   0.750000000000000  -0.050000000000000 0
ion O   0.000000000000000   0.000000000000000  -0.150000000000000 0
ion O   0.500000000000000   0.000000000000000  -0.150000000000000 0
ion O   0.000000000000000   0.500000000000000  -0.150000000000000 0
ion O   0.500000000000000   0.500000000000000  -0.150000000000000 0
ion O   0.000502974939371  -0.003733859285299   0.230473530236416 1

# Forces in Lattice coordinates:
force Ni   0.009238871782583   0.000321020463802  -0.034671616055739 1
force Ni   0.001347422604927  -0.002347127493389   0.018394132518521 1
force Ni   0.001941444680957   0.000716299363257  -0.017149251352118 1
force Ni   0.002039356071851  -0.001157639063152   0.009100095080252 1
force Ni   0.002696843291775   0.000952658619781   0.007191897966726 1
force Ni  -0.010668808949269   0.013740054716142   0.018876850615671 0
force Ni   0.009699184090102  -0.012786918822676   0.050565522885965 0
force V   0.001534613041481  -0.002017372847924  -0.043498257912603 1
force V  -0.004351326168299  -0.001667808730444  -0.009364104314336 1
force V  -0.038002930047467  -0.029399251068606  -0.017923236340307 0
force V   0.005151807482440   0.047622534097075  -0.140754288617613 0
force V  -0.037896711138908   0.022147542290961  -0.261946591356010 0
force Co   0.002389217617841  -0.004933262188274   0.006151742304355 1
force Co   0.016486096297378  -0.044211044187783  -0.011253679418921 0
force Co   0.011875413557931  -0.001748923724819  -0.593480584429422 0
force Cr   0.013654578011400  -0.025666936948140  -1.537651631058595 0
force O   0.002117225742619   0.000290734714056   0.006778038423487 1
force O   0.002907907784914  -0.003944061920388   0.012025169349929 1
force O  -0.000219193278776   0.003802085882801  -0.017265568978271 1
force O   0.001473341946143  -0.003659463968932   0.007022609794076 1
force O  -0.000188568425142  -0.000962149917579  -0.001370401242544 1
force O  -0.000675824324188  -0.000406973591129  -0.003557154114855 1
force O   0.002061308856118   0.000455661787080   0.009128493548564 1
force O   0.003349740780473   0.000882099411097  -0.009099397785334 1
force O   0.031781709127505  -0.022047800963001   1.047405591642303 0
force O   0.027192983934989   0.015528530478749   0.325493245757119 0
force O  -0.012320300505036  -0.018551002524368   0.325207560331605 0
force O  -0.049307962684768   0.043707975830103   0.413465969571984 0
force O   0.015245387926231   0.027661408828431   0.104723369217165 0
force O  -0.011594142260721   0.020659799767874   0.111964671360251 0
force O   0.017916948242528  -0.025701533064525   0.234502392222456 0
force O  -0.003671953231758  -0.012797722308003   0.037688679150303 0
force O   0.000895179177968  -0.009072511335419  -0.025657984353032 1

# Energy components:
   Eewald =     5984.8770516836966635
       EH =     7962.3843601243743251
     Eloc =   -16281.8275405165040866
      Enl =     -606.1786243889879415
   Epulay =       -0.0004887253079091
      Exc =     -260.1844675590302813
       KE =     1003.9700651718421796
        U =        1.4153427073791360
-------------------------------------
     Etot =    -2195.5443015025380191
       TS =        0.0012554550360914
-------------------------------------
        F =    -2195.5455569575742629

IonicMinimize: Iter:  12  F: -2195.545556957574263  |grad|_K:  3.349e-04  alpha:  1.000e+00  linmin: -3.117e-02  t[s]:  80217.33

#--- Lowdin population analysis ---
# oxidation-state Ni +3.457 +3.677 +3.418 +3.497 +3.461 +3.696 +3.686
# magnetic-moments Ni +0.680 -0.906 +0.844 +0.975 -0.873 +0.870 +0.859
# oxidation-state V +1.159 +1.379 +1.066 +1.014 +1.064
# magnetic-moments V -2.979 +2.064 +2.669 -2.780 +2.586
# oxidation-state Co +1.199 +1.231 +1.267
# magnetic-moments Co -2.621 -2.703 +2.733
# oxidation-state Cr +2.974
# magnetic-moments Cr -3.805
# oxidation-state O -0.745 -0.738 -0.833 -0.730 -0.758 -0.786 -0.764 -0.747 -0.873 -0.881 -0.932 -0.913 -0.879 -0.849 -0.835 -0.850 -0.381
# magnetic-moments O +0.070 +0.146 -0.098 -0.190 +0.102 +0.060 +0.078 -0.084 +0.027 +0.084 -0.009 -0.078 +0.078 +0.100 +0.208 +0.104 +1.239


-------- Electronic minimization -----------
	FillingsUpdate:  mu: +0.101110183  nElectrons: 358.000000  magneticMoment: [ Abs: 36.20056  Tot: +0.00000 ]
ElecMinimize: Iter:   0  F: -2195.174902374244994  |grad|_K:  1.024e-04  alpha:  1.000e+00
	FillingsUpdate:  mu: +0.105370206  nElectrons: 358.000000  magneticMoment: [ Abs: 36.21343  Tot: +0.00000 ]
	SubspaceRotationAdjust: set factor to 0.157
ElecMinimize: Iter:   1  F: -2195.513466134431837  |grad|_K:  2.301e-05  alpha:  1.931e-01  linmin:  2.173e-02  t[s]:  80342.52
	FillingsUpdate:  mu: +0.109899650  nElectrons: 358.000000  magneticMoment: [ Abs: 36.19719  Tot: +0.00000 ]
	SubspaceRotationAdjust: set factor to 0.098
ElecMinimize: Iter:   2  F: -2195.528424853014712  |grad|_K:  1.513e-05  alpha:  1.679e-01  linmin:  1.595e-03  t[s]:  80414.85
	FillingsUpdate:  mu: +0.110768547  nElectrons: 358.000000  magneticMoment: [ Abs: 36.19890  Tot: +0.00000 ]
	SubspaceRotationAdjust: set factor to 0.0842
ElecMinimize: Iter:   3  F: -2195.534537510024620  |grad|_K:  6.465e-06  alpha:  1.557e-01  linmin:  8.436e-05  t[s]:  80487.97
	FillingsUpdate:  mu: +0.110909436  nElectrons: 358.000000  magneticMoment: [ Abs: 36.19614  Tot: +0.00000 ]
	SubspaceRotationAdjust: set factor to 0.111
ElecMinimize: Iter:   4  F: -2195.536897900742588  |grad|_K:  4.782e-06  alpha:  3.247e-01  linmin:  5.146e-06  t[s]:  80561.07
	FillingsUpdate:  mu: +0.109097513  nElectrons: 358.000000  magneticMoment: [ Abs: 36.18993  Tot: +0.00000 ]
	SubspaceRotationAdjust: set factor to 0.0977
ElecMinimize: Iter:   5  F: -2195.538278694439668  |grad|_K:  4.398e-06  alpha:  3.470e-01  linmin:  4.435e-05  t[s]:  80632.75
	FillingsUpdate:  mu: +0.111301689  nElectrons: 358.000000  magneticMoment: [ Abs: 36.18932  Tot: -0.00000 ]
	SubspaceRotationAdjust: set factor to 0.095
ElecMinimize: Iter:   6  F: -2195.539556387179346  |grad|_K:  4.623e-06  alpha:  3.804e-01  linmin:  3.785e-05  t[s]:  80705.19
	FillingsUpdate:  mu: +0.111731409  nElectrons: 358.000000  magneticMoment: [ Abs: 36.18398  Tot: +0.00000 ]
	SubspaceRotationAdjust: set factor to 0.116
ElecMinimize: Iter:   7  F: -2195.541412160496293  |grad|_K:  4.322e-06  alpha:  5.000e-01  linmin: -2.794e-05  t[s]:  80778.29
	FillingsUpdate:  mu: +0.108404637  nElectrons: 358.000000  magneticMoment: [ Abs: 36.17871  Tot: +0.00000 ]
	SubspaceRotationAdjust: set factor to 0.112
ElecMinimize: Iter:   8  F: -2195.543010370157845  |grad|_K:  4.664e-06  alpha:  4.898e-01  linmin: -8.135e-05  t[s]:  80851.20
	FillingsUpdate:  mu: +0.111121610  nElectrons: 358.000000  magneticMoment: [ Abs: 36.18127  Tot: +0.00000 ]
	SubspaceRotationAdjust: set factor to 0.0777
ElecMinimize: Iter:   9  F: -2195.543955558519883  |grad|_K:  3.598e-06  alpha:  2.429e-01  linmin: -5.729e-05  t[s]:  80924.60
	FillingsUpdate:  mu: +0.111460034  nElectrons: 358.000000  magneticMoment: [ Abs: 36.17961  Tot: -0.00000 ]
	SubspaceRotationAdjust: set factor to 0.0825
ElecMinimize: Iter:  10  F: -2195.544753344835044  |grad|_K:  2.567e-06  alpha:  3.503e-01  linmin: -5.902e-05  t[s]:  80995.93
	FillingsUpdate:  mu: +0.111389381  nElectrons: 358.000000  magneticMoment: [ Abs: 36.17908  Tot: -0.00000 ]
	SubspaceRotationAdjust: set factor to 0.0839
ElecMinimize: Iter:  11  F: -2195.545145954116379  |grad|_K:  1.914e-06  alpha:  3.397e-01  linmin: -1.865e-05  t[s]:  81067.19
	FillingsUpdate:  mu: +0.111582661  nElectrons: 358.000000  magneticMoment: [ Abs: 36.18058  Tot: -0.00000 ]
	SubspaceRotationAdjust: set factor to 0.0694
ElecMinimize: Iter:  12  F: -2195.545334426512454  |grad|_K:  1.325e-06  alpha:  2.949e-01  linmin:  9.886e-06  t[s]:  81140.25
	FillingsUpdate:  mu: +0.111361918  nElectrons: 358.000000  magneticMoment: [ Abs: 36.18080  Tot: +0.00000 ]
	SubspaceRotationAdjust: set factor to 0.0736
ElecMinimize: Iter:  13  F: -2195.545440511040397  |grad|_K:  8.952e-07  alpha:  3.474e-01  linmin: -8.948e-06  t[s]:  81211.65
	FillingsUpdate:  mu: +0.111247205  nElectrons: 358.000000  magneticMoment: [ Abs: 36.18102  Tot: -0.00000 ]
	SubspaceRotationAdjust: set factor to 0.0785
ElecMinimize: Iter:  14  F: -2195.545488774650494  |grad|_K:  6.874e-07  alpha:  3.457e-01  linmin: -2.247e-06  t[s]:  81284.07
	FillingsUpdate:  mu: +0.111350808  nElectrons: 358.000000  magneticMoment: [ Abs: 36.18154  Tot: +0.00000 ]
	SubspaceRotationAdjust: set factor to 0.0822
ElecMinimize: Iter:  15  F: -2195.545515076965785  |grad|_K:  4.898e-07  alpha:  3.196e-01  linmin:  2.031e-06  t[s]:  81359.56
	FillingsUpdate:  mu: +0.111289529  nElectrons: 358.000000  magneticMoment: [ Abs: 36.18172  Tot: -0.00000 ]
	SubspaceRotationAdjust: set factor to 0.0959
ElecMinimize: Iter:  16  F: -2195.545530725998560  |grad|_K:  4.028e-07  alpha:  3.746e-01  linmin: -1.041e-06  t[s]:  81432.67
	FillingsUpdate:  mu: +0.111242902  nElectrons: 358.000000  magneticMoment: [ Abs: 36.18182  Tot: +0.00000 ]
	SubspaceRotationAdjust: set factor to 0.112
ElecMinimize: Iter:  17  F: -2195.545541853787199  |grad|_K:  3.594e-07  alpha:  3.939e-01  linmin: -1.475e-07  t[s]:  81506.79
	FillingsUpdate:  mu: +0.111319792  nElectrons: 358.000000  magneticMoment: [ Abs: 36.18207  Tot: -0.00000 ]
	SubspaceRotationAdjust: set factor to 0.123
ElecMinimize: Iter:  18  F: -2195.545550978422852  |grad|_K:  3.477e-07  alpha:  4.057e-01  linmin:  5.601e-07  t[s]:  81579.80
	FillingsUpdate:  mu: +0.111195140  nElectrons: 358.000000  magneticMoment: [ Abs: 36.18192  Tot: -0.00000 ]
	SubspaceRotationAdjust: set factor to 0.126
ElecMinimize: Iter:  19  F: -2195.545559228731690  |grad|_K:  3.367e-07  alpha:  3.919e-01  linmin: -1.417e-06  t[s]:  81652.96
	FillingsUpdate:  mu: +0.111292357  nElectrons: 358.000000  magneticMoment: [ Abs: 36.18193  Tot: -0.00000 ]
	SubspaceRotationAdjust: set factor to 0.12
ElecMinimize: Iter:  20  F: -2195.545566377330033  |grad|_K:  3.130e-07  alpha:  3.621e-01  linmin:  5.004e-07  t[s]:  81727.03
	FillingsUpdate:  mu: +0.111172374  nElectrons: 358.000000  magneticMoment: [ Abs: 36.18158  Tot: -0.00000 ]
	SubspaceRotationAdjust: set factor to 0.112
ElecMinimize: Iter:  21  F: -2195.545572364586860  |grad|_K:  2.725e-07  alpha:  3.509e-01  linmin: -6.720e-07  t[s]:  81799.39
	FillingsUpdate:  mu: +0.111241431  nElectrons: 358.000000  magneticMoment: [ Abs: 36.18143  Tot: +0.00000 ]
	SubspaceRotationAdjust: set factor to 0.105
ElecMinimize: Iter:  22  F: -2195.545576815413824  |grad|_K:  2.269e-07  alpha:  3.443e-01  linmin: -5.136e-07  t[s]:  81870.93
	FillingsUpdate:  mu: +0.111193182  nElectrons: 358.000000  magneticMoment: [ Abs: 36.18110  Tot: +0.00000 ]
	SubspaceRotationAdjust: set factor to 0.106
ElecMinimize: Iter:  23  F: -2195.545579945613099  |grad|_K:  1.782e-07  alpha:  3.491e-01  linmin:  1.206e-07  t[s]:  81943.19
	FillingsUpdate:  mu: +0.111207544  nElectrons: 358.000000  magneticMoment: [ Abs: 36.18090  Tot: -0.00000 ]
	SubspaceRotationAdjust: set factor to 0.113
ElecMinimize: Iter:  24  F: -2195.545581952543671  |grad|_K:  1.432e-07  alpha:  3.630e-01  linmin: -5.264e-07  t[s]:  82014.51
	FillingsUpdate:  mu: +0.111213212  nElectrons: 358.000000  magneticMoment: [ Abs: 36.18074  Tot: +0.00000 ]
	SubspaceRotationAdjust: set factor to 0.125
ElecMinimize: Iter:  25  F: -2195.545583216112391  |grad|_K:  1.141e-07  alpha:  3.537e-01  linmin:  4.902e-06  t[s]:  82086.87
	FillingsUpdate:  mu: +0.111200214  nElectrons: 358.000000  magneticMoment: [ Abs: 36.18058  Tot: +0.00000 ]
	SubspaceRotationAdjust: set factor to 0.139
ElecMinimize: Iter:  26  F: -2195.545584068498101  |grad|_K:  9.815e-08  alpha:  3.764e-01  linmin:  1.468e-07  t[s]:  82159.73
	FillingsUpdate:  mu: +0.111230574  nElectrons: 358.000000  magneticMoment: [ Abs: 36.18052  Tot: +0.00000 ]
	SubspaceRotationAdjust: set factor to 0.146
ElecMinimize: Iter:  27  F: -2195.545584672899167  |grad|_K:  9.300e-08  alpha:  3.603e-01  linmin: -1.271e-05  t[s]:  82232.23
	FillingsUpdate:  mu: +0.111194245  nElectrons: 358.000000  magneticMoment: [ Abs: 36.18039  Tot: -0.00000 ]
	SubspaceRotationAdjust: set factor to 0.135
ElecMinimize: Iter:  28  F: -2195.545585149092858  |grad|_K:  9.323e-08  alpha:  3.160e-01  linmin:  1.696e-05  t[s]:  82306.78
	FillingsUpdate:  mu: +0.111237323  nElectrons: 358.000000  magneticMoment: [ Abs: 36.18037  Tot: -0.00000 ]
	SubspaceRotationAdjust: set factor to 0.125
ElecMinimize: Iter:  29  F: -2195.545585617687721  |grad|_K:  8.978e-08  alpha:  3.099e-01  linmin: -2.205e-05  t[s]:  82379.45
	FillingsUpdate:  mu: +0.111214637  nElectrons: 358.000000  magneticMoment: [ Abs: 36.18024  Tot: +0.00000 ]
	SubspaceRotationAdjust: set factor to 0.132
ElecMinimize: Iter:  30  F: -2195.545586182617626  |grad|_K:  9.057e-08  alpha:  4.025e-01  linmin:  4.955e-05  t[s]:  82452.57
ElecMinimize: Converged (|Delta F|<1.000000e-06 for 5 iters).
Setting wave functions to eigenvectors of Hamiltonian

# Ionic positions in lattice coordinates:
ion Ni   0.008829584717221  -0.004961032654308   0.150006310491440 1
ion Ni   0.498364482472282   0.500557787730689   0.142428778380529 1
ion Ni   0.251578448466006   0.248923348877582   0.050145754847506 1
ion Ni   0.250697144927008   0.749868008335982   0.051500472636099 1
ion Ni  -0.249564163907463   0.751721724421529   0.050969898210235 1
ion Ni   0.250000000000000   0.750000000000000  -0.150000000000000 0
ion Ni  -0.250000000000000   0.250000000000000  -0.150000000000000 0
ion V   0.500308777128860  -0.000535274445981   0.153050759438260 1
ion V  -0.000364418879084   0.500458115938673   0.148139391952719 1
ion V   0.500000000000000   0.000000000000000  -0.050000000000000 0
ion V   0.000000000000000   0.500000000000000  -0.050000000000000 0
ion V   0.500000000000000   0.500000000000000  -0.050000000000000 0
ion Co  -0.249645673651630   0.246433125436172   0.052103674692950 1
ion Co   0.000000000000000   0.000000000000000  -0.050000000000000 0
ion Co  -0.250000000000000   0.750000000000000  -0.150000000000000 0
ion Cr   0.250000000000000   0.250000000000000  -0.150000000000000 0
ion O   0.252199814117022   0.272990835660765   0.145371773794125 1
ion O   0.255910815572173   0.726580363859082   0.145647421823515 1
ion O  -0.255665627895656   0.276061875144666   0.147552032288883 1
ion O  -0.250081146001133   0.725841606431187   0.144565700674680 1
ion O   0.003132309091800  -0.006170520185488   0.055823099800070 1
ion O   0.496035531789948  -0.006356875543124   0.051801160760024 1
ion O   0.008191753914060   0.504061501853597   0.051262297189032 1
ion O   0.505714209968981   0.508244611179188   0.047753970287226 1
ion O   0.250000000000000   0.250000000000000  -0.050000000000000 0
ion O   0.250000000000000   0.750000000000000  -0.050000000000000 0
ion O  -0.250000000000000   0.250000000000000  -0.050000000000000 0
ion O  -0.250000000000000   0.750000000000000  -0.050000000000000 0
ion O   0.000000000000000   0.000000000000000  -0.150000000000000 0
ion O   0.500000000000000   0.000000000000000  -0.150000000000000 0
ion O   0.000000000000000   0.500000000000000  -0.150000000000000 0
ion O   0.500000000000000   0.500000000000000  -0.150000000000000 0
ion O   0.000751490891096  -0.005680103339725   0.229820830688217 1

# Forces in Lattice coordinates:
force Ni   0.009851140876329   0.000286129028667   0.042888054883697 1
force Ni  -0.000538632376133  -0.000092417453348  -0.043224952100049 1
force Ni  -0.000027424931935   0.000067730966388   0.014882425236877 1
force Ni   0.000128278476949  -0.001554647394624   0.014534906145441 1
force Ni   0.002315194588460  -0.004403067839232   0.007509306939759 1
force Ni  -0.010435803376137   0.013356023370938   0.020932895203087 0
force Ni   0.009538243927789  -0.012455118578948   0.053018556787196 0
force V  -0.007643533025221   0.000612082930058   0.062173257260804 1
force V   0.007504164350815   0.005125814498091  -0.000126349233570 1
force V  -0.037778558616511  -0.029988475524379  -0.035614281608775 0
force V   0.004587707404148   0.047536408633336  -0.143252294653500 0
force V  -0.036136765710366   0.022632132073247  -0.263070854056215 0
force Co   0.003327415994269   0.001091090467523  -0.046536587576453 1
force Co   0.016530502770104  -0.045132276538392  -0.020321508637458 0
force Co   0.011568910576785  -0.001624663981246  -0.593416588883013 0
force Cr   0.014030496770788  -0.025920553516838  -1.535521653657415 0
force O  -0.006918330268368   0.001451591607347  -0.016622154727912 1
force O  -0.009073829842085  -0.005975698261047  -0.015075036953407 1
force O   0.015770549024318   0.001735713247098   0.010507327105360 1
force O   0.006369207978065  -0.003269931097779  -0.008850566953146 1
force O   0.003008349065300  -0.000472498064607  -0.054119127231171 1
force O   0.002000044433871   0.000092598606300   0.005106447820404 1
force O   0.000163440439474  -0.000354917912858   0.029111842806147 1
force O  -0.002986335249480   0.001258069727176   0.021822008068872 1
force O   0.030357409314281  -0.022066203411409   1.040822142374288 0
force O   0.025663874661769   0.016435261055827   0.332062718848029 0
force O  -0.009892857072637  -0.020352903915610   0.331602525459460 0
force O  -0.046748755006775   0.045045233182312   0.415886991559340 0
force O   0.015493513815159   0.027898994975735   0.107916135571461 0
force O  -0.011845806086392   0.021012426218139   0.110789673767536 0
force O   0.017957827164925  -0.025834535793307   0.235469837019686 0
force O  -0.004064274683239  -0.013023220218529   0.037271630494903 0
force O   0.001484737553294  -0.008534979915886  -0.041920852590192 1

# Energy components:
   Eewald =     5990.1639734157761268
       EH =     7967.6629020452483019
     Eloc =   -16292.4012668940194999
      Enl =     -606.1772238517712594
   Epulay =       -0.0004887253079091
      Exc =     -260.1881560548046082
       KE =     1003.9808190005140887
        U =        1.4151044912946436
-------------------------------------
     Etot =    -2195.5443365730693586
       TS =        0.0012496095483162
-------------------------------------
        F =    -2195.5455861826176260

IonicMinimize: Iter:  13  F: -2195.545586182617626  |grad|_K:  5.712e-04  alpha:  1.000e+00  linmin:  2.400e-02  t[s]:  82478.12
IonicMinimize: Converged (|Delta F|<1.000000e-04 for 3 iters).

#--- Lowdin population analysis ---
# oxidation-state Ni +3.449 +3.681 +3.415 +3.494 +3.459 +3.696 +3.685
# magnetic-moments Ni +0.679 -0.904 +0.843 +0.974 -0.872 +0.869 +0.858
# oxidation-state V +1.156 +1.380 +1.065 +1.014 +1.063
# magnetic-moments V -2.977 +2.064 +2.669 -2.780 +2.587
# oxidation-state Co +1.199 +1.231 +1.267
# magnetic-moments Co -2.620 -2.703 +2.733
# oxidation-state Cr +2.975
# magnetic-moments Cr -3.804
# oxidation-state O -0.746 -0.737 -0.834 -0.729 -0.757 -0.785 -0.763 -0.747 -0.872 -0.882 -0.932 -0.913 -0.879 -0.849 -0.834 -0.850 -0.380
# magnetic-moments O +0.071 +0.148 -0.100 -0.191 +0.105 +0.059 +0.079 -0.085 +0.028 +0.084 -0.009 -0.078 +0.076 +0.099 +0.208 +0.103 +1.239


Dumping 'run.ionpos' ... done
Dumping 'run.lattice' ... done
Dumping 'run.Ecomponents' ... done
End date and time: Mon May 19 07:33:34 2025  (Duration: 0-22:54:44.68)
Done!
