/var/spool/slurmd/job44102/slurm_script: line 9: module: command not found
/var/spool/slurmd/job44102/slurm_script: line 10: module: command not found

*************** JDFTx 1.7.0  ***************

Start date and time: Wed May  7 06:49:54 2025
Executable /data2/jt577/jdftx_eat_withLibXC/build/jdftx with command-line: -i /data2/jt577/May_2025/Relax_Mag/rel10+1_6/O/runs/calc_/run.in
Running on hosts (process indices):  node3225 (0-8)
Divided in process groups (process indices):  0 (0)  1 (1)  2 (2)  3 (3)  4 (4)  5 (5)  6 (6)  7 (7)  8 (8)
Resource initialization completed at t[s]:      0.00
Run totals: 9 processes, 36 threads, 0 GPUs


Input parsed successfully to the following command list (including defaults):

add-mix 
add-U 	Ni d 0.22 \
	V d 0.12 \
	Co d 0.2 \
	Cr d 0.16
basis kpoint-dependent
coords-type Lattice
core-overlap-check vector
coulomb-interaction Periodic
davidson-band-ratio 1.1
dump End IonicPositions Lattice Ecomponents
dump-name run.$VAR
elec-cutoff 30
elec-eigen-algo Davidson
elec-ex-corr gga-x-rpbe gga-c-pbe
elec-smearing Fermi 0.001
electronic-minimize  \
	dirUpdateScheme      FletcherReeves \
	linminMethod         DirUpdateRecommended \
	nIterations          1000 \
	history              15 \
	knormThreshold       0 \
	energyDiffThreshold  1e-06 \
	nEnergyDiff          5 \
	alphaTstart          1 \
	alphaTmin            1e-10 \
	updateTestStepSize   yes \
	alphaTreduceFactor   0.1 \
	alphaTincreaseFactor 3 \
	nAlphaAdjustMax      3 \
	wolfeEnergy          0.0001 \
	wolfeGradient        0.9 \
	fdTest               no
exchange-regularization WignerSeitzTruncated
fluid None
fluid-ex-corr (null) lda-PZ
fluid-gummel-loop 10 1.000000e-05
fluid-minimize  \
	dirUpdateScheme      PolakRibiere \
	linminMethod         DirUpdateRecommended \
	nIterations          100 \
	history              15 \
	knormThreshold       0 \
	energyDiffThreshold  0 \
	nEnergyDiff          2 \
	alphaTstart          1 \
	alphaTmin            1e-10 \
	updateTestStepSize   yes \
	alphaTreduceFactor   0.1 \
	alphaTincreaseFactor 3 \
	nAlphaAdjustMax      3 \
	wolfeEnergy          0.0001 \
	wolfeGradient        0.9 \
	fdTest               no
fluid-solvent H2O 55.338 ScalarEOS \
	epsBulk 78.4 \
	pMol 0.92466 \
	epsInf 1.77 \
	Pvap 1.06736e-10 \
	sigmaBulk 4.62e-05 \
	Rvdw 2.61727 \
	Res 1.42 \
	tauNuc 343133 \
	poleEl 15 7 1
forces-output-coords Positions
initial-magnetic-moments  \
	Ni 1 -1 1 1 -1 -1 1 \
	V -1 1 1 -1 1 \
	Co -1 -1 1 \
	Cr -1
initial-state run.$VAR
ion Ni  0.000000000000000   0.000000000000000   0.150000000000000 1
ion Ni  0.500000000000000   0.500000000000000   0.150000000000000 1
ion Ni  0.250000000000000   0.250000000000000   0.050000000000000 1
ion Ni  0.250000000000000   0.750000000000000   0.050000000000000 1
ion Ni -0.250000000000000   0.750000000000000   0.050000000000000 1
ion Ni  0.250000000000000   0.750000000000000  -0.150000000000000 0
ion Ni -0.250000000000000   0.250000000000000  -0.150000000000000 0
ion V  0.500000000000000   0.000000000000000   0.150000000000000 1
ion V  0.000000000000000   0.500000000000000   0.150000000000000 1
ion V  0.500000000000000   0.000000000000000  -0.050000000000000 0
ion V  0.000000000000000   0.500000000000000  -0.050000000000000 0
ion V  0.500000000000000   0.500000000000000  -0.050000000000000 0
ion Co -0.250000000000000   0.250000000000000   0.050000000000000 1
ion Co  0.000000000000000   0.000000000000000  -0.050000000000000 0
ion Co -0.250000000000000   0.750000000000000  -0.150000000000000 0
ion Cr  0.250000000000000   0.250000000000000  -0.150000000000000 0
ion O  0.250000000000000   0.250000000000000   0.150000000000000 1
ion O  0.250000000000000   0.750000000000000   0.150000000000000 1
ion O -0.250000000000000   0.250000000000000   0.150000000000000 1
ion O -0.250000000000000   0.750000000000000   0.150000000000000 1
ion O  0.000000000000000   0.000000000000000   0.050000000000000 1
ion O  0.500000000000000   0.000000000000000   0.050000000000000 1
ion O  0.000000000000000   0.500000000000000   0.050000000000000 1
ion O  0.500000000000000   0.500000000000000   0.050000000000000 1
ion O  0.250000000000000   0.250000000000000  -0.050000000000000 0
ion O  0.250000000000000   0.750000000000000  -0.050000000000000 0
ion O -0.250000000000000   0.250000000000000  -0.050000000000000 0
ion O -0.250000000000000   0.750000000000000  -0.050000000000000 0
ion O  0.000000000000000   0.000000000000000  -0.150000000000000 0
ion O  0.500000000000000   0.000000000000000  -0.150000000000000 0
ion O  0.000000000000000   0.500000000000000  -0.150000000000000 0
ion O  0.500000000000000   0.500000000000000  -0.150000000000000 0
ion O -0.000095572322686   0.000198307128402   0.224876729873325 1
ion-species SG15/$ID_ONCV_PBE.upf
ion-width 0
ionic-minimize  \
	dirUpdateScheme      L-BFGS \
	linminMethod         DirUpdateRecommended \
	nIterations          1000 \
	history              15 \
	knormThreshold       0.0001 \
	energyDiffThreshold  0.0001 \
	nEnergyDiff          3 \
	alphaTstart          1 \
	alphaTmin            1e-10 \
	updateTestStepSize   yes \
	alphaTreduceFactor   0.1 \
	alphaTincreaseFactor 3 \
	nAlphaAdjustMax      3 \
	wolfeEnergy          0.0001 \
	wolfeGradient        0.9 \
	fdTest               no
kpoint   0.500000000000   0.500000000000   0.500000000000  1.00000000000000
kpoint-folding 3 3 1 
latt-move-scale 1 1 1
latt-scale 1 1 1 
lattice  \
	   8.140000000000001    8.140000000000001    0.000000000000000  \
	   8.140000000000001   -8.140000000000001    0.000000000000000  \
	   0.000000000000000    0.000000000000000   40.700000000000003 
lattice-minimize  \
	dirUpdateScheme      L-BFGS \
	linminMethod         DirUpdateRecommended \
	nIterations          0 \
	history              15 \
	knormThreshold       0 \
	energyDiffThreshold  1e-06 \
	nEnergyDiff          2 \
	alphaTstart          1 \
	alphaTmin            1e-10 \
	updateTestStepSize   yes \
	alphaTreduceFactor   0.1 \
	alphaTincreaseFactor 3 \
	nAlphaAdjustMax      3 \
	wolfeEnergy          0.0001 \
	wolfeGradient        0.9 \
	fdTest               no
lcao-params -1 1e-06 0.001
pcm-variant GLSSA13
spintype z-spin
subspace-rotation-factor 1 yes
symmetries none
symmetry-threshold 0.0001


Applied RMS atom displacement 0 bohrs to make symmetries exact.

---------- Initializing the Grid ----------
R = 
[         8.14         8.14            0  ]
[         8.14        -8.14            0  ]
[            0            0         40.7  ]
unit cell volume = 5393.53
G =
[   0.385945   0.385945         -0  ]
[   0.385945  -0.385945         -0  ]
[         -0         -0   0.154378  ]
Minimum fftbox size, Smin = [  60  60  204  ]
Chosen fftbox size, S = [  60  60  210  ]

---------- Exchange Correlation functional ----------
Initialized LibXC exchange functional 'Hammer, Hansen, and Norskov'
Initialized LibXC correlation functional 'Perdew, Burke & Ernzerhof'

---------- Setting up pseudopotentials ----------
Width of ionic core gaussian charges (only for fluid interactions / plotting) set to 0

Reading pseudopotential file '/data2/jt577/jdftx_eat_withLibXC/build/pseudopotentials/SG15/Ni_ONCV_PBE.upf':
  'Ni' pseudopotential, 'PBE' functional
  Generated using ONCVPSP code by D. R. Hamann
  Author: Martin Schlipf and Francois Gygi  Date: 150915.
  18 valence electrons, 4 orbitals, 6 projectors, 1292 radial grid points, with lMax = 2
  Transforming local potential to a uniform radial grid of dG=0.02 with 1419 points.
  Transforming nonlocal projectors to a uniform radial grid of dG=0.02 with 528 points.
    3S    l: 0   occupation:  2.0   eigenvalue: -4.081355
    3P    l: 1   occupation:  6.0   eigenvalue: -2.623460
    4S    l: 0   occupation:  2.0   eigenvalue: -0.207378
    3D    l: 2   occupation:  8.0   eigenvalue: -0.326118
  Transforming atomic orbitals to a uniform radial grid of dG=0.02 with 528 points.
  WARNING: large normalization error in atomic orbital 1s (integral: 0.000006).
  Core radius for overlap checks: 1.99 bohrs.
  Reading pulay file /data2/jt577/jdftx_eat_withLibXC/build/pseudopotentials/SG15/Ni_ONCV_PBE.pulay ... using dE_dnG = -7.250568e-04 computed for Ecut = 30.

Reading pseudopotential file '/data2/jt577/jdftx_eat_withLibXC/build/pseudopotentials/SG15/V_ONCV_PBE.upf':
  'V' pseudopotential, 'PBE' functional
  Generated using ONCVPSP code by D. R. Hamann
  Author: Martin Schlipf and Francois Gygi  Date: 150915.
  13 valence electrons, 4 orbitals, 6 projectors, 1536 radial grid points, with lMax = 2
  Transforming local potential to a uniform radial grid of dG=0.02 with 1419 points.
  Transforming nonlocal projectors to a uniform radial grid of dG=0.02 with 528 points.
    3S    l: 0   occupation:  2.0   eigenvalue: -2.581105
    3P    l: 1   occupation:  6.0   eigenvalue: -1.618486
    4S    l: 0   occupation:  2.0   eigenvalue: -0.172804
    3D    l: 2   occupation:  3.0   eigenvalue: -0.189795
  Transforming atomic orbitals to a uniform radial grid of dG=0.02 with 528 points.
  Core radius for overlap checks: 1.80 bohrs.
  Reading pulay file /data2/jt577/jdftx_eat_withLibXC/build/pseudopotentials/SG15/V_ONCV_PBE.pulay ... using dE_dnG = -1.698632e-04 computed for Ecut = 30.

Reading pseudopotential file '/data2/jt577/jdftx_eat_withLibXC/build/pseudopotentials/SG15/Co_ONCV_PBE.upf':
  'Co' pseudopotential, 'PBE' functional
  Generated using ONCVPSP code by D. R. Hamann
  Author: Martin Schlipf and Francois Gygi  Date: 150915.
  17 valence electrons, 4 orbitals, 6 projectors, 1388 radial grid points, with lMax = 2
  Transforming local potential to a uniform radial grid of dG=0.02 with 1419 points.
  Transforming nonlocal projectors to a uniform radial grid of dG=0.02 with 528 points.
    3S    l: 0   occupation:  2.0   eigenvalue: -3.763303
    3P    l: 1   occupation:  6.0   eigenvalue: -2.412101
    4S    l: 0   occupation:  2.0   eigenvalue: -0.201022
    3D    l: 2   occupation:  7.0   eigenvalue: -0.301498
  Transforming atomic orbitals to a uniform radial grid of dG=0.02 with 528 points.
  Core radius for overlap checks: 1.94 bohrs.
  Reading pulay file /data2/jt577/jdftx_eat_withLibXC/build/pseudopotentials/SG15/Co_ONCV_PBE.pulay ... using dE_dnG = -9.787391e-05 computed for Ecut = 30.

Reading pseudopotential file '/data2/jt577/jdftx_eat_withLibXC/build/pseudopotentials/SG15/Cr_ONCV_PBE.upf':
  'Cr' pseudopotential, 'PBE' functional
  Generated using ONCVPSP code by D. R. Hamann
  Author: Martin Schlipf and Francois Gygi  Date: 150915.
  14 valence electrons, 4 orbitals, 6 projectors, 1160 radial grid points, with lMax = 2
  Transforming local potential to a uniform radial grid of dG=0.02 with 1419 points.
  Transforming nonlocal projectors to a uniform radial grid of dG=0.02 with 528 points.
    3S    l: 0   occupation:  2.0   eigenvalue: -2.865131
    3P    l: 1   occupation:  6.0   eigenvalue: -1.810600
    4S    l: 0   occupation:  2.0   eigenvalue: -0.180525
    3D    l: 2   occupation:  4.0   eigenvalue: -0.220312
  Transforming atomic orbitals to a uniform radial grid of dG=0.02 with 528 points.
  WARNING: large normalization error in atomic orbital 1s (integral: 0.000001).
  Core radius for overlap checks: 2.10 bohrs.
  Reading pulay file /data2/jt577/jdftx_eat_withLibXC/build/pseudopotentials/SG15/Cr_ONCV_PBE.pulay ... using dE_dnG = -9.817895e-06 computed for Ecut = 30.

Reading pseudopotential file '/data2/jt577/jdftx_eat_withLibXC/build/pseudopotentials/SG15/O_ONCV_PBE.upf':
  'O' pseudopotential, 'PBE' functional
  Generated using ONCVPSP code by D. R. Hamann
  Author: Martin Schlipf and Francois Gygi  Date: 150915.
  6 valence electrons, 2 orbitals, 4 projectors, 936 radial grid points, with lMax = 1
  Transforming local potential to a uniform radial grid of dG=0.02 with 1419 points.
  Transforming nonlocal projectors to a uniform radial grid of dG=0.02 with 528 points.
    2S    l: 0   occupation:  2.0   eigenvalue: -0.880572
    2P    l: 1   occupation:  4.0   eigenvalue: -0.331869
  Transforming atomic orbitals to a uniform radial grid of dG=0.02 with 528 points.
  Core radius for overlap checks: 1.29 bohrs.
  Reading pulay file /data2/jt577/jdftx_eat_withLibXC/build/pseudopotentials/SG15/O_ONCV_PBE.pulay ... using dE_dnG = -8.209514e-03 computed for Ecut = 30.

Initialized 5 species with 33 total atoms.

Folded 1 k-points by 3x3x1 to 9 k-points.

---------- Setting up k-points, bands, fillings ----------
No reducable k-points. 
Computing the number of bands and number of electrons
Calculating initial fillings.
nElectrons: 358.000000   nBands: 228   nStates: 18

----- Setting up reduced wavefunction bases (one per k-point) -----
average nbasis = 42312.000 , ideal nbasis = 42330.081

---------- Setting up ewald sum ----------
Optimum gaussian width for ewald sums = 3.906449 bohr.
Real space sum over 605 unit cells with max indices [  5  5  2  ]
Reciprocal space sum over 5915 terms with max indices [  6  6  17  ]

---------- Allocating electronic variables ----------
Initializing wave functions:  linear combination of atomic orbitals
Ni (M=1) pseudo-atom majority spin occupations:   s ( 1 0.5 )  p ( 3 )  d ( 5 )
Ni (M=1) pseudo-atom minority spin occupations:   s ( 1 0 )  p ( 3 )  d ( 4.5 )
V (M=1) pseudo-atom majority spin occupations:   s ( 1 0 )  p ( 3 )  d ( 3 )
V (M=1) pseudo-atom minority spin occupations:   s ( 1 0 )  p ( 3 )  d ( 2 )
Co (M=1) pseudo-atom majority spin occupations:   s ( 1 0 )  p ( 3 )  d ( 5 )
Co (M=1) pseudo-atom minority spin occupations:   s ( 1 0 )  p ( 3 )  d ( 4 )
Cr (M=1) pseudo-atom majority spin occupations:   s ( 1 0 )  p ( 3 )  d ( 3.5 )
Cr (M=1) pseudo-atom minority spin occupations:   s ( 1 0 )  p ( 3 )  d ( 2.5 )
O pseudo-atom occupations:   s ( 2 )  p ( 4 )
	FillingsUpdate:  mu: -0.288909467  nElectrons: 358.000000  magneticMoment: [ Abs: 0.50334  Tot: +0.00000 ]
LCAOMinimize: Iter:   0  F: -2023.9801100651545767  |grad|_K:  1.080e-02  alpha:  1.000e+00
LCAOMinimize: 	Step increased F by 8.689592e+00, reducing alpha to 1.750321e-02.
	FillingsUpdate:  mu: -0.287853244  nElectrons: 358.000000  magneticMoment: [ Abs: 0.55229  Tot: +0.00000 ]
LCAOMinimize: Iter:   1  F: -2025.8435693907379118  |grad|_K:  1.010e-02  alpha:  1.750e-02  linmin: -4.908e-02  cgtest:  1.016e+00  t[s]:    135.96
LCAOMinimize: Encountered beta<0, resetting CG.
LCAOMinimize: 	Wrong curvature in test step, increasing alphaT to 5.250963e-02.
	FillingsUpdate:  mu: -0.245973559  nElectrons: 358.000000  magneticMoment: [ Abs: 0.69311  Tot: +0.00000 ]
LCAOMinimize: Iter:   2  F: -2028.1829423175727243  |grad|_K:  1.493e-02  alpha: -2.260e-02  linmin: -6.537e-02  cgtest:  6.413e-01  t[s]:    170.14
LCAOMinimize: 	Step increased F by 2.399369e+02, reducing alpha to 2.962089e-02.
	FillingsUpdate:  mu: +0.167962224  nElectrons: 358.000000  magneticMoment: [ Abs: 0.88688  Tot: +0.00000 ]
LCAOMinimize: Iter:   3  F: -2044.7684195638958045  |grad|_K:  3.454e-02  alpha:  2.962e-02  linmin: -4.170e-04  cgtest:  7.054e-02  t[s]:    233.72
	FillingsUpdate:  mu: +0.261305551  nElectrons: 358.000000  magneticMoment: [ Abs: 3.95110  Tot: -0.00000 ]
LCAOMinimize: Iter:   4  F: -2057.9037668001174097  |grad|_K:  1.955e-02  alpha:  1.986e-03  linmin: -3.754e-02  cgtest:  1.264e+00  t[s]:    270.22
LCAOMinimize: Encountered beta<0, resetting CG.
LCAOMinimize: 	Wrong curvature in test step, increasing alphaT to 5.959022e-03.
	FillingsUpdate:  mu: +0.245335064  nElectrons: 358.000000  magneticMoment: [ Abs: 4.33531  Tot: -0.00000 ]
LCAOMinimize: Iter:   5  F: -2059.5034253376861670  |grad|_K:  3.929e-02  alpha: -8.057e-04  linmin: -1.174e-01  cgtest:  4.733e-01  t[s]:    304.63
LCAOMinimize: 	Step increased F by 4.598493e+02, reducing alpha to 4.611733e-02.
LCAOMinimize: 	Step increased F by 7.208921e+00, reducing alpha to 4.611733e-03.
	FillingsUpdate:  mu: -0.103749604  nElectrons: 358.000000  magneticMoment: [ Abs: 5.61377  Tot: -0.00000 ]
LCAOMinimize: Iter:   6  F: -2068.8392558017012561  |grad|_K:  2.498e-02  alpha:  4.612e-03  linmin:  4.699e-02  cgtest: -5.217e-01  t[s]:    395.55
LCAOMinimize: 	Bad step direction: g.d > 0.
LCAOMinimize: 	Undoing step.
LCAOMinimize: 	Step failed: resetting search direction.
	FillingsUpdate:  mu: -0.103749604  nElectrons: 358.000000  magneticMoment: [ Abs: 5.61377  Tot: -0.00000 ]
LCAOMinimize: Iter:   7  F: -2068.8392558017012561  |grad|_K:  2.498e-02  alpha:  0.000e+00
LCAOMinimize: 	Predicted alpha/alphaT>3.000000, increasing alphaT to 1.383520e-02.
	FillingsUpdate:  mu: +0.152299338  nElectrons: 358.000000  magneticMoment: [ Abs: 7.72189  Tot: +0.00000 ]
LCAOMinimize: Iter:   8  F: -2073.6178529974540652  |grad|_K:  1.909e-02  alpha:  1.695e-02  linmin:  1.632e-02  cgtest:  5.856e-02  t[s]:    470.64
	FillingsUpdate:  mu: +0.216948995  nElectrons: 358.000000  magneticMoment: [ Abs: 7.62842  Tot: -0.00000 ]
LCAOMinimize: Iter:   9  F: -2075.0725588307300313  |grad|_K:  1.335e-02  alpha:  1.309e-02  linmin: -1.957e-02  cgtest: -5.329e-02  t[s]:    509.12
LCAOMinimize: 	Wrong curvature in test step, increasing alphaT to 3.926012e-02.
	FillingsUpdate:  mu: +0.077023068  nElectrons: 358.000000  magneticMoment: [ Abs: 6.88197  Tot: +0.00000 ]
LCAOMinimize: Iter:  10  F: -2077.8825954346420986  |grad|_K:  1.149e-02  alpha: -1.011e-01  linmin: -4.570e-02  cgtest:  2.615e-01  t[s]:    544.35
LCAOMinimize: 	Step increased F by 1.110176e+02, reducing alpha to 2.068702e-02.
	FillingsUpdate:  mu: +0.102205352  nElectrons: 358.000000  magneticMoment: [ Abs: 5.77663  Tot: +0.00000 ]
LCAOMinimize: Iter:  11  F: -2080.8760945150711450  |grad|_K:  6.158e-03  alpha:  2.069e-02  linmin: -7.459e-02  cgtest:  4.159e-01  t[s]:    608.11
LCAOMinimize: 	Predicted alpha/alphaT>3.000000, increasing alphaT to 6.206107e-02.
LCAOMinimize: 	Predicted alpha/alphaT>3.000000, increasing alphaT to 1.861832e-01.
	FillingsUpdate:  mu: +0.119293893  nElectrons: 358.000000  magneticMoment: [ Abs: 5.74083  Tot: +0.00000 ]
LCAOMinimize: Iter:  12  F: -2081.3765603428400937  |grad|_K:  5.677e-03  alpha:  1.321e-02  linmin: -1.375e-01  cgtest:  9.039e-01  t[s]:    666.12
LCAOMinimize: 	Wrong curvature in test step, increasing alphaT to 3.964310e-02.
	FillingsUpdate:  mu: +0.117270682  nElectrons: 358.000000  magneticMoment: [ Abs: 5.69789  Tot: -0.00000 ]
LCAOMinimize: Iter:  13  F: -2081.7996328612334764  |grad|_K:  5.744e-03  alpha: -2.049e-01  linmin: -1.526e-01  cgtest:  9.451e-01  t[s]:    700.52
LCAOMinimize: 	Step increased F by 5.345586e+00, reducing alpha to 1.228413e-02.
	FillingsUpdate:  mu: +0.115534108  nElectrons: 358.000000  magneticMoment: [ Abs: 5.68039  Tot: -0.00000 ]
LCAOMinimize: Iter:  14  F: -2082.2256219514588338  |grad|_K:  5.842e-03  alpha:  1.228e-02  linmin: -1.641e-01  cgtest:  9.404e-01  t[s]:    764.68
LCAOMinimize: 	Wrong curvature in test step, increasing alphaT to 3.685238e-02.
	FillingsUpdate:  mu: +0.113587156  nElectrons: 358.000000  magneticMoment: [ Abs: 5.70097  Tot: +0.00000 ]
LCAOMinimize: Iter:  15  F: -2082.6747599536120106  |grad|_K:  5.951e-03  alpha: -1.398e-01  linmin: -1.713e-01  cgtest:  9.341e-01  t[s]:    799.44
LCAOMinimize: 	Step increased F by 2.077831e+01, reducing alpha to 1.355376e-02.
	FillingsUpdate:  mu: +0.110222174  nElectrons: 358.000000  magneticMoment: [ Abs: 5.76780  Tot: -0.00000 ]
LCAOMinimize: Iter:  16  F: -2083.1985057215601955  |grad|_K:  6.066e-03  alpha:  1.355e-02  linmin: -1.753e-01  cgtest:  9.204e-01  t[s]:    863.36
LCAOMinimize: 	Wrong curvature in test step, increasing alphaT to 4.066127e-02.
	FillingsUpdate:  mu: +0.105551792  nElectrons: 358.000000  magneticMoment: [ Abs: 5.89258  Tot: +0.00000 ]
LCAOMinimize: Iter:  17  F: -2083.7576677744800691  |grad|_K:  6.309e-03  alpha: -1.090e-01  linmin: -1.667e-01  cgtest:  8.886e-01  t[s]:    898.01
LCAOMinimize: 	Step increased F by 3.568356e+01, reducing alpha to 1.604974e-02.
	FillingsUpdate:  mu: +0.154900303  nElectrons: 358.000000  magneticMoment: [ Abs: 6.25820  Tot: +0.00000 ]
LCAOMinimize: Iter:  18  F: -2084.8500006966423825  |grad|_K:  7.002e-03  alpha:  1.605e-02  linmin: -8.898e-02  cgtest:  6.751e-01  t[s]:    962.01
	FillingsUpdate:  mu: +0.158902845  nElectrons: 358.000000  magneticMoment: [ Abs: 8.26374  Tot: +0.00000 ]
LCAOMinimize: Iter:  19  F: -2086.1453421105934467  |grad|_K:  7.783e-03  alpha:  3.033e-02  linmin: -4.867e-03  cgtest:  3.709e-02  t[s]:    999.35
	FillingsUpdate:  mu: +0.185534003  nElectrons: 358.000000  magneticMoment: [ Abs: 8.75084  Tot: -0.00000 ]
LCAOMinimize: Iter:  20  F: -2086.4828100866056957  |grad|_K:  7.067e-03  alpha:  7.096e-03  linmin: -2.087e-02  cgtest:  8.928e-01  t[s]:   1036.66
	FillingsUpdate:  mu: +0.190940882  nElectrons: 358.000000  magneticMoment: [ Abs: 7.98486  Tot: -0.00000 ]
LCAOMinimize: Iter:  21  F: -2086.9964038436846749  |grad|_K:  5.466e-03  alpha:  1.894e-02  linmin: -2.915e-02  cgtest:  2.146e-01  t[s]:   1074.29
	FillingsUpdate:  mu: -0.111857370  nElectrons: 358.000000  magneticMoment: [ Abs: 7.58832  Tot: +0.00000 ]
LCAOMinimize: Iter:  22  F: -2087.8517199233842803  |grad|_K:  8.882e-03  alpha:  5.320e-02  linmin: -7.397e-04  cgtest: -4.352e-01  t[s]:   1112.13
	FillingsUpdate:  mu: -0.123999362  nElectrons: 358.000000  magneticMoment: [ Abs: 7.58956  Tot: +0.00000 ]
LCAOMinimize: Iter:  23  F: -2088.0241660507645065  |grad|_K:  8.680e-03  alpha:  2.338e-03  linmin: -1.718e-02  cgtest:  1.013e+00  t[s]:   1149.68
LCAOMinimize: Encountered beta<0, resetting CG.
LCAOMinimize: 	Predicted alpha/alphaT>3.000000, increasing alphaT to 7.013722e-03.
LCAOMinimize: 	Predicted alpha/alphaT>3.000000, increasing alphaT to 2.104117e-02.
	FillingsUpdate:  mu: +0.043623062  nElectrons: 358.000000  magneticMoment: [ Abs: 7.88790  Tot: +0.00000 ]
LCAOMinimize: Iter:  24  F: -2088.5675380298880555  |grad|_K:  3.920e-03  alpha:  1.297e-02  linmin:  5.764e-03  cgtest:  2.585e-02  t[s]:   1207.92
LCAOMinimize: 	Predicted alpha/alphaT>3.000000, increasing alphaT to 3.891106e-02.
	FillingsUpdate:  mu: +0.121200434  nElectrons: 358.000000  magneticMoment: [ Abs: 8.96254  Tot: +0.00000 ]
LCAOMinimize: Iter:  25  F: -2088.8921241120524428  |grad|_K:  4.370e-03  alpha:  4.891e-02  linmin:  1.706e-02  cgtest: -1.166e-01  t[s]:   1255.50
	FillingsUpdate:  mu: +0.113778791  nElectrons: 358.000000  magneticMoment: [ Abs: 9.04239  Tot: +0.00000 ]
LCAOMinimize: Iter:  26  F: -2088.9337969826615335  |grad|_K:  4.269e-03  alpha:  3.764e-03  linmin: -2.045e-02  cgtest:  9.923e-01  t[s]:   1292.74
LCAOMinimize: Encountered beta<0, resetting CG.
LCAOMinimize: 	Predicted alpha/alphaT>3.000000, increasing alphaT to 1.129341e-02.
	FillingsUpdate:  mu: +0.006397641  nElectrons: 358.000000  magneticMoment: [ Abs: 8.67181  Tot: -0.00000 ]
LCAOMinimize: Iter:  27  F: -2089.1321394505762328  |grad|_K:  1.350e-03  alpha:  2.216e-02  linmin: -3.580e-02  cgtest:  3.107e-01  t[s]:   1340.41
LCAOMinimize: 	Predicted alpha/alphaT>3.000000, increasing alphaT to 6.649356e-02.
	FillingsUpdate:  mu: +0.012972888  nElectrons: 358.000000  magneticMoment: [ Abs: 9.12104  Tot: +0.00000 ]
LCAOMinimize: Iter:  28  F: -2089.1964922318961726  |grad|_K:  2.229e-03  alpha:  9.872e-02  linmin:  1.188e-02  cgtest: -8.900e-02  t[s]:   1387.56
	FillingsUpdate:  mu: +0.005650894  nElectrons: 358.000000  magneticMoment: [ Abs: 9.23540  Tot: +0.00000 ]
LCAOMinimize: Iter:  29  F: -2089.2059810247046698  |grad|_K:  2.346e-03  alpha:  9.883e-03  linmin: -1.020e-03  cgtest:  9.885e-01  t[s]:   1424.99
	FillingsUpdate:  mu: +0.008809551  nElectrons: 358.000000  magneticMoment: [ Abs: 9.20487  Tot: -0.00000 ]
LCAOMinimize: Iter:  30  F: -2089.2623994378559473  |grad|_K:  1.041e-03  alpha:  2.001e-02  linmin: -1.959e-02  cgtest:  4.021e-01  t[s]:   1461.91
LCAOMinimize: None of the convergence criteria satisfied after 30 iterations.


---- Citations for features of the code used in this run ----

   Software package:
      R. Sundararaman, K. Letchworth-Weaver, K.A. Schwarz, D. Gunceler, Y. Ozhabes and T.A. Arias, 'JDFTx: software for joint density-functional theory', SoftwareX 6, 278 (2017)

   Simplified rotationally-invariant DFT+U:
      S. L. Dudarev et al., Phys. Rev. B 57, 1505 (1998)

   LibXC library of exchange-correlation functions:
      M. A. L. Marques, M. J. T. Oliveira and T. Burnus, Comput. Phys. Commun. 183, 2272 (2012)

   Hammer, Hansen, and Norskov exchange functional:
      B. Hammer, L. B. Hansen, and J. K. Nørskov, Phys. Rev. B 59, 7413 (1999)

   Perdew, Burke & Ernzerhof correlation functional:
      J. P. Perdew, K. Burke, and M. Ernzerhof, Phys. Rev. Lett. 77, 3865 (1996)

   Pseudopotentials:
      M Schlipf and F Gygi, Comput. Phys. Commun. 196, 36 (2015)

   Total energy minimization with Auxiliary Hamiltonian:
      C. Freysoldt, S. Boeck, and J. Neugebauer, Phys. Rev. B 79, 241103(R) (2009)

This list may not be complete. Please suggest additional citations or
report any other bugs at https://github.com/shankar1729/jdftx/issues

Initialization completed successfully at t[s]:   1473.77


-------- Electronic minimization -----------
	FillingsUpdate:  mu: +0.008809577  nElectrons: 358.000000  magneticMoment: [ Abs: 9.20487  Tot: -0.00000 ]
ElecMinimize: Iter:   0  F: -2089.262399437852309  |grad|_K:  1.132e-03  alpha:  1.000e+00
	FillingsUpdate:  mu: +0.547185312  nElectrons: 358.000000  magneticMoment: [ Abs: 10.22267  Tot: +0.00000 ]
	SubspaceRotationAdjust: set factor to 0.992
ElecMinimize: Iter:   1  F: -2146.710136541535121  |grad|_K:  1.480e-03  alpha:  4.745e-01  linmin:  1.417e-02  t[s]:   1588.29
ElecMinimize: 	Step increased F by 1.208241e+01, reducing alpha to 7.728179e-03.
	FillingsUpdate:  mu: +0.482616588  nElectrons: 358.000000  magneticMoment: [ Abs: 10.63949  Tot: +0.00000 ]
	SubspaceRotationAdjust: set factor to 1.3
ElecMinimize: Iter:   2  F: -2149.605888107872033  |grad|_K:  9.480e-04  alpha:  7.728e-03  linmin: -2.995e-03  t[s]:   1714.72
ElecMinimize: 	Predicted alpha/alphaT>3.000000, increasing alphaT to 2.318454e-02.
	FillingsUpdate:  mu: +0.773519755  nElectrons: 358.000000  magneticMoment: [ Abs: 10.51568  Tot: +0.00000 ]
	SubspaceRotationAdjust: set factor to 0.998
ElecMinimize: Iter:   3  F: -2156.256239995022042  |grad|_K:  1.290e-03  alpha:  3.249e-02  linmin: -5.809e-04  t[s]:   1814.25
	FillingsUpdate:  mu: +0.225315923  nElectrons: 358.000000  magneticMoment: [ Abs: 13.10638  Tot: -0.00000 ]
	SubspaceRotationAdjust: set factor to 0.633
ElecMinimize: Iter:   4  F: -2172.359725579528913  |grad|_K:  1.260e-03  alpha:  6.501e-02  linmin:  2.287e-03  t[s]:   1893.83
	FillingsUpdate:  mu: +0.191650359  nElectrons: 358.000000  magneticMoment: [ Abs: 13.26341  Tot: +0.00000 ]
	SubspaceRotationAdjust: set factor to 0.449
ElecMinimize: Iter:   5  F: -2172.967915417197219  |grad|_K:  1.008e-03  alpha:  2.835e-03  linmin: -9.828e-04  t[s]:   1968.79
ElecMinimize: 	Predicted alpha/alphaT>3.000000, increasing alphaT to 8.503552e-03.
ElecMinimize: 	Predicted alpha/alphaT>3.000000, increasing alphaT to 2.551066e-02.
	FillingsUpdate:  mu: +0.583653468  nElectrons: 358.000000  magneticMoment: [ Abs: 14.79008  Tot: -0.00000 ]
	SubspaceRotationAdjust: set factor to 0.345
ElecMinimize: Iter:   6  F: -2178.364834903325118  |grad|_K:  8.707e-04  alpha:  2.248e-02  linmin:  4.124e-04  t[s]:   2087.48
	FillingsUpdate:  mu: +0.723302311  nElectrons: 358.000000  magneticMoment: [ Abs: 15.37863  Tot: -0.00000 ]
	SubspaceRotationAdjust: set factor to 0.247
ElecMinimize: Iter:   7  F: -2180.041790990590016  |grad|_K:  8.971e-04  alpha:  1.571e-02  linmin: -5.963e-05  t[s]:   2164.30
ElecMinimize: 	Predicted alpha/alphaT>3.000000, increasing alphaT to 4.713647e-02.
	FillingsUpdate:  mu: +0.651552815  nElectrons: 358.000000  magneticMoment: [ Abs: 16.58163  Tot: +0.00000 ]
	SubspaceRotationAdjust: set factor to 0.213
ElecMinimize: Iter:   8  F: -2183.606717505530469  |grad|_K:  6.940e-04  alpha:  1.347e-02  linmin: -1.613e-03  t[s]:   2261.55
	FillingsUpdate:  mu: +0.230590462  nElectrons: 358.000000  magneticMoment: [ Abs: 18.06623  Tot: +0.00000 ]
	SubspaceRotationAdjust: set factor to 0.24
ElecMinimize: Iter:   9  F: -2186.277607327656369  |grad|_K:  4.466e-04  alpha:  2.164e-02  linmin:  6.035e-04  t[s]:   2337.51
	FillingsUpdate:  mu: +0.263040031  nElectrons: 358.000000  magneticMoment: [ Abs: 18.48237  Tot: -0.00000 ]
	SubspaceRotationAdjust: set factor to 0.292
ElecMinimize: Iter:  10  F: -2186.751208140837662  |grad|_K:  4.657e-04  alpha:  1.619e-02  linmin:  1.000e-04  t[s]:   2413.22
	FillingsUpdate:  mu: +0.348967327  nElectrons: 358.000000  magneticMoment: [ Abs: 18.93471  Tot: +0.00000 ]
	SubspaceRotationAdjust: set factor to 0.222
ElecMinimize: Iter:  11  F: -2187.485250080725564  |grad|_K:  5.239e-04  alpha:  2.035e-02  linmin:  2.096e-04  t[s]:   2489.38
	FillingsUpdate:  mu: +0.377558614  nElectrons: 358.000000  magneticMoment: [ Abs: 19.28601  Tot: +0.00000 ]
	SubspaceRotationAdjust: set factor to 0.16
ElecMinimize: Iter:  12  F: -2188.082135262034626  |grad|_K:  4.680e-04  alpha:  1.282e-02  linmin: -8.863e-05  t[s]:   2565.33
	FillingsUpdate:  mu: +0.385267013  nElectrons: 358.000000  magneticMoment: [ Abs: 19.54447  Tot: +0.00000 ]
	SubspaceRotationAdjust: set factor to 0.126
	SubspaceRotationAdjust: resetting CG because factor has changed by 0.126484
ElecMinimize: 	State modified externally: resetting search direction.
ElecMinimize: Iter:  13  F: -2188.647013935750692  |grad|_K:  3.536e-04  alpha:  1.463e-02
ElecMinimize: 	Predicted alpha/alphaT>3.000000, increasing alphaT to 4.389637e-02.
	FillingsUpdate:  mu: +0.228174537  nElectrons: 358.000000  magneticMoment: [ Abs: 19.54750  Tot: -0.00000 ]
	SubspaceRotationAdjust: set factor to 0.0934
ElecMinimize: Iter:  14  F: -2191.678062071000113  |grad|_K:  1.871e-04  alpha:  1.208e-01  linmin: -1.661e-02  t[s]:   2773.84
	FillingsUpdate:  mu: +0.162615490  nElectrons: 358.000000  magneticMoment: [ Abs: 19.80080  Tot: -0.00000 ]
	SubspaceRotationAdjust: set factor to 0.169
ElecMinimize: Iter:  15  F: -2193.058775106441317  |grad|_K:  8.573e-05  alpha:  1.744e-01  linmin: -4.506e-03  t[s]:   2849.59
	FillingsUpdate:  mu: +0.095026743  nElectrons: 358.000000  magneticMoment: [ Abs: 19.74155  Tot: +0.00000 ]
	SubspaceRotationAdjust: set factor to 0.176
ElecMinimize: Iter:  16  F: -2193.640901841154573  |grad|_K:  9.595e-05  alpha:  4.069e-01  linmin:  9.491e-04  t[s]:   2925.39
	FillingsUpdate:  mu: +0.097785050  nElectrons: 358.000000  magneticMoment: [ Abs: 19.76474  Tot: +0.00000 ]
	SubspaceRotationAdjust: set factor to 0.147
ElecMinimize: Iter:  17  F: -2193.821030519607120  |grad|_K:  1.000e-04  alpha:  1.392e-01  linmin:  1.635e-04  t[s]:   3000.46
	FillingsUpdate:  mu: +0.125180384  nElectrons: 358.000000  magneticMoment: [ Abs: 20.52542  Tot: +0.00000 ]
	SubspaceRotationAdjust: set factor to 0.163
ElecMinimize: Iter:  18  F: -2194.088621376913579  |grad|_K:  7.209e-05  alpha:  1.611e-01  linmin:  9.138e-06  t[s]:   3076.45
	FillingsUpdate:  mu: +0.138079539  nElectrons: 358.000000  magneticMoment: [ Abs: 21.53982  Tot: +0.00000 ]
	SubspaceRotationAdjust: set factor to 0.189
ElecMinimize: Iter:  19  F: -2194.347549594499924  |grad|_K:  7.016e-05  alpha:  2.875e-01  linmin:  6.173e-06  t[s]:   3151.47
	FillingsUpdate:  mu: +0.120543274  nElectrons: 358.000000  magneticMoment: [ Abs: 22.10524  Tot: -0.00000 ]
	SubspaceRotationAdjust: set factor to 0.173
ElecMinimize: Iter:  20  F: -2194.500569340086713  |grad|_K:  7.170e-05  alpha:  1.774e-01  linmin: -2.095e-06  t[s]:   3228.84
	FillingsUpdate:  mu: +0.093252201  nElectrons: 358.000000  magneticMoment: [ Abs: 22.77874  Tot: +0.00000 ]
	SubspaceRotationAdjust: set factor to 0.172
ElecMinimize: Iter:  21  F: -2194.625862822053023  |grad|_K:  5.631e-05  alpha:  1.419e-01  linmin: -2.893e-05  t[s]:   3306.11
	FillingsUpdate:  mu: +0.113320867  nElectrons: 358.000000  magneticMoment: [ Abs: 23.55131  Tot: +0.00000 ]
	SubspaceRotationAdjust: set factor to 0.208
ElecMinimize: Iter:  22  F: -2194.764618021245042  |grad|_K:  5.544e-05  alpha:  2.491e-01  linmin:  1.197e-05  t[s]:   3382.25
	FillingsUpdate:  mu: +0.126944418  nElectrons: 358.000000  magneticMoment: [ Abs: 24.08934  Tot: +0.00000 ]
	SubspaceRotationAdjust: set factor to 0.179
ElecMinimize: Iter:  23  F: -2194.854759111231488  |grad|_K:  5.981e-05  alpha:  1.705e-01  linmin: -6.848e-06  t[s]:   3458.39
	FillingsUpdate:  mu: +0.119220844  nElectrons: 358.000000  magneticMoment: [ Abs: 24.69417  Tot: -0.00000 ]
	SubspaceRotationAdjust: set factor to 0.139
ElecMinimize: Iter:  24  F: -2194.965536468520895  |grad|_K:  5.342e-05  alpha:  1.777e-01  linmin:  5.535e-05  t[s]:   3535.05
	FillingsUpdate:  mu: +0.099793486  nElectrons: 358.000000  magneticMoment: [ Abs: 25.21113  Tot: +0.00000 ]
	SubspaceRotationAdjust: set factor to 0.131
ElecMinimize: Iter:  25  F: -2195.061729582789212  |grad|_K:  4.708e-05  alpha:  2.046e-01  linmin: -3.893e-06  t[s]:   3610.10
	FillingsUpdate:  mu: +0.096762830  nElectrons: 358.000000  magneticMoment: [ Abs: 25.80792  Tot: -0.00000 ]
	SubspaceRotationAdjust: set factor to 0.145
ElecMinimize: Iter:  26  F: -2195.140647740417080  |grad|_K:  4.193e-05  alpha:  2.003e-01  linmin:  4.011e-04  t[s]:   3685.65
	FillingsUpdate:  mu: +0.096755571  nElectrons: 358.000000  magneticMoment: [ Abs: 25.81229  Tot: +0.00000 ]
	SubspaceRotationAdjust: set factor to 0.163
ElecMinimize: Iter:  27  F: -2195.141510633610324  |grad|_K:  4.203e-05  alpha:  1.629e-03  linmin: -7.103e-04  t[s]:   3761.59
ElecMinimize: 	Predicted alpha/alphaT>3.000000, increasing alphaT to 4.885839e-03.
ElecMinimize: 	Predicted alpha/alphaT>3.000000, increasing alphaT to 1.465752e-02.
ElecMinimize: 	Predicted alpha/alphaT>3.000000, increasing alphaT to 4.397255e-02.
	FillingsUpdate:  mu: +0.101013005  nElectrons: 358.000000  magneticMoment: [ Abs: 26.00905  Tot: -0.00000 ]
	SubspaceRotationAdjust: set factor to 0.168
ElecMinimize: Iter:  28  F: -2195.164204425191201  |grad|_K:  3.322e-05  alpha:  6.005e-02  linmin:  1.199e-03  t[s]:   3881.83
	FillingsUpdate:  mu: +0.101035802  nElectrons: 358.000000  magneticMoment: [ Abs: 26.01669  Tot: -0.00000 ]
	SubspaceRotationAdjust: set factor to 0.203
ElecMinimize: Iter:  29  F: -2195.164384362220062  |grad|_K:  3.299e-05  alpha:  3.163e-03  linmin: -9.678e-05  t[s]:   3957.60
ElecMinimize: 	Predicted alpha/alphaT>3.000000, increasing alphaT to 9.489000e-03.
	FillingsUpdate:  mu: +0.101627895  nElectrons: 358.000000  magneticMoment: [ Abs: 26.06911  Tot: +0.00000 ]
	SubspaceRotationAdjust: set factor to 0.251
ElecMinimize: Iter:  30  F: -2195.168002807122321  |grad|_K:  3.029e-05  alpha:  1.873e-02  linmin:  1.570e-04  t[s]:   4055.01
	FillingsUpdate:  mu: +0.101195533  nElectrons: 358.000000  magneticMoment: [ Abs: 26.10358  Tot: +0.00000 ]
	SubspaceRotationAdjust: set factor to 0.323
ElecMinimize: Iter:  31  F: -2195.169857011684144  |grad|_K:  2.890e-05  alpha:  1.242e-02  linmin: -5.944e-06  t[s]:   4131.44
	FillingsUpdate:  mu: +0.099040792  nElectrons: 358.000000  magneticMoment: [ Abs: 26.13842  Tot: -0.00000 ]
	SubspaceRotationAdjust: set factor to 0.401
ElecMinimize: Iter:  32  F: -2195.171592272991347  |grad|_K:  2.854e-05  alpha:  1.187e-02  linmin:  3.419e-05  t[s]:   4208.40
	FillingsUpdate:  mu: +0.096990150  nElectrons: 358.000000  magneticMoment: [ Abs: 26.17175  Tot: +0.00000 ]
	SubspaceRotationAdjust: set factor to 0.382
ElecMinimize: Iter:  33  F: -2195.173031673143669  |grad|_K:  2.954e-05  alpha:  1.025e-02  linmin:  1.897e-05  t[s]:   4284.77
	FillingsUpdate:  mu: +0.095599106  nElectrons: 358.000000  magneticMoment: [ Abs: 26.20675  Tot: +0.00000 ]
	SubspaceRotationAdjust: set factor to 0.331
ElecMinimize: Iter:  34  F: -2195.174396478868402  |grad|_K:  2.907e-05  alpha:  9.014e-03  linmin:  1.696e-05  t[s]:   4360.49
	FillingsUpdate:  mu: +0.094234333  nElectrons: 358.000000  magneticMoment: [ Abs: 26.24328  Tot: +0.00000 ]
	SubspaceRotationAdjust: set factor to 0.282
ElecMinimize: Iter:  35  F: -2195.175680806023138  |grad|_K:  2.746e-05  alpha:  8.771e-03  linmin:  1.709e-05  t[s]:   4437.92
	FillingsUpdate:  mu: +0.092844280  nElectrons: 358.000000  magneticMoment: [ Abs: 26.28166  Tot: -0.00000 ]
	SubspaceRotationAdjust: set factor to 0.244
ElecMinimize: Iter:  36  F: -2195.176878781792311  |grad|_K:  2.569e-05  alpha:  9.177e-03  linmin:  8.142e-06  t[s]:   4514.52
	FillingsUpdate:  mu: +0.091864320  nElectrons: 358.000000  magneticMoment: [ Abs: 26.32423  Tot: -0.00000 ]
	SubspaceRotationAdjust: set factor to 0.213
ElecMinimize: Iter:  37  F: -2195.178028888297376  |grad|_K:  2.445e-05  alpha:  1.004e-02  linmin: -4.366e-06  t[s]:   4590.88
	FillingsUpdate:  mu: +0.092217470  nElectrons: 358.000000  magneticMoment: [ Abs: 26.37466  Tot: -0.00000 ]
	SubspaceRotationAdjust: set factor to 0.183
ElecMinimize: Iter:  38  F: -2195.179184626807910  |grad|_K:  2.373e-05  alpha:  1.110e-02  linmin: -1.599e-05  t[s]:   4667.29
	FillingsUpdate:  mu: +0.092483113  nElectrons: 358.000000  magneticMoment: [ Abs: 26.43623  Tot: +0.00000 ]
	SubspaceRotationAdjust: set factor to 0.155
ElecMinimize: Iter:  39  F: -2195.180381262535775  |grad|_K:  2.312e-05  alpha:  1.217e-02  linmin: -2.358e-05  t[s]:   4743.56
	FillingsUpdate:  mu: +0.091846549  nElectrons: 358.000000  magneticMoment: [ Abs: 26.50981  Tot: +0.00000 ]
	SubspaceRotationAdjust: set factor to 0.133
ElecMinimize: Iter:  40  F: -2195.181611369016991  |grad|_K:  2.232e-05  alpha:  1.316e-02  linmin: -2.729e-05  t[s]:   4819.64
	FillingsUpdate:  mu: +0.090890141  nElectrons: 358.000000  magneticMoment: [ Abs: 26.59312  Tot: +0.00000 ]
	SubspaceRotationAdjust: set factor to 0.116
ElecMinimize: Iter:  41  F: -2195.182837832551741  |grad|_K:  2.136e-05  alpha:  1.408e-02  linmin: -3.189e-05  t[s]:   4895.19
	FillingsUpdate:  mu: +0.089739094  nElectrons: 358.000000  magneticMoment: [ Abs: 26.68288  Tot: -0.00000 ]
	SubspaceRotationAdjust: set factor to 0.104
ElecMinimize: Iter:  42  F: -2195.184034788257122  |grad|_K:  2.048e-05  alpha:  1.500e-02  linmin: -4.212e-05  t[s]:   4970.63
	FillingsUpdate:  mu: +0.088312524  nElectrons: 358.000000  magneticMoment: [ Abs: 26.77733  Tot: -0.00000 ]
	SubspaceRotationAdjust: set factor to 0.0948
ElecMinimize: Iter:  43  F: -2195.185207409851955  |grad|_K:  1.985e-05  alpha:  1.596e-02  linmin: -5.768e-05  t[s]:   5045.73
	FillingsUpdate:  mu: +0.086815048  nElectrons: 358.000000  magneticMoment: [ Abs: 26.87638  Tot: +0.00000 ]
	SubspaceRotationAdjust: set factor to 0.0874
ElecMinimize: Iter:  44  F: -2195.186381721423004  |grad|_K:  1.949e-05  alpha:  1.698e-02  linmin: -7.438e-05  t[s]:   5121.84
	FillingsUpdate:  mu: +0.085783944  nElectrons: 358.000000  magneticMoment: [ Abs: 26.98082  Tot: -0.00000 ]
	SubspaceRotationAdjust: set factor to 0.0818
ElecMinimize: Iter:  45  F: -2195.187588308344402  |grad|_K:  1.935e-05  alpha:  1.805e-02  linmin: -8.719e-05  t[s]:   5198.44
	FillingsUpdate:  mu: +0.085749027  nElectrons: 358.000000  magneticMoment: [ Abs: 27.09133  Tot: +0.00000 ]
	SubspaceRotationAdjust: set factor to 0.079
ElecMinimize: Iter:  46  F: -2195.188851343529223  |grad|_K:  1.941e-05  alpha:  1.913e-02  linmin: -9.272e-05  t[s]:   5274.13
	FillingsUpdate:  mu: +0.085650306  nElectrons: 358.000000  magneticMoment: [ Abs: 27.20789  Tot: -0.00000 ]
	SubspaceRotationAdjust: set factor to 0.0802
ElecMinimize: Iter:  47  F: -2195.190184233594209  |grad|_K:  1.970e-05  alpha:  2.004e-02  linmin: -9.090e-05  t[s]:   5349.52
	FillingsUpdate:  mu: +0.085546793  nElectrons: 358.000000  magneticMoment: [ Abs: 27.33012  Tot: +0.00000 ]
	SubspaceRotationAdjust: set factor to 0.0865
ElecMinimize: Iter:  48  F: -2195.191591202908057  |grad|_K:  2.028e-05  alpha:  2.053e-02  linmin: -8.479e-05  t[s]:   5425.96
	FillingsUpdate:  mu: +0.086237636  nElectrons: 358.000000  magneticMoment: [ Abs: 27.45788  Tot: +0.00000 ]
	SubspaceRotationAdjust: set factor to 0.0982
ElecMinimize: Iter:  49  F: -2195.193072442641096  |grad|_K:  2.121e-05  alpha:  2.039e-02  linmin: -7.835e-05  t[s]:   5502.41
	FillingsUpdate:  mu: +0.087704892  nElectrons: 358.000000  magneticMoment: [ Abs: 27.59174  Tot: -0.00000 ]
	SubspaceRotationAdjust: set factor to 0.115
ElecMinimize: Iter:  50  F: -2195.194629351614822  |grad|_K:  2.249e-05  alpha:  1.960e-02  linmin: -7.405e-05  t[s]:   5577.91
	FillingsUpdate:  mu: +0.090170032  nElectrons: 358.000000  magneticMoment: [ Abs: 27.73261  Tot: -0.00000 ]
	SubspaceRotationAdjust: set factor to 0.135
ElecMinimize: Iter:  51  F: -2195.196266571514116  |grad|_K:  2.407e-05  alpha:  1.833e-02  linmin: -7.221e-05  t[s]:   5653.58
	FillingsUpdate:  mu: +0.092363455  nElectrons: 358.000000  magneticMoment: [ Abs: 27.88151  Tot: +0.00000 ]
	SubspaceRotationAdjust: set factor to 0.158
ElecMinimize: Iter:  52  F: -2195.197987732780803  |grad|_K:  2.583e-05  alpha:  1.680e-02  linmin: -7.214e-05  t[s]:   5729.88
	FillingsUpdate:  mu: +0.093094228  nElectrons: 358.000000  magneticMoment: [ Abs: 28.03860  Tot: +0.00000 ]
	SubspaceRotationAdjust: set factor to 0.182
ElecMinimize: Iter:  53  F: -2195.199785765968954  |grad|_K:  2.753e-05  alpha:  1.523e-02  linmin: -7.319e-05  t[s]:   5807.44
	FillingsUpdate:  mu: +0.093573066  nElectrons: 358.000000  magneticMoment: [ Abs: 28.20272  Tot: -0.00000 ]
	SubspaceRotationAdjust: set factor to 0.212
ElecMinimize: Iter:  54  F: -2195.201636487081032  |grad|_K:  2.898e-05  alpha:  1.378e-02  linmin: -7.486e-05  t[s]:   5883.42
	FillingsUpdate:  mu: +0.094432685  nElectrons: 358.000000  magneticMoment: [ Abs: 28.37156  Tot: -0.00000 ]
	SubspaceRotationAdjust: set factor to 0.251
ElecMinimize: Iter:  55  F: -2195.203503448819447  |grad|_K:  3.008e-05  alpha:  1.253e-02  linmin: -7.630e-05  t[s]:   5960.16
	FillingsUpdate:  mu: +0.095508172  nElectrons: 358.000000  magneticMoment: [ Abs: 28.54279  Tot: -0.00000 ]
	SubspaceRotationAdjust: set factor to 0.304
ElecMinimize: Iter:  56  F: -2195.205350413676570  |grad|_K:  3.093e-05  alpha:  1.148e-02  linmin: -7.650e-05  t[s]:   6038.28
	FillingsUpdate:  mu: +0.095357247  nElectrons: 358.000000  magneticMoment: [ Abs: 28.71539  Tot: +0.00000 ]
	SubspaceRotationAdjust: set factor to 0.371
ElecMinimize: Iter:  57  F: -2195.207155487977161  |grad|_K:  3.171e-05  alpha:  1.061e-02  linmin: -7.515e-05  t[s]:   6115.37
	FillingsUpdate:  mu: +0.095959200  nElectrons: 358.000000  magneticMoment: [ Abs: 28.89040  Tot: +0.00000 ]
	SubspaceRotationAdjust: set factor to 0.442
ElecMinimize: Iter:  58  F: -2195.208923847098959  |grad|_K:  3.266e-05  alpha:  9.878e-03  linmin: -7.328e-05  t[s]:   6192.36
	FillingsUpdate:  mu: +0.096102075  nElectrons: 358.000000  magneticMoment: [ Abs: 29.07106  Tot: -0.00000 ]
	SubspaceRotationAdjust: set factor to 0.505
ElecMinimize: Iter:  59  F: -2195.210687236241938  |grad|_K:  3.374e-05  alpha:  9.279e-03  linmin: -7.224e-05  t[s]:   6269.21
	FillingsUpdate:  mu: +0.096779645  nElectrons: 358.000000  magneticMoment: [ Abs: 29.25997  Tot: +0.00000 ]
	SubspaceRotationAdjust: set factor to 0.566
ElecMinimize: Iter:  60  F: -2195.212473060824777  |grad|_K:  3.447e-05  alpha:  8.799e-03  linmin: -7.183e-05  t[s]:   6345.57
	FillingsUpdate:  mu: +0.097699407  nElectrons: 358.000000  magneticMoment: [ Abs: 29.45419  Tot: +0.00000 ]
	SubspaceRotationAdjust: set factor to 0.656
ElecMinimize: Iter:  61  F: -2195.214260737879158  |grad|_K:  3.444e-05  alpha:  8.431e-03  linmin: -6.978e-05  t[s]:   6421.52
	FillingsUpdate:  mu: +0.099142034  nElectrons: 358.000000  magneticMoment: [ Abs: 29.64749  Tot: -0.00000 ]
	SubspaceRotationAdjust: set factor to 0.804
ElecMinimize: Iter:  62  F: -2195.215994333293111  |grad|_K:  3.410e-05  alpha:  8.182e-03  linmin: -6.457e-05  t[s]:   6497.55
	FillingsUpdate:  mu: +0.100679138  nElectrons: 358.000000  magneticMoment: [ Abs: 29.83985  Tot: +0.00000 ]
	SubspaceRotationAdjust: set factor to 0.976
	SubspaceRotationAdjust: resetting CG because factor has changed by 7.71459
ElecMinimize: 	State modified externally: resetting search direction.
ElecMinimize: Iter:  63  F: -2195.217665636816037  |grad|_K:  3.603e-05  alpha:  8.047e-03
ElecMinimize: 	Predicted alpha/alphaT>3.000000, increasing alphaT to 2.414205e-02.
ElecMinimize: 	Predicted alpha/alphaT>3.000000, increasing alphaT to 7.242615e-02.
ElecMinimize: 	Predicted alpha/alphaT>3.000000, increasing alphaT to 2.172785e-01.
	FillingsUpdate:  mu: +0.108395628  nElectrons: 358.000000  magneticMoment: [ Abs: 30.46767  Tot: -0.00000 ]
	SubspaceRotationAdjust: set factor to 0.57
ElecMinimize: Iter:  64  F: -2195.297707454815281  |grad|_K:  5.408e-05  alpha:  3.121e-01  linmin: -4.059e-03  t[s]:   6726.18
	FillingsUpdate:  mu: +0.130007972  nElectrons: 358.000000  magneticMoment: [ Abs: 30.79509  Tot: +0.00000 ]
	SubspaceRotationAdjust: set factor to 0.317
ElecMinimize: Iter:  65  F: -2195.311756229642469  |grad|_K:  6.970e-05  alpha:  4.625e-02  linmin:  6.218e-03  t[s]:   6806.01
	FillingsUpdate:  mu: +0.135965646  nElectrons: 358.000000  magneticMoment: [ Abs: 31.40365  Tot: -0.00000 ]
	SubspaceRotationAdjust: set factor to 0.181
ElecMinimize: Iter:  66  F: -2195.327338896817764  |grad|_K:  6.463e-05  alpha:  3.581e-02  linmin:  5.788e-05  t[s]:   6884.20
	FillingsUpdate:  mu: +0.098310809  nElectrons: 358.000000  magneticMoment: [ Abs: 32.15533  Tot: -0.00000 ]
	SubspaceRotationAdjust: set factor to 0.175
ElecMinimize: Iter:  67  F: -2195.363110778314422  |grad|_K:  2.982e-05  alpha:  5.027e-02  linmin:  4.339e-04  t[s]:   6960.25
	FillingsUpdate:  mu: +0.102992596  nElectrons: 358.000000  magneticMoment: [ Abs: 32.42394  Tot: +0.00000 ]
	SubspaceRotationAdjust: set factor to 0.117
	SubspaceRotationAdjust: resetting CG because factor has changed by 0.119953
ElecMinimize: 	State modified externally: resetting search direction.
ElecMinimize: Iter:  68  F: -2195.383295476235617  |grad|_K:  2.633e-05  alpha:  1.300e-01
	FillingsUpdate:  mu: +0.094952135  nElectrons: 358.000000  magneticMoment: [ Abs: 32.34344  Tot: -0.00000 ]
	SubspaceRotationAdjust: set factor to 0.104
ElecMinimize: Iter:  69  F: -2195.401559570084828  |grad|_K:  1.452e-05  alpha:  1.536e-01  linmin:  7.536e-03  t[s]:   7147.21
	FillingsUpdate:  mu: +0.099793098  nElectrons: 358.000000  magneticMoment: [ Abs: 32.35777  Tot: -0.00000 ]
	SubspaceRotationAdjust: set factor to 0.102
ElecMinimize: Iter:  70  F: -2195.412936637427265  |grad|_K:  8.735e-06  alpha:  3.272e-01  linmin: -2.047e-03  t[s]:   7223.14
	FillingsUpdate:  mu: +0.099866196  nElectrons: 358.000000  magneticMoment: [ Abs: 32.50678  Tot: -0.00000 ]
	SubspaceRotationAdjust: set factor to 0.114
ElecMinimize: Iter:  71  F: -2195.420178620172919  |grad|_K:  8.231e-06  alpha:  5.309e-01  linmin: -7.309e-05  t[s]:   7299.69
	FillingsUpdate:  mu: +0.101463225  nElectrons: 358.000000  magneticMoment: [ Abs: 32.65649  Tot: -0.00000 ]
	SubspaceRotationAdjust: set factor to 0.115
ElecMinimize: Iter:  72  F: -2195.426124498738318  |grad|_K:  8.414e-06  alpha:  5.032e-01  linmin:  1.289e-05  t[s]:   7375.85
	FillingsUpdate:  mu: +0.101067256  nElectrons: 358.000000  magneticMoment: [ Abs: 32.81687  Tot: -0.00000 ]
	SubspaceRotationAdjust: set factor to 0.102
ElecMinimize: Iter:  73  F: -2195.429809490859043  |grad|_K:  6.420e-06  alpha:  3.116e-01  linmin:  2.098e-04  t[s]:   7453.15
	FillingsUpdate:  mu: +0.101851890  nElectrons: 358.000000  magneticMoment: [ Abs: 32.94226  Tot: +0.00000 ]
	SubspaceRotationAdjust: set factor to 0.114
ElecMinimize: Iter:  74  F: -2195.432342746814356  |grad|_K:  5.138e-06  alpha:  3.555e-01  linmin:  1.506e-05  t[s]:   7529.50
	FillingsUpdate:  mu: +0.101346032  nElectrons: 358.000000  magneticMoment: [ Abs: 33.11320  Tot: -0.00000 ]
	SubspaceRotationAdjust: set factor to 0.133
ElecMinimize: Iter:  75  F: -2195.434657616428467  |grad|_K:  5.360e-06  alpha:  5.029e-01  linmin: -8.634e-05  t[s]:   7605.10
	FillingsUpdate:  mu: +0.100088597  nElectrons: 358.000000  magneticMoment: [ Abs: 33.31636  Tot: -0.00000 ]
	SubspaceRotationAdjust: set factor to 0.144
ElecMinimize: Iter:  76  F: -2195.437122610870574  |grad|_K:  5.740e-06  alpha:  4.906e-01  linmin: -1.341e-04  t[s]:   7680.35
	FillingsUpdate:  mu: +0.102584638  nElectrons: 358.000000  magneticMoment: [ Abs: 33.54921  Tot: +0.00000 ]
	SubspaceRotationAdjust: set factor to 0.146
ElecMinimize: Iter:  77  F: -2195.439822051311694  |grad|_K:  5.835e-06  alpha:  4.664e-01  linmin: -9.718e-05  t[s]:   7756.65
	FillingsUpdate:  mu: +0.102235123  nElectrons: 358.000000  magneticMoment: [ Abs: 33.79886  Tot: +0.00000 ]
	SubspaceRotationAdjust: set factor to 0.152
ElecMinimize: Iter:  78  F: -2195.442188021598668  |grad|_K:  4.764e-06  alpha:  3.994e-01  linmin: -2.186e-04  t[s]:   7835.06
	FillingsUpdate:  mu: +0.104477282  nElectrons: 358.000000  magneticMoment: [ Abs: 33.98354  Tot: +0.00000 ]
	SubspaceRotationAdjust: set factor to 0.166
ElecMinimize: Iter:  79  F: -2195.443776065522798  |grad|_K:  4.022e-06  alpha:  3.949e-01  linmin:  9.576e-07  t[s]:   7912.15
	FillingsUpdate:  mu: +0.104156034  nElectrons: 358.000000  magneticMoment: [ Abs: 34.13968  Tot: +0.00000 ]
	SubspaceRotationAdjust: set factor to 0.191
ElecMinimize: Iter:  80  F: -2195.444982384280593  |grad|_K:  3.715e-06  alpha:  4.283e-01  linmin:  3.778e-06  t[s]:   7987.98
	FillingsUpdate:  mu: +0.102757240  nElectrons: 358.000000  magneticMoment: [ Abs: 34.27878  Tot: -0.00000 ]
	SubspaceRotationAdjust: set factor to 0.216
ElecMinimize: Iter:  81  F: -2195.445930416877218  |grad|_K:  3.402e-06  alpha:  3.947e-01  linmin:  5.579e-06  t[s]:   8064.24
	FillingsUpdate:  mu: +0.104086746  nElectrons: 358.000000  magneticMoment: [ Abs: 34.43794  Tot: +0.00000 ]
	SubspaceRotationAdjust: set factor to 0.232
ElecMinimize: Iter:  82  F: -2195.446784952567668  |grad|_K:  3.294e-06  alpha:  4.238e-01  linmin: -8.215e-05  t[s]:   8141.42
	FillingsUpdate:  mu: +0.101274567  nElectrons: 358.000000  magneticMoment: [ Abs: 34.59410  Tot: -0.00000 ]
	SubspaceRotationAdjust: set factor to 0.228
ElecMinimize: Iter:  83  F: -2195.447546912246708  |grad|_K:  3.351e-06  alpha:  3.999e-01  linmin:  5.300e-05  t[s]:   8217.71
	FillingsUpdate:  mu: +0.103355166  nElectrons: 358.000000  magneticMoment: [ Abs: 34.75270  Tot: -0.00000 ]
	SubspaceRotationAdjust: set factor to 0.211
ElecMinimize: Iter:  84  F: -2195.448204726572385  |grad|_K:  3.150e-06  alpha:  3.398e-01  linmin: -7.941e-05  t[s]:   8293.08
	FillingsUpdate:  mu: +0.101051141  nElectrons: 358.000000  magneticMoment: [ Abs: 34.93124  Tot: +0.00000 ]
	SubspaceRotationAdjust: set factor to 0.194
ElecMinimize: Iter:  85  F: -2195.448908252243200  |grad|_K:  3.610e-06  alpha:  4.089e-01  linmin:  3.868e-04  t[s]:   8368.70
	FillingsUpdate:  mu: +0.103615670  nElectrons: 358.000000  magneticMoment: [ Abs: 35.21723  Tot: -0.00000 ]
	SubspaceRotationAdjust: set factor to 0.21
ElecMinimize: Iter:  86  F: -2195.449837540311364  |grad|_K:  4.269e-06  alpha:  4.322e-01  linmin:  9.972e-05  t[s]:   8444.80
	FillingsUpdate:  mu: +0.103211544  nElectrons: 358.000000  magneticMoment: [ Abs: 35.68884  Tot: +0.00000 ]
	SubspaceRotationAdjust: set factor to 0.242
ElecMinimize: Iter:  87  F: -2195.451454684458440  |grad|_K:  6.331e-06  alpha:  5.327e-01  linmin:  3.661e-04  t[s]:   8520.16
	FillingsUpdate:  mu: +0.102067977  nElectrons: 358.000000  magneticMoment: [ Abs: 36.15431  Tot: +0.00000 ]
	SubspaceRotationAdjust: set factor to 0.285
ElecMinimize: Iter:  88  F: -2195.453542403058691  |grad|_K:  7.318e-06  alpha:  2.714e-01  linmin: -3.777e-04  t[s]:   8596.20
	FillingsUpdate:  mu: +0.104720852  nElectrons: 358.000000  magneticMoment: [ Abs: 36.39367  Tot: -0.00000 ]
	SubspaceRotationAdjust: set factor to 0.313
ElecMinimize: Iter:  89  F: -2195.455126097980155  |grad|_K:  7.633e-06  alpha:  1.197e-01  linmin: -7.020e-04  t[s]:   8672.49
	FillingsUpdate:  mu: +0.104876016  nElectrons: 358.000000  magneticMoment: [ Abs: 36.56966  Tot: +0.00000 ]
	SubspaceRotationAdjust: set factor to 0.252
ElecMinimize: Iter:  90  F: -2195.456386171881149  |grad|_K:  9.459e-06  alpha:  1.000e-01  linmin:  2.135e-04  t[s]:   8748.32
	FillingsUpdate:  mu: +0.104800157  nElectrons: 358.000000  magneticMoment: [ Abs: 36.64544  Tot: +0.00000 ]
	SubspaceRotationAdjust: set factor to 0.23
ElecMinimize: Iter:  91  F: -2195.457014432223787  |grad|_K:  9.292e-06  alpha:  3.895e-02  linmin: -2.377e-04  t[s]:   8823.64
	FillingsUpdate:  mu: +0.103666868  nElectrons: 358.000000  magneticMoment: [ Abs: 36.70010  Tot: -0.00000 ]
	SubspaceRotationAdjust: set factor to 0.252
ElecMinimize: Iter:  92  F: -2195.457710627622419  |grad|_K:  8.869e-06  alpha:  4.315e-02  linmin:  2.923e-05  t[s]:   8899.23
	FillingsUpdate:  mu: +0.102288374  nElectrons: 358.000000  magneticMoment: [ Abs: 36.72994  Tot: +0.00000 ]
	SubspaceRotationAdjust: set factor to 0.264
ElecMinimize: Iter:  93  F: -2195.458236294800372  |grad|_K:  8.983e-06  alpha:  3.876e-02  linmin: -1.202e-05  t[s]:   8974.84
	FillingsUpdate:  mu: +0.102178604  nElectrons: 358.000000  magneticMoment: [ Abs: 36.75379  Tot: +0.00000 ]
	SubspaceRotationAdjust: set factor to 0.244
ElecMinimize: Iter:  94  F: -2195.458785624378834  |grad|_K:  9.313e-06  alpha:  3.895e-02  linmin: -5.181e-05  t[s]:   9050.49
	FillingsUpdate:  mu: +0.101813172  nElectrons: 358.000000  magneticMoment: [ Abs: 36.77919  Tot: -0.00000 ]
	SubspaceRotationAdjust: set factor to 0.227
ElecMinimize: Iter:  95  F: -2195.459414899842159  |grad|_K:  9.080e-06  alpha:  4.094e-02  linmin: -9.987e-05  t[s]:   9129.04
	FillingsUpdate:  mu: +0.101590679  nElectrons: 358.000000  magneticMoment: [ Abs: 36.80766  Tot: -0.00000 ]
	SubspaceRotationAdjust: set factor to 0.264
ElecMinimize: Iter:  96  F: -2195.460096727485961  |grad|_K:  8.343e-06  alpha:  4.586e-02  linmin: -1.292e-04  t[s]:   9205.06
	FillingsUpdate:  mu: +0.101948961  nElectrons: 358.000000  magneticMoment: [ Abs: 36.83830  Tot: -0.00000 ]
	SubspaceRotationAdjust: set factor to 0.356
ElecMinimize: Iter:  97  F: -2195.460791850689020  |grad|_K:  8.105e-06  alpha:  5.472e-02  linmin: -1.308e-04  t[s]:   9281.64
	FillingsUpdate:  mu: +0.102106369  nElectrons: 358.000000  magneticMoment: [ Abs: 36.86990  Tot: -0.00000 ]
	SubspaceRotationAdjust: set factor to 0.444
ElecMinimize: Iter:  98  F: -2195.461538364193075  |grad|_K:  8.280e-06  alpha:  6.237e-02  linmin: -1.068e-04  t[s]:   9357.53
	FillingsUpdate:  mu: +0.102416638  nElectrons: 358.000000  magneticMoment: [ Abs: 36.89240  Tot: +0.00000 ]
	SubspaceRotationAdjust: set factor to 0.576
ElecMinimize: Iter:  99  F: -2195.462243232341280  |grad|_K:  8.100e-06  alpha:  5.730e-02  linmin: -3.514e-05  t[s]:   9433.90
	FillingsUpdate:  mu: +0.102027775  nElectrons: 358.000000  magneticMoment: [ Abs: 36.90297  Tot: -0.00000 ]
	SubspaceRotationAdjust: set factor to 0.539
ElecMinimize: Iter: 100  F: -2195.462976935421921  |grad|_K:  9.305e-06  alpha:  6.348e-02  linmin: -2.631e-05  t[s]:   9509.45
	FillingsUpdate:  mu: +0.103921793  nElectrons: 358.000000  magneticMoment: [ Abs: 36.89781  Tot: -0.00000 ]
	SubspaceRotationAdjust: set factor to 0.707
ElecMinimize: Iter: 101  F: -2195.463717062350042  |grad|_K:  8.301e-06  alpha:  4.893e-02  linmin: -1.409e-05  t[s]:   9585.55
	FillingsUpdate:  mu: +0.103888116  nElectrons: 358.000000  magneticMoment: [ Abs: 36.87344  Tot: -0.00000 ]
	SubspaceRotationAdjust: set factor to 0.745
ElecMinimize: Iter: 102  F: -2195.464413724092083  |grad|_K:  9.039e-06  alpha:  5.765e-02  linmin: -2.749e-05  t[s]:   9661.82
	FillingsUpdate:  mu: +0.102416288  nElectrons: 358.000000  magneticMoment: [ Abs: 36.83437  Tot: +0.00000 ]
	SubspaceRotationAdjust: set factor to 0.94
	SubspaceRotationAdjust: resetting CG because factor has changed by 8.0318
ElecMinimize: 	State modified externally: resetting search direction.
ElecMinimize: Iter: 103  F: -2195.465101207855241  |grad|_K:  8.874e-06  alpha:  4.789e-02
ElecMinimize: 	Predicted alpha/alphaT>3.000000, increasing alphaT to 1.436749e-01.
	FillingsUpdate:  mu: +0.102766962  nElectrons: 358.000000  magneticMoment: [ Abs: 36.78476  Tot: +0.00000 ]
	SubspaceRotationAdjust: set factor to 0.554
ElecMinimize: Iter: 104  F: -2195.468159938011922  |grad|_K:  1.337e-05  alpha:  2.165e-01  linmin: -1.066e-03  t[s]:   9871.33
	FillingsUpdate:  mu: +0.104044645  nElectrons: 358.000000  magneticMoment: [ Abs: 36.71895  Tot: +0.00000 ]
	SubspaceRotationAdjust: set factor to 0.377
ElecMinimize: Iter: 105  F: -2195.470960630302216  |grad|_K:  1.106e-05  alpha:  7.784e-02  linmin: -5.177e-04  t[s]:   9947.25
	FillingsUpdate:  mu: +0.103559713  nElectrons: 358.000000  magneticMoment: [ Abs: 36.67903  Tot: -0.00000 ]
	SubspaceRotationAdjust: set factor to 0.286
ElecMinimize: Iter: 106  F: -2195.472644229759226  |grad|_K:  8.122e-06  alpha:  7.485e-02  linmin: -1.526e-04  t[s]:  10023.23
	FillingsUpdate:  mu: +0.102769589  nElectrons: 358.000000  magneticMoment: [ Abs: 36.60473  Tot: +0.00000 ]
	SubspaceRotationAdjust: set factor to 0.247
ElecMinimize: Iter: 107  F: -2195.475251432927507  |grad|_K:  6.041e-06  alpha:  2.210e-01  linmin: -1.328e-04  t[s]:  10101.13
	FillingsUpdate:  mu: +0.101860177  nElectrons: 358.000000  magneticMoment: [ Abs: 36.54609  Tot: +0.00000 ]
	SubspaceRotationAdjust: set factor to 0.202
ElecMinimize: Iter: 108  F: -2195.476183671240960  |grad|_K:  5.205e-06  alpha:  1.486e-01  linmin: -3.067e-05  t[s]:  10176.97
	FillingsUpdate:  mu: +0.103189179  nElectrons: 358.000000  magneticMoment: [ Abs: 36.49218  Tot: +0.00000 ]
	SubspaceRotationAdjust: set factor to 0.248
ElecMinimize: Iter: 109  F: -2195.477048970142278  |grad|_K:  3.174e-06  alpha:  1.826e-01  linmin: -1.057e-04  t[s]:  10253.46
	FillingsUpdate:  mu: +0.105131168  nElectrons: 358.000000  magneticMoment: [ Abs: 36.48978  Tot: -0.00000 ]
	SubspaceRotationAdjust: set factor to 0.192
ElecMinimize: Iter: 110  F: -2195.477532004774730  |grad|_K:  3.453e-06  alpha:  2.731e-01  linmin: -7.771e-05  t[s]:  10328.42
	FillingsUpdate:  mu: +0.103085298  nElectrons: 358.000000  magneticMoment: [ Abs: 36.44934  Tot: +0.00000 ]
	SubspaceRotationAdjust: set factor to 0.184
ElecMinimize: Iter: 111  F: -2195.477968469042025  |grad|_K:  2.988e-06  alpha:  2.104e-01  linmin: -6.081e-05  t[s]:  10404.56
	FillingsUpdate:  mu: +0.102021920  nElectrons: 358.000000  magneticMoment: [ Abs: 36.36366  Tot: +0.00000 ]
	SubspaceRotationAdjust: set factor to 0.205
ElecMinimize: Iter: 112  F: -2195.478409788363933  |grad|_K:  2.699e-06  alpha:  2.828e-01  linmin: -7.946e-06  t[s]:  10479.90
	FillingsUpdate:  mu: +0.103192186  nElectrons: 358.000000  magneticMoment: [ Abs: 36.32210  Tot: -0.00000 ]
	SubspaceRotationAdjust: set factor to 0.202
ElecMinimize: Iter: 113  F: -2195.478774505319052  |grad|_K:  2.863e-06  alpha:  2.874e-01  linmin: -9.384e-05  t[s]:  10555.01
	FillingsUpdate:  mu: +0.103215320  nElectrons: 358.000000  magneticMoment: [ Abs: 36.29845  Tot: +0.00000 ]
	SubspaceRotationAdjust: set factor to 0.202
ElecMinimize: Iter: 114  F: -2195.479136353410922  |grad|_K:  2.433e-06  alpha:  2.521e-01  linmin: -1.529e-05  t[s]:  10631.61
	FillingsUpdate:  mu: +0.102548307  nElectrons: 358.000000  magneticMoment: [ Abs: 36.23564  Tot: +0.00000 ]
	SubspaceRotationAdjust: set factor to 0.21
ElecMinimize: Iter: 115  F: -2195.479452232695166  |grad|_K:  2.579e-06  alpha:  3.064e-01  linmin:  6.374e-05  t[s]:  10707.23
	FillingsUpdate:  mu: +0.102787748  nElectrons: 358.000000  magneticMoment: [ Abs: 36.18050  Tot: +0.00000 ]
	SubspaceRotationAdjust: set factor to 0.191
ElecMinimize: Iter: 116  F: -2195.479734094541072  |grad|_K:  2.471e-06  alpha:  2.451e-01  linmin: -1.831e-05  t[s]:  10783.39
	FillingsUpdate:  mu: +0.103033569  nElectrons: 358.000000  magneticMoment: [ Abs: 36.15190  Tot: +0.00000 ]
	SubspaceRotationAdjust: set factor to 0.217
ElecMinimize: Iter: 117  F: -2195.480073423156682  |grad|_K:  2.385e-06  alpha:  3.185e-01  linmin: -5.084e-06  t[s]:  10859.59
	FillingsUpdate:  mu: +0.102540027  nElectrons: 358.000000  magneticMoment: [ Abs: 36.11604  Tot: -0.00000 ]
	SubspaceRotationAdjust: set factor to 0.197
ElecMinimize: Iter: 118  F: -2195.480341156565828  |grad|_K:  2.455e-06  alpha:  2.695e-01  linmin:  3.190e-05  t[s]:  10935.32
	FillingsUpdate:  mu: +0.102742295  nElectrons: 358.000000  magneticMoment: [ Abs: 36.06626  Tot: +0.00000 ]
	SubspaceRotationAdjust: set factor to 0.19
ElecMinimize: Iter: 119  F: -2195.480605982606448  |grad|_K:  2.135e-06  alpha:  2.531e-01  linmin:  4.740e-05  t[s]:  11011.16
	FillingsUpdate:  mu: +0.103557300  nElectrons: 358.000000  magneticMoment: [ Abs: 36.04006  Tot: -0.00000 ]
	SubspaceRotationAdjust: set factor to 0.213
ElecMinimize: Iter: 120  F: -2195.480876461170283  |grad|_K:  2.302e-06  alpha:  3.434e-01  linmin:  5.439e-05  t[s]:  11087.56
	FillingsUpdate:  mu: +0.102402013  nElectrons: 358.000000  magneticMoment: [ Abs: 36.01892  Tot: +0.00000 ]
	SubspaceRotationAdjust: set factor to 0.185
ElecMinimize: Iter: 121  F: -2195.481107184157281  |grad|_K:  2.283e-06  alpha:  2.510e-01  linmin:  1.527e-05  t[s]:  11164.37
	FillingsUpdate:  mu: +0.102233667  nElectrons: 358.000000  magneticMoment: [ Abs: 35.97258  Tot: -0.00000 ]
	SubspaceRotationAdjust: set factor to 0.204
ElecMinimize: Iter: 122  F: -2195.481401941023705  |grad|_K:  2.260e-06  alpha:  3.265e-01  linmin:  8.200e-05  t[s]:  11240.35
	FillingsUpdate:  mu: +0.103386100  nElectrons: 358.000000  magneticMoment: [ Abs: 35.94101  Tot: +0.00000 ]
	SubspaceRotationAdjust: set factor to 0.19
ElecMinimize: Iter: 123  F: -2195.481706076582668  |grad|_K:  2.688e-06  alpha:  3.467e-01  linmin:  1.332e-04  t[s]:  11316.33
	FillingsUpdate:  mu: +0.101836983  nElectrons: 358.000000  magneticMoment: [ Abs: 35.92584  Tot: +0.00000 ]
	SubspaceRotationAdjust: set factor to 0.17
ElecMinimize: Iter: 124  F: -2195.481988884915154  |grad|_K:  2.514e-06  alpha:  2.297e-01  linmin:  4.489e-06  t[s]:  11392.68
	FillingsUpdate:  mu: +0.101721736  nElectrons: 358.000000  magneticMoment: [ Abs: 35.89124  Tot: -0.00000 ]
	SubspaceRotationAdjust: set factor to 0.217
ElecMinimize: Iter: 125  F: -2195.482395276926127  |grad|_K:  2.520e-06  alpha:  3.691e-01  linmin: -1.082e-05  t[s]:  11468.24
	FillingsUpdate:  mu: +0.102966064  nElectrons: 358.000000  magneticMoment: [ Abs: 35.86086  Tot: -0.00000 ]
	SubspaceRotationAdjust: set factor to 0.195
ElecMinimize: Iter: 126  F: -2195.482690028765774  |grad|_K:  2.781e-06  alpha:  2.624e-01  linmin:  1.723e-05  t[s]:  11543.83
	FillingsUpdate:  mu: +0.101651670  nElectrons: 358.000000  magneticMoment: [ Abs: 35.84560  Tot: -0.00000 ]
	SubspaceRotationAdjust: set factor to 0.213
ElecMinimize: Iter: 127  F: -2195.483051410002190  |grad|_K:  2.469e-06  alpha:  2.688e-01  linmin: -6.499e-05  t[s]:  11620.45
	FillingsUpdate:  mu: +0.101830442  nElectrons: 358.000000  magneticMoment: [ Abs: 35.83892  Tot: +0.00000 ]
	SubspaceRotationAdjust: set factor to 0.242
ElecMinimize: Iter: 128  F: -2195.483451339761814  |grad|_K:  2.731e-06  alpha:  3.723e-01  linmin: -6.678e-05  t[s]:  11695.94
	FillingsUpdate:  mu: +0.103181627  nElectrons: 358.000000  magneticMoment: [ Abs: 35.81397  Tot: +0.00000 ]
	SubspaceRotationAdjust: set factor to 0.214
ElecMinimize: Iter: 129  F: -2195.483786075114949  |grad|_K:  3.018e-06  alpha:  2.514e-01  linmin: -3.419e-06  t[s]:  11772.11
	FillingsUpdate:  mu: +0.101373809  nElectrons: 358.000000  magneticMoment: [ Abs: 35.79779  Tot: +0.00000 ]
	SubspaceRotationAdjust: set factor to 0.207
ElecMinimize: Iter: 130  F: -2195.484161648033023  |grad|_K:  2.735e-06  alpha:  2.370e-01  linmin: -4.448e-05  t[s]:  11848.37
	FillingsUpdate:  mu: +0.101324572  nElectrons: 358.000000  magneticMoment: [ Abs: 35.79811  Tot: +0.00000 ]
	SubspaceRotationAdjust: set factor to 0.243
ElecMinimize: Iter: 131  F: -2195.484592227947360  |grad|_K:  2.591e-06  alpha:  3.286e-01  linmin:  1.492e-05  t[s]:  11924.32
	FillingsUpdate:  mu: +0.103065771  nElectrons: 358.000000  magneticMoment: [ Abs: 35.77901  Tot: -0.00000 ]
	SubspaceRotationAdjust: set factor to 0.213
ElecMinimize: Iter: 132  F: -2195.484954061540520  |grad|_K:  3.130e-06  alpha:  3.097e-01  linmin:  8.040e-05  t[s]:  12001.31
	FillingsUpdate:  mu: +0.101066937  nElectrons: 358.000000  magneticMoment: [ Abs: 35.77174  Tot: +0.00000 ]
	SubspaceRotationAdjust: set factor to 0.185
ElecMinimize: Iter: 133  F: -2195.485266977587798  |grad|_K:  2.562e-06  alpha:  1.871e-01  linmin:  1.447e-05  t[s]:  12077.32
	FillingsUpdate:  mu: +0.100972106  nElectrons: 358.000000  magneticMoment: [ Abs: 35.77367  Tot: +0.00000 ]
	SubspaceRotationAdjust: set factor to 0.232
ElecMinimize: Iter: 134  F: -2195.485664677659770  |grad|_K:  2.386e-06  alpha:  3.493e-01  linmin:  1.613e-05  t[s]:  12153.27
	FillingsUpdate:  mu: +0.102573343  nElectrons: 358.000000  magneticMoment: [ Abs: 35.76667  Tot: +0.00000 ]
	SubspaceRotationAdjust: set factor to 0.204
ElecMinimize: Iter: 135  F: -2195.485948820088197  |grad|_K:  2.654e-06  alpha:  2.865e-01  linmin:  2.915e-05  t[s]:  12229.04
	FillingsUpdate:  mu: +0.101202437  nElectrons: 358.000000  magneticMoment: [ Abs: 35.76288  Tot: +0.00000 ]
	SubspaceRotationAdjust: set factor to 0.179
ElecMinimize: Iter: 136  F: -2195.486185433024275  |grad|_K:  2.220e-06  alpha:  1.947e-01  linmin:  6.624e-07  t[s]:  12306.00
	FillingsUpdate:  mu: +0.101182054  nElectrons: 358.000000  magneticMoment: [ Abs: 35.75377  Tot: -0.00000 ]
	SubspaceRotationAdjust: set factor to 0.224
ElecMinimize: Iter: 137  F: -2195.486470164215461  |grad|_K:  2.082e-06  alpha:  3.325e-01  linmin:  2.073e-05  t[s]:  12382.54
	FillingsUpdate:  mu: +0.102285689  nElectrons: 358.000000  magneticMoment: [ Abs: 35.76125  Tot: +0.00000 ]
	SubspaceRotationAdjust: set factor to 0.225
ElecMinimize: Iter: 138  F: -2195.486703201463570  |grad|_K:  2.312e-06  alpha:  3.098e-01  linmin:  3.848e-05  t[s]:  12458.42
	FillingsUpdate:  mu: +0.101222058  nElectrons: 358.000000  magneticMoment: [ Abs: 35.77817  Tot: +0.00000 ]
	SubspaceRotationAdjust: set factor to 0.196
ElecMinimize: Iter: 139  F: -2195.486894302915971  |grad|_K:  2.210e-06  alpha:  2.086e-01  linmin: -1.461e-06  t[s]:  12535.70
	FillingsUpdate:  mu: +0.100968235  nElectrons: 358.000000  magneticMoment: [ Abs: 35.77914  Tot: +0.00000 ]
	SubspaceRotationAdjust: set factor to 0.216
ElecMinimize: Iter: 140  F: -2195.487127888999112  |grad|_K:  1.889e-06  alpha:  2.757e-01  linmin:  6.482e-05  t[s]:  12612.29
	FillingsUpdate:  mu: +0.101144643  nElectrons: 358.000000  magneticMoment: [ Abs: 35.79078  Tot: +0.00000 ]
	SubspaceRotationAdjust: set factor to 0.259
ElecMinimize: Iter: 141  F: -2195.487336199581023  |grad|_K:  1.830e-06  alpha:  3.398e-01  linmin:  4.011e-05  t[s]:  12690.69
	FillingsUpdate:  mu: +0.100723643  nElectrons: 358.000000  magneticMoment: [ Abs: 35.81142  Tot: +0.00000 ]
	SubspaceRotationAdjust: set factor to 0.232
ElecMinimize: Iter: 142  F: -2195.487478436346009  |grad|_K:  2.049e-06  alpha:  2.478e-01  linmin: -2.533e-05  t[s]:  12766.45
	FillingsUpdate:  mu: +0.100973849  nElectrons: 358.000000  magneticMoment: [ Abs: 35.81873  Tot: -0.00000 ]
	SubspaceRotationAdjust: set factor to 0.201
ElecMinimize: Iter: 143  F: -2195.487620349606004  |grad|_K:  1.768e-06  alpha:  1.915e-01  linmin:  4.799e-05  t[s]:  12841.27
	FillingsUpdate:  mu: +0.100534201  nElectrons: 358.000000  magneticMoment: [ Abs: 35.83780  Tot: +0.00000 ]
	SubspaceRotationAdjust: set factor to 0.24
ElecMinimize: Iter: 144  F: -2195.487798648937314  |grad|_K:  1.606e-06  alpha:  3.278e-01  linmin: -7.882e-05  t[s]:  12916.91
	FillingsUpdate:  mu: +0.100502455  nElectrons: 358.000000  magneticMoment: [ Abs: 35.86733  Tot: -0.00000 ]
	SubspaceRotationAdjust: set factor to 0.273
ElecMinimize: Iter: 145  F: -2195.487948245222469  |grad|_K:  1.569e-06  alpha:  3.286e-01  linmin: -1.252e-05  t[s]:  12992.64
	FillingsUpdate:  mu: +0.101260605  nElectrons: 358.000000  magneticMoment: [ Abs: 35.88330  Tot: +0.00000 ]
	SubspaceRotationAdjust: set factor to 0.229
ElecMinimize: Iter: 146  F: -2195.488069205489410  |grad|_K:  1.869e-06  alpha:  2.800e-01  linmin:  4.808e-05  t[s]:  13066.78
	FillingsUpdate:  mu: +0.100388775  nElectrons: 358.000000  magneticMoment: [ Abs: 35.90773  Tot: -0.00000 ]
	SubspaceRotationAdjust: set factor to 0.199
ElecMinimize: Iter: 147  F: -2195.488169718087647  |grad|_K:  1.626e-06  alpha:  1.709e-01  linmin:  1.649e-05  t[s]:  13142.11
	FillingsUpdate:  mu: +0.100417571  nElectrons: 358.000000  magneticMoment: [ Abs: 35.94219  Tot: -0.00000 ]
	SubspaceRotationAdjust: set factor to 0.241
ElecMinimize: Iter: 148  F: -2195.488315741398310  |grad|_K:  1.457e-06  alpha:  3.204e-01  linmin:  4.267e-05  t[s]:  13219.70
	FillingsUpdate:  mu: +0.100919872  nElectrons: 358.000000  magneticMoment: [ Abs: 35.97153  Tot: +0.00000 ]
	SubspaceRotationAdjust: set factor to 0.262
ElecMinimize: Iter: 149  F: -2195.488439040914272  |grad|_K:  1.605e-06  alpha:  3.381e-01  linmin:  3.216e-05  t[s]:  13295.26
	FillingsUpdate:  mu: +0.100406609  nElectrons: 358.000000  magneticMoment: [ Abs: 35.99717  Tot: -0.00000 ]
	SubspaceRotationAdjust: set factor to 0.229
ElecMinimize: Iter: 150  F: -2195.488526078701398  |grad|_K:  1.642e-06  alpha:  2.000e-01  linmin:  1.972e-05  t[s]:  13371.12
	FillingsUpdate:  mu: +0.100614815  nElectrons: 358.000000  magneticMoment: [ Abs: 36.02031  Tot: +0.00000 ]
	SubspaceRotationAdjust: set factor to 0.232
ElecMinimize: Iter: 151  F: -2195.488637779512828  |grad|_K:  1.468e-06  alpha:  2.399e-01  linmin:  4.378e-05  t[s]:  13447.44
	FillingsUpdate:  mu: +0.100534715  nElectrons: 358.000000  magneticMoment: [ Abs: 36.05999  Tot: -0.00000 ]
	SubspaceRotationAdjust: set factor to 0.273
ElecMinimize: Iter: 152  F: -2195.488768042343963  |grad|_K:  1.446e-06  alpha:  3.501e-01  linmin: -2.899e-05  t[s]:  13524.01
	FillingsUpdate:  mu: +0.100405972  nElectrons: 358.000000  magneticMoment: [ Abs: 36.08920  Tot: -0.00000 ]
	SubspaceRotationAdjust: set factor to 0.315
ElecMinimize: Iter: 153  F: -2195.488904100614491  |grad|_K:  1.549e-06  alpha:  3.710e-01  linmin: -9.210e-06  t[s]:  13598.79
	FillingsUpdate:  mu: +0.101257660  nElectrons: 358.000000  magneticMoment: [ Abs: 36.11365  Tot: -0.00000 ]
	SubspaceRotationAdjust: set factor to 0.256
ElecMinimize: Iter: 154  F: -2195.489026148706216  |grad|_K:  1.980e-06  alpha:  2.897e-01  linmin:  2.015e-05  t[s]:  13676.99
	FillingsUpdate:  mu: +0.100583498  nElectrons: 358.000000  magneticMoment: [ Abs: 36.14474  Tot: +0.00000 ]
	SubspaceRotationAdjust: set factor to 0.214
ElecMinimize: Iter: 155  F: -2195.489128675551001  |grad|_K:  1.721e-06  alpha:  1.556e-01  linmin:  5.360e-05  t[s]:  13752.16
	FillingsUpdate:  mu: +0.100636346  nElectrons: 358.000000  magneticMoment: [ Abs: 36.17077  Tot: -0.00000 ]
	SubspaceRotationAdjust: set factor to 0.258
ElecMinimize: Iter: 156  F: -2195.489287211695228  |grad|_K:  1.546e-06  alpha:  3.126e-01  linmin:  4.131e-05  t[s]:  13827.75
	FillingsUpdate:  mu: +0.101085847  nElectrons: 358.000000  magneticMoment: [ Abs: 36.18730  Tot: +0.00000 ]
	SubspaceRotationAdjust: set factor to 0.289
ElecMinimize: Iter: 157  F: -2195.489419397356414  |grad|_K:  1.645e-06  alpha:  3.207e-01  linmin:  2.909e-05  t[s]:  13902.50
	FillingsUpdate:  mu: +0.100704799  nElectrons: 358.000000  magneticMoment: [ Abs: 36.20462  Tot: +0.00000 ]
	SubspaceRotationAdjust: set factor to 0.252
ElecMinimize: Iter: 158  F: -2195.489511372647485  |grad|_K:  1.714e-06  alpha:  1.991e-01  linmin:  1.119e-05  t[s]:  13979.87
	FillingsUpdate:  mu: +0.100802946  nElectrons: 358.000000  magneticMoment: [ Abs: 36.20813  Tot: -0.00000 ]
	SubspaceRotationAdjust: set factor to 0.248
ElecMinimize: Iter: 159  F: -2195.489622462949228  |grad|_K:  1.465e-06  alpha:  2.180e-01  linmin:  4.857e-05  t[s]:  14055.26
	FillingsUpdate:  mu: +0.100496940  nElectrons: 358.000000  magneticMoment: [ Abs: 36.21000  Tot: +0.00000 ]
	SubspaceRotationAdjust: set factor to 0.296
ElecMinimize: Iter: 160  F: -2195.489748484622396  |grad|_K:  1.387e-06  alpha:  3.410e-01  linmin:  1.140e-07  t[s]:  14131.12
	FillingsUpdate:  mu: +0.100510310  nElectrons: 358.000000  magneticMoment: [ Abs: 36.21176  Tot: +0.00000 ]
	SubspaceRotationAdjust: set factor to 0.355
ElecMinimize: Iter: 161  F: -2195.489866835805515  |grad|_K:  1.395e-06  alpha:  3.531e-01  linmin: -3.482e-06  t[s]:  14208.15
	FillingsUpdate:  mu: +0.100968130  nElectrons: 358.000000  magneticMoment: [ Abs: 36.19924  Tot: +0.00000 ]
	SubspaceRotationAdjust: set factor to 0.334
ElecMinimize: Iter: 162  F: -2195.489976161590675  |grad|_K:  1.678e-06  alpha:  3.218e-01  linmin:  1.710e-05  t[s]:  14286.12
	FillingsUpdate:  mu: +0.100590454  nElectrons: 358.000000  magneticMoment: [ Abs: 36.19575  Tot: -0.00000 ]
	SubspaceRotationAdjust: set factor to 0.276
ElecMinimize: Iter: 163  F: -2195.490046204601185  |grad|_K:  1.750e-06  alpha:  1.455e-01  linmin:  2.174e-05  t[s]:  14361.95
	FillingsUpdate:  mu: +0.100724413  nElectrons: 358.000000  magneticMoment: [ Abs: 36.17591  Tot: +0.00000 ]
	SubspaceRotationAdjust: set factor to 0.296
ElecMinimize: Iter: 164  F: -2195.490160250175904  |grad|_K:  1.432e-06  alpha:  2.169e-01  linmin:  5.181e-05  t[s]:  14437.35
	FillingsUpdate:  mu: +0.100751943  nElectrons: 358.000000  magneticMoment: [ Abs: 36.14982  Tot: -0.00000 ]
	SubspaceRotationAdjust: set factor to 0.368
ElecMinimize: Iter: 165  F: -2195.490275168352127  |grad|_K:  1.392e-06  alpha:  3.285e-01  linmin:  1.824e-05  t[s]:  14513.07
	FillingsUpdate:  mu: +0.100672692  nElectrons: 358.000000  magneticMoment: [ Abs: 36.13278  Tot: +0.00000 ]
	SubspaceRotationAdjust: set factor to 0.294
ElecMinimize: Iter: 166  F: -2195.490367112819513  |grad|_K:  1.752e-06  alpha:  2.745e-01  linmin: -1.286e-05  t[s]:  14589.06
	FillingsUpdate:  mu: +0.100995851  nElectrons: 358.000000  magneticMoment: [ Abs: 36.11568  Tot: +0.00000 ]
	SubspaceRotationAdjust: set factor to 0.239
ElecMinimize: Iter: 167  F: -2195.490427725892459  |grad|_K:  1.451e-06  alpha:  1.085e-01  linmin: -1.206e-04  t[s]:  14665.07
	FillingsUpdate:  mu: +0.100857792  nElectrons: 358.000000  magneticMoment: [ Abs: 36.08900  Tot: +0.00000 ]
	SubspaceRotationAdjust: set factor to 0.339
ElecMinimize: Iter: 168  F: -2195.490532592044019  |grad|_K:  1.356e-06  alpha:  2.775e-01  linmin: -1.265e-05  t[s]:  14740.77
	FillingsUpdate:  mu: +0.100667716  nElectrons: 358.000000  magneticMoment: [ Abs: 36.07142  Tot: -0.00000 ]
	SubspaceRotationAdjust: set factor to 0.253
ElecMinimize: Iter: 169  F: -2195.490606857936655  |grad|_K:  1.777e-06  alpha:  2.317e-01  linmin: -1.132e-05  t[s]:  14815.92
	FillingsUpdate:  mu: +0.100880210  nElectrons: 358.000000  magneticMoment: [ Abs: 36.05042  Tot: +0.00000 ]
	SubspaceRotationAdjust: set factor to 0.224
ElecMinimize: Iter: 170  F: -2195.490674461710114  |grad|_K:  1.303e-06  alpha:  1.200e-01  linmin: -4.755e-05  t[s]:  14891.69
	FillingsUpdate:  mu: +0.101056914  nElectrons: 358.000000  magneticMoment: [ Abs: 36.02668  Tot: +0.00000 ]
	SubspaceRotationAdjust: set factor to 0.305
ElecMinimize: Iter: 171  F: -2195.490765674473550  |grad|_K:  1.308e-06  alpha:  3.056e-01  linmin:  4.842e-06  t[s]:  14967.17
	FillingsUpdate:  mu: +0.100774934  nElectrons: 358.000000  magneticMoment: [ Abs: 36.01438  Tot: -0.00000 ]
	SubspaceRotationAdjust: set factor to 0.253
ElecMinimize: Iter: 172  F: -2195.490823051214647  |grad|_K:  1.513e-06  alpha:  1.942e-01  linmin:  2.285e-06  t[s]:  15043.71
	FillingsUpdate:  mu: +0.101046115  nElectrons: 358.000000  magneticMoment: [ Abs: 35.99679  Tot: +0.00000 ]
	SubspaceRotationAdjust: set factor to 0.242
ElecMinimize: Iter: 173  F: -2195.490887207088235  |grad|_K:  1.160e-06  alpha:  1.606e-01  linmin:  1.661e-05  t[s]:  15119.73
	FillingsUpdate:  mu: +0.100978907  nElectrons: 358.000000  magneticMoment: [ Abs: 35.98139  Tot: +0.00000 ]
	SubspaceRotationAdjust: set factor to 0.31
ElecMinimize: Iter: 174  F: -2195.490962054371721  |grad|_K:  1.085e-06  alpha:  3.200e-01  linmin: -1.654e-05  t[s]:  15195.32
	FillingsUpdate:  mu: +0.100832104  nElectrons: 358.000000  magneticMoment: [ Abs: 35.97027  Tot: +0.00000 ]
	SubspaceRotationAdjust: set factor to 0.339
ElecMinimize: Iter: 175  F: -2195.491027338659023  |grad|_K:  1.193e-06  alpha:  3.172e-01  linmin: -1.475e-05  t[s]:  15270.63
	FillingsUpdate:  mu: +0.101350039  nElectrons: 358.000000  magneticMoment: [ Abs: 35.96381  Tot: +0.00000 ]
	SubspaceRotationAdjust: set factor to 0.271
ElecMinimize: Iter: 176  F: -2195.491066966873404  |grad|_K:  1.380e-06  alpha:  1.570e-01  linmin: -2.457e-05  t[s]:  15345.78
	FillingsUpdate:  mu: +0.100880935  nElectrons: 358.000000  magneticMoment: [ Abs: 35.96026  Tot: +0.00000 ]
	SubspaceRotationAdjust: set factor to 0.286
ElecMinimize: Iter: 177  F: -2195.491125820024990  |grad|_K:  1.071e-06  alpha:  1.758e-01  linmin: -3.570e-05  t[s]:  15421.47
	FillingsUpdate:  mu: +0.100923065  nElectrons: 358.000000  magneticMoment: [ Abs: 35.95658  Tot: +0.00000 ]
	SubspaceRotationAdjust: set factor to 0.353
ElecMinimize: Iter: 178  F: -2195.491191509726832  |grad|_K:  9.992e-07  alpha:  3.249e-01  linmin:  6.837e-06  t[s]:  15498.70
	FillingsUpdate:  mu: +0.101247103  nElectrons: 358.000000  magneticMoment: [ Abs: 35.95700  Tot: +0.00000 ]
	SubspaceRotationAdjust: set factor to 0.345
ElecMinimize: Iter: 179  F: -2195.491245115136280  |grad|_K:  1.159e-06  alpha:  3.088e-01  linmin:  2.584e-05  t[s]:  15576.32
	FillingsUpdate:  mu: +0.100870970  nElectrons: 358.000000  magneticMoment: [ Abs: 35.96072  Tot: -0.00000 ]
	SubspaceRotationAdjust: set factor to 0.278
ElecMinimize: Iter: 180  F: -2195.491274432010869  |grad|_K:  1.199e-06  alpha:  1.337e-01  linmin:  1.224e-04  t[s]:  15652.29
	FillingsUpdate:  mu: +0.101066646  nElectrons: 358.000000  magneticMoment: [ Abs: 35.96715  Tot: +0.00000 ]
	SubspaceRotationAdjust: set factor to 0.273
ElecMinimize: Iter: 181  F: -2195.491318140956992  |grad|_K:  9.181e-07  alpha:  1.818e-01  linmin:  8.489e-05  t[s]:  15728.04
	FillingsUpdate:  mu: +0.100988704  nElectrons: 358.000000  magneticMoment: [ Abs: 35.97580  Tot: +0.00000 ]
	SubspaceRotationAdjust: set factor to 0.344
ElecMinimize: Iter: 182  F: -2195.491360193912897  |grad|_K:  7.996e-07  alpha:  2.921e-01  linmin: -2.665e-05  t[s]:  15803.36
	FillingsUpdate:  mu: +0.100884442  nElectrons: 358.000000  magneticMoment: [ Abs: 35.98785  Tot: +0.00000 ]
	SubspaceRotationAdjust: set factor to 0.402
ElecMinimize: Iter: 183  F: -2195.491395302524779  |grad|_K:  8.164e-07  alpha:  3.133e-01  linmin: -4.185e-05  t[s]:  15879.38
	FillingsUpdate:  mu: +0.101273380  nElectrons: 358.000000  magneticMoment: [ Abs: 35.99696  Tot: +0.00000 ]
	SubspaceRotationAdjust: set factor to 0.292
ElecMinimize: Iter: 184  F: -2195.491417156998978  |grad|_K:  1.042e-06  alpha:  1.844e-01  linmin: -1.802e-05  t[s]:  15954.50
	FillingsUpdate:  mu: +0.100957644  nElectrons: 358.000000  magneticMoment: [ Abs: 36.00937  Tot: -0.00000 ]
	SubspaceRotationAdjust: set factor to 0.282
ElecMinimize: Iter: 185  F: -2195.491441703525197  |grad|_K:  7.624e-07  alpha:  1.311e-01  linmin: -1.311e-05  t[s]:  16030.52
	FillingsUpdate:  mu: +0.101014721  nElectrons: 358.000000  magneticMoment: [ Abs: 36.02914  Tot: -0.00000 ]
	SubspaceRotationAdjust: set factor to 0.36
ElecMinimize: Iter: 186  F: -2195.491472068366420  |grad|_K:  6.898e-07  alpha:  2.992e-01  linmin:  6.378e-06  t[s]:  16106.87
	FillingsUpdate:  mu: +0.101244104  nElectrons: 358.000000  magneticMoment: [ Abs: 36.04320  Tot: -0.00000 ]
	SubspaceRotationAdjust: set factor to 0.297
ElecMinimize: Iter: 187  F: -2195.491494643763872  |grad|_K:  8.399e-07  alpha:  2.727e-01  linmin:  1.758e-05  t[s]:  16183.02
	FillingsUpdate:  mu: +0.100932107  nElectrons: 358.000000  magneticMoment: [ Abs: 36.05378  Tot: -0.00000 ]
	SubspaceRotationAdjust: set factor to 0.248
ElecMinimize: Iter: 188  F: -2195.491509625996514  |grad|_K:  7.136e-07  alpha:  1.257e-01  linmin:  4.267e-05  t[s]:  16259.05
	FillingsUpdate:  mu: +0.101000136  nElectrons: 358.000000  magneticMoment: [ Abs: 36.07337  Tot: +0.00000 ]
	SubspaceRotationAdjust: set factor to 0.321
[...]
	SubspaceRotationAdjust: set factor to 0.215
ElecMinimize: Iter:   8  F: -2195.532376712601035  |grad|_K:  2.066e-07  alpha:  3.354e-01  linmin:  1.815e-06  t[s]:  82095.74
	FillingsUpdate:  mu: +0.106646104  nElectrons: 358.000000  magneticMoment: [ Abs: 36.65843  Tot: -0.00000 ]
	SubspaceRotationAdjust: set factor to 0.252
ElecMinimize: Iter:   9  F: -2195.532379327031322  |grad|_K:  1.888e-07  alpha:  3.519e-01  linmin:  3.951e-08  t[s]:  82170.38
	FillingsUpdate:  mu: +0.106656541  nElectrons: 358.000000  magneticMoment: [ Abs: 36.65953  Tot: +0.00000 ]
	SubspaceRotationAdjust: set factor to 0.253
ElecMinimize: Iter:  10  F: -2195.532381260166403  |grad|_K:  1.628e-07  alpha:  3.116e-01  linmin:  2.092e-07  t[s]:  82245.78
	FillingsUpdate:  mu: +0.106643440  nElectrons: 358.000000  magneticMoment: [ Abs: 36.65881  Tot: +0.00000 ]
	SubspaceRotationAdjust: set factor to 0.209
ElecMinimize: Iter:  11  F: -2195.532382650351792  |grad|_K:  1.371e-07  alpha:  3.014e-01  linmin:  3.598e-06  t[s]:  82321.29
	FillingsUpdate:  mu: +0.106652241  nElectrons: 358.000000  magneticMoment: [ Abs: 36.65969  Tot: -0.00000 ]
	SubspaceRotationAdjust: set factor to 0.19
ElecMinimize: Iter:  12  F: -2195.532383476499035  |grad|_K:  9.959e-08  alpha:  2.528e-01  linmin: -5.153e-07  t[s]:  82395.71
	FillingsUpdate:  mu: +0.106652191  nElectrons: 358.000000  magneticMoment: [ Abs: 36.65986  Tot: +0.00000 ]
	SubspaceRotationAdjust: set factor to 0.219
ElecMinimize: Iter:  13  F: -2195.532384019340498  |grad|_K:  7.325e-08  alpha:  3.142e-01  linmin: -2.842e-06  t[s]:  82471.79
	FillingsUpdate:  mu: +0.106648077  nElectrons: 358.000000  magneticMoment: [ Abs: 36.65961  Tot: +0.00000 ]
	SubspaceRotationAdjust: set factor to 0.198
ElecMinimize: Iter:  14  F: -2195.532384317533342  |grad|_K:  5.721e-08  alpha:  3.192e-01  linmin:  8.036e-06  t[s]:  82547.53
	FillingsUpdate:  mu: +0.106653332  nElectrons: 358.000000  magneticMoment: [ Abs: 36.66006  Tot: -0.00000 ]
	SubspaceRotationAdjust: set factor to 0.162
ElecMinimize: Iter:  15  F: -2195.532384470884153  |grad|_K:  4.236e-08  alpha:  2.693e-01  linmin: -2.103e-06  t[s]:  82623.02
	FillingsUpdate:  mu: +0.106651056  nElectrons: 358.000000  magneticMoment: [ Abs: 36.66001  Tot: +0.00000 ]
	SubspaceRotationAdjust: set factor to 0.187
ElecMinimize: Iter:  16  F: -2195.532384572870342  |grad|_K:  3.272e-08  alpha:  3.264e-01  linmin: -5.395e-05  t[s]:  82699.88
ElecMinimize: Converged (|Delta F|<1.000000e-06 for 5 iters).
Setting wave functions to eigenvectors of Hamiltonian

# Ionic positions in lattice coordinates:
ion Ni   0.012301855609589  -0.002206833484386   0.151218923558592 1
ion Ni   0.498605330834902   0.500041290765759   0.143242305623449 1
ion Ni   0.250701278409398   0.251887996908283   0.050537468674342 1
ion Ni   0.249455046686905   0.748715071141118   0.050918851367379 1
ion Ni  -0.248366435135406   0.749578849688511   0.051371190898777 1
ion Ni   0.250000000000000   0.750000000000000  -0.150000000000000 0
ion Ni  -0.250000000000000   0.250000000000000  -0.150000000000000 0
ion V   0.496372515538330  -0.001621511234268   0.149012022810897 1
ion V  -0.000506100478363   0.501441485754594   0.154446942446385 1
ion V   0.500000000000000   0.000000000000000  -0.050000000000000 0
ion V   0.000000000000000   0.500000000000000  -0.050000000000000 0
ion V   0.500000000000000   0.500000000000000  -0.050000000000000 0
ion Co  -0.245327593318433   0.249443778489347   0.052874563812132 1
ion Co   0.000000000000000   0.000000000000000  -0.050000000000000 0
ion Co  -0.250000000000000   0.750000000000000  -0.150000000000000 0
ion Cr   0.250000000000000   0.250000000000000  -0.150000000000000 0
ion O   0.274587470616292   0.253388342126871   0.145563918612621 1
ion O   0.275340359825377   0.746229146790261   0.146020475321885 1
ion O  -0.277422926633150   0.254892548258932   0.149343191566821 1
ion O  -0.274810463215771   0.744203065235533   0.145165742980718 1
ion O   0.006499446862122  -0.004740940926451   0.056412540911120 1
ion O   0.497965213689038  -0.005687706316899   0.052510352569156 1
ion O   0.008128499188486   0.505482968650750   0.052468878020711 1
ion O   0.500477574962799   0.507203584175913   0.048658776653978 1
ion O   0.250000000000000   0.250000000000000  -0.050000000000000 0
ion O   0.250000000000000   0.750000000000000  -0.050000000000000 0
ion O  -0.250000000000000   0.250000000000000  -0.050000000000000 0
ion O  -0.250000000000000   0.750000000000000  -0.050000000000000 0
ion O   0.000000000000000   0.000000000000000  -0.150000000000000 0
ion O   0.500000000000000   0.000000000000000  -0.150000000000000 0
ion O   0.000000000000000   0.500000000000000  -0.150000000000000 0
ion O   0.500000000000000   0.500000000000000  -0.150000000000000 0
ion O   0.000763643266102  -0.006369546717495   0.230704638254671 1

# Forces in Lattice coordinates:
force Ni   0.006802386790866  -0.004470745219180   0.033443849112968 1
force Ni   0.001226000104751   0.000192865815224  -0.016936340849270 1
force Ni   0.000267142428343  -0.002900016172767   0.020366821462925 1
force Ni   0.001012058508105   0.001981787155545   0.027788254485751 1
force Ni   0.005009693102726   0.002595645666175   0.018706516558100 1
force Ni  -0.003308844152660   0.011493107783591  -0.301734171781058 0
force Ni   0.014477474068047  -0.007709137978395   0.098710470491954 0
force V   0.003219601355988   0.001102599105927   0.009034756675228 1
force V  -0.002089965639412   0.000845500218365  -0.005934041901957 1
force V  -0.055465026980527  -0.047541602670516  -0.099969492922842 0
force V   0.030476617883617   0.061504136357616  -0.036605969808028 0
force V  -0.054403126619750   0.044905335321162  -0.269381093284432 0
force Co   0.004951863613356  -0.002456775350325   0.015205070833333 1
force Co   0.032993023544915  -0.042496264981186  -0.016285109966566 0
force Co   0.037191101944665   0.018696082014460  -0.783486482615416 0
force Cr   0.015315527477551  -0.019423200325834  -1.787205044638012 0
force O  -0.003486103114491  -0.003385199275586  -0.021817936211631 1
force O  -0.002072491268477   0.001688345923340  -0.016426323029064 1
force O   0.001399598662134  -0.002916872231385  -0.003831012624156 1
force O   0.004664542095816   0.006080753850213  -0.016387670840743 1
force O  -0.000829620260550   0.000104775720537  -0.035182866315028 1
force O  -0.000038013447473   0.001175250261095  -0.011126389096252 1
force O   0.000414211162720  -0.000751066228872  -0.011735073277156 1
force O   0.004952938369764  -0.000529840707871  -0.007301595534124 1
force O   0.046153665295474  -0.012104632701924   1.225677086382366 0
force O   0.062465916902910   0.012401459505669   0.680811026218276 0
force O  -0.032604440908555  -0.009052928689877   0.131507811300010 0
force O  -0.082667799641109   0.022594552591027   0.564300072952676 0
force O  -0.027554504349381   0.042560080802292   0.126312862409952 0
force O   0.011765839264014   0.034193817996693   0.189399634455109 0
force O  -0.037011092779552  -0.074942836268159   0.208484293905059 0
force O   0.022455049701659  -0.043242328836074   0.137754703691519 0
force O  -0.000198434004294  -0.005268376105787  -0.016339999651976 1

# Energy components:
   Eewald =     5959.8856161485409757
       EH =     7936.5333783567048158
     Eloc =   -16231.0102457014727406
      Enl =     -606.2708669633148020
   Epulay =       -0.0004887253079091
      Exc =     -260.2181188438032677
       KE =     1004.1173734512442479
        U =        1.4321104055034324
-------------------------------------
     Etot =    -2195.5312418719058769
       TS =        0.0011427009642378
-------------------------------------
        F =    -2195.5323845728703418

IonicMinimize: Iter:  13  F: -2195.532384572870342  |grad|_K:  3.455e-04  alpha:  1.000e+00  linmin: -2.419e-02  t[s]:  82725.46

#--- Lowdin population analysis ---
# oxidation-state Ni +3.482 +3.690 +3.447 +3.493 +3.485 +3.514 +3.802
# magnetic-moments Ni +0.722 -0.889 +0.857 +0.955 -0.889 -0.697 +0.981
# oxidation-state V +1.381 +1.159 +1.070 +0.998 +1.075
# magnetic-moments V -2.090 +2.978 +2.678 -2.817 +2.580
# oxidation-state Co +1.256 +1.285 +1.320
# magnetic-moments Co -2.719 -2.775 +2.805
# oxidation-state Cr +2.983
# magnetic-moments Cr -3.859
# oxidation-state O -0.744 -0.740 -0.848 -0.742 -0.776 -0.780 -0.795 -0.753 -0.886 -0.861 -0.938 -0.929 -0.893 -0.855 -0.846 -0.854 -0.377
# magnetic-moments O +0.133 +0.172 -0.047 -0.151 +0.114 +0.064 +0.085 -0.075 +0.034 -0.007 +0.025 -0.087 +0.059 +0.084 +0.156 +0.090 +1.266


-------- Electronic minimization -----------
	FillingsUpdate:  mu: +0.108335888  nElectrons: 358.000000  magneticMoment: [ Abs: 36.65898  Tot: -0.00000 ]
ElecMinimize: Iter:   0  F: -2195.519046311067996  |grad|_K:  2.033e-05  alpha:  1.000e+00
	FillingsUpdate:  mu: +0.106993419  nElectrons: 358.000000  magneticMoment: [ Abs: 36.64462  Tot: -0.00000 ]
	SubspaceRotationAdjust: set factor to 0.174
ElecMinimize: Iter:   1  F: -2195.531635946986626  |grad|_K:  3.851e-06  alpha:  1.745e-01  linmin: -1.412e-03  t[s]:  82858.35
	FillingsUpdate:  mu: +0.106905230  nElectrons: 358.000000  magneticMoment: [ Abs: 36.65627  Tot: -0.00000 ]
	SubspaceRotationAdjust: set factor to 0.159
ElecMinimize: Iter:   2  F: -2195.532102476622640  |grad|_K:  1.815e-06  alpha:  1.803e-01  linmin: -2.778e-04  t[s]:  82933.88
	FillingsUpdate:  mu: +0.106675616  nElectrons: 358.000000  magneticMoment: [ Abs: 36.65400  Tot: +0.00000 ]
	SubspaceRotationAdjust: set factor to 0.175
ElecMinimize: Iter:   3  F: -2195.532263928687371  |grad|_K:  9.758e-07  alpha:  2.807e-01  linmin:  7.357e-06  t[s]:  83009.15
	FillingsUpdate:  mu: +0.106631318  nElectrons: 358.000000  magneticMoment: [ Abs: 36.65222  Tot: +0.00000 ]
	SubspaceRotationAdjust: set factor to 0.19
ElecMinimize: Iter:   4  F: -2195.532315819782070  |grad|_K:  6.946e-07  alpha:  3.130e-01  linmin:  3.629e-06  t[s]:  83087.25
	FillingsUpdate:  mu: +0.106694833  nElectrons: 358.000000  magneticMoment: [ Abs: 36.65469  Tot: +0.00000 ]
	SubspaceRotationAdjust: set factor to 0.209
ElecMinimize: Iter:   5  F: -2195.532344734808703  |grad|_K:  5.004e-07  alpha:  3.442e-01  linmin: -2.404e-06  t[s]:  83161.64
	FillingsUpdate:  mu: +0.106654040  nElectrons: 358.000000  magneticMoment: [ Abs: 36.65301  Tot: +0.00000 ]
	SubspaceRotationAdjust: set factor to 0.23
ElecMinimize: Iter:   6  F: -2195.532361751663757  |grad|_K:  4.336e-07  alpha:  3.903e-01  linmin:  6.229e-06  t[s]:  83238.92
	FillingsUpdate:  mu: +0.106690498  nElectrons: 358.000000  magneticMoment: [ Abs: 36.65570  Tot: -0.00000 ]
	SubspaceRotationAdjust: set factor to 0.245
ElecMinimize: Iter:   7  F: -2195.532373720979194  |grad|_K:  3.673e-07  alpha:  3.659e-01  linmin: -7.447e-07  t[s]:  83314.54
	FillingsUpdate:  mu: +0.106627509  nElectrons: 358.000000  magneticMoment: [ Abs: 36.65393  Tot: +0.00000 ]
	SubspaceRotationAdjust: set factor to 0.23
ElecMinimize: Iter:   8  F: -2195.532382850477006  |grad|_K:  3.482e-07  alpha:  3.886e-01  linmin:  7.832e-06  t[s]:  83389.95
	FillingsUpdate:  mu: +0.106678108  nElectrons: 358.000000  magneticMoment: [ Abs: 36.65705  Tot: -0.00000 ]
	SubspaceRotationAdjust: set factor to 0.184
ElecMinimize: Iter:   9  F: -2195.532389364520441  |grad|_K:  2.967e-07  alpha:  3.091e-01  linmin: -1.132e-06  t[s]:  83465.36
	FillingsUpdate:  mu: +0.106626280  nElectrons: 358.000000  magneticMoment: [ Abs: 36.65591  Tot: -0.00000 ]
	SubspaceRotationAdjust: set factor to 0.154
ElecMinimize: Iter:  10  F: -2195.532394407363881  |grad|_K:  2.204e-07  alpha:  3.288e-01  linmin:  5.321e-06  t[s]:  83540.80
	FillingsUpdate:  mu: +0.106638756  nElectrons: 358.000000  magneticMoment: [ Abs: 36.65694  Tot: +0.00000 ]
	SubspaceRotationAdjust: set factor to 0.155
ElecMinimize: Iter:  11  F: -2195.532397308016243  |grad|_K:  1.566e-07  alpha:  3.434e-01  linmin:  2.378e-07  t[s]:  83616.04
	FillingsUpdate:  mu: +0.106643318  nElectrons: 358.000000  magneticMoment: [ Abs: 36.65724  Tot: +0.00000 ]
	SubspaceRotationAdjust: set factor to 0.164
ElecMinimize: Iter:  12  F: -2195.532398745577666  |grad|_K:  1.181e-07  alpha:  3.367e-01  linmin:  2.479e-07  t[s]:  83691.38
	FillingsUpdate:  mu: +0.106636852  nElectrons: 358.000000  magneticMoment: [ Abs: 36.65704  Tot: +0.00000 ]
	SubspaceRotationAdjust: set factor to 0.164
ElecMinimize: Iter:  13  F: -2195.532399530445218  |grad|_K:  8.590e-08  alpha:  3.231e-01  linmin: -4.858e-06  t[s]:  83766.53
	FillingsUpdate:  mu: +0.106643648  nElectrons: 358.000000  magneticMoment: [ Abs: 36.65738  Tot: -0.00000 ]
	SubspaceRotationAdjust: set factor to 0.173
ElecMinimize: Iter:  14  F: -2195.532399937315404  |grad|_K:  6.237e-08  alpha:  3.164e-01  linmin: -6.012e-07  t[s]:  83841.15
	FillingsUpdate:  mu: +0.106643897  nElectrons: 358.000000  magneticMoment: [ Abs: 36.65743  Tot: -0.00000 ]
	SubspaceRotationAdjust: set factor to 0.203
ElecMinimize: Iter:  15  F: -2195.532400173219685  |grad|_K:  4.717e-08  alpha:  3.484e-01  linmin:  1.592e-05  t[s]:  83918.22
	FillingsUpdate:  mu: +0.106642693  nElectrons: 358.000000  magneticMoment: [ Abs: 36.65746  Tot: +0.00000 ]
	SubspaceRotationAdjust: set factor to 0.238
ElecMinimize: Iter:  16  F: -2195.532400329726443  |grad|_K:  4.381e-08  alpha:  4.043e-01  linmin: -4.576e-05  t[s]:  83993.53
	FillingsUpdate:  mu: +0.106648234  nElectrons: 358.000000  magneticMoment: [ Abs: 36.65782  Tot: -0.00000 ]
	SubspaceRotationAdjust: set factor to 0.26
ElecMinimize: Iter:  17  F: -2195.532400462274836  |grad|_K:  4.266e-08  alpha:  3.954e-01  linmin: -4.606e-05  t[s]:  84069.20
ElecMinimize: Converged (|Delta F|<1.000000e-06 for 5 iters).
Setting wave functions to eigenvectors of Hamiltonian

# Ionic positions in lattice coordinates:
ion Ni   0.012462505334502  -0.002549848473834   0.151440322540611 1
ion Ni   0.498752852464990   0.500039778012975   0.142995577418107 1
ion Ni   0.250597412554609   0.251535516597290   0.050626872137139 1
ion Ni   0.249414514171061   0.749028141330269   0.051075855862348 1
ion Ni  -0.247845268312908   0.749923433267493   0.051446667133330 1
ion Ni   0.250000000000000   0.750000000000000  -0.150000000000000 0
ion Ni  -0.250000000000000   0.250000000000000  -0.150000000000000 0
ion V   0.496434798791130  -0.001580923364527   0.149004835676959 1
ion V  -0.000624619975252   0.501514755593782   0.154425786546811 1
ion V   0.500000000000000   0.000000000000000  -0.050000000000000 0
ion V   0.000000000000000   0.500000000000000  -0.050000000000000 0
ion V   0.500000000000000   0.500000000000000  -0.050000000000000 0
ion Co  -0.244825333377007   0.249177124330648   0.052939533197809 1
ion Co   0.000000000000000   0.000000000000000  -0.050000000000000 0
ion Co  -0.250000000000000   0.750000000000000  -0.150000000000000 0
ion Cr   0.250000000000000   0.250000000000000  -0.150000000000000 0
ion O   0.274153943376776   0.252849979861682   0.145402026921655 1
ion O   0.274791812133551   0.746752218415546   0.145946378157931 1
ion O  -0.276905927861979   0.254038336976512   0.149340367411690 1
ion O  -0.274202633436553   0.744963460110104   0.145074091764401 1
ion O   0.006365121539399  -0.004612796143091   0.056094002061349 1
ion O   0.497960108756257  -0.005529676515884   0.052412952447719 1
ion O   0.008043366367825   0.505375189701914   0.052402237188515 1
ion O   0.500752003593191   0.507150594804236   0.048646761640374 1
ion O   0.250000000000000   0.250000000000000  -0.050000000000000 0
ion O   0.250000000000000   0.750000000000000  -0.050000000000000 0
ion O  -0.250000000000000   0.250000000000000  -0.050000000000000 0
ion O  -0.250000000000000   0.750000000000000  -0.050000000000000 0
ion O   0.000000000000000   0.000000000000000  -0.150000000000000 0
ion O   0.500000000000000   0.000000000000000  -0.150000000000000 0
ion O   0.000000000000000   0.500000000000000  -0.150000000000000 0
ion O   0.500000000000000   0.500000000000000  -0.150000000000000 0
ion O   0.000741094758229  -0.006516996512275   0.230860310398981 1

# Forces in Lattice coordinates:
force Ni   0.007052378736061  -0.000107090427432  -0.035645150638159 1
force Ni   0.000564910780838  -0.000215473170036   0.000608046888949 1
force Ni   0.000943189464053   0.002448565560315  -0.031923686811102 1
force Ni   0.002014092285747  -0.004177704788765  -0.032937698101443 1
force Ni  -0.000403146637905  -0.000532288269816  -0.030591878695652 1
force Ni  -0.003455045924307   0.011274308061805  -0.295374455400810 0
force Ni   0.014502365309383  -0.007737245942828   0.104209969382009 0
force V   0.003706387461928   0.001746008006553  -0.004990662086174 1
force V  -0.001268344614221  -0.001253046602495  -0.009578825300356 1
force V  -0.055663007680590  -0.047485520770542  -0.103709195185405 0
force V   0.030870328209925   0.062069116753210  -0.042134948266058 0
force V  -0.054638934585474   0.045028077775611  -0.265239227397143 0
force Co   0.000786989401970  -0.000564866911186  -0.010906070796404 1
force Co   0.033275534431823  -0.042720080436664  -0.023103942393399 0
force Co   0.037055515366330   0.018837879504973  -0.780004158218223 0
force Cr   0.015386776739907  -0.019664007792902  -1.787058291699928 0
force O   0.001109530111782   0.000827218547088   0.011067162812946 1
force O   0.005499986179739  -0.002901084727911   0.001769445780582 1
force O  -0.004478512488661   0.005734646311985   0.003214070965557 1
force O  -0.002905124802767  -0.002063180715098   0.005646555750010 1
force O   0.001765826183507  -0.001332145768203  -0.000886036081642 1
force O   0.000511094779567  -0.000985392619831   0.004447008323630 1
force O   0.003490680057950   0.000993493746582  -0.007164326271826 1
force O   0.005210037850081   0.001363947969575  -0.012011092430735 1
force O   0.046175344611721  -0.011001848116001   1.227858246634565 0
force O   0.061686988976218   0.010316249450161   0.683099409022919 0
force O  -0.031341481937490  -0.006635151692389   0.128672319315209 0
force O  -0.082103901644850   0.021094528988338   0.565379760139495 0
force O  -0.027861957074560   0.042846583774543   0.125877594728507 0
force O   0.012160068928189   0.034420478072329   0.188530274589713 0
force O  -0.037212354244178  -0.075142524094713   0.216095098109738 0
force O   0.022806647702177  -0.043456747058856   0.138150066307642 0
force O  -0.000510905694003  -0.005104802810975   0.014231376772127 1

# Energy components:
   Eewald =     5960.0584319800618687
       EH =     7936.7121020202594082
     Eloc =   -16231.3622073983879091
      Enl =     -606.2734805634639770
   Epulay =       -0.0004887253079091
      Exc =     -260.2189425892399868
       KE =     1004.1207853052771952
        U =        1.4325474602359711
-------------------------------------
     Etot =    -2195.5312525105650820
       TS =        0.0011479517097419
-------------------------------------
        F =    -2195.5324004622748362

IonicMinimize: Iter:  14  F: -2195.532400462274836  |grad|_K:  3.198e-04  alpha:  1.000e+00  linmin:  1.560e-02  t[s]:  84094.66
IonicMinimize: Converged (|Delta F|<1.000000e-04 for 3 iters).

#--- Lowdin population analysis ---
# oxidation-state Ni +3.485 +3.688 +3.447 +3.494 +3.485 +3.514 +3.803
# magnetic-moments Ni +0.722 -0.891 +0.857 +0.955 -0.889 -0.696 +0.982
# oxidation-state V +1.380 +1.159 +1.070 +1.001 +1.075
# magnetic-moments V -2.090 +2.978 +2.678 -2.811 +2.580
# oxidation-state Co +1.256 +1.284 +1.320
# magnetic-moments Co -2.718 -2.774 +2.805
# oxidation-state Cr +2.983
# magnetic-moments Cr -3.859
# oxidation-state O -0.744 -0.740 -0.849 -0.743 -0.777 -0.780 -0.795 -0.753 -0.886 -0.861 -0.937 -0.929 -0.893 -0.855 -0.846 -0.854 -0.378
# magnetic-moments O +0.133 +0.173 -0.048 -0.152 +0.111 +0.064 +0.084 -0.075 +0.033 -0.007 +0.025 -0.087 +0.060 +0.084 +0.157 +0.090 +1.264


Dumping 'run.ionpos' ... done
Dumping 'run.lattice' ... done
Dumping 'run.Ecomponents' ... done
End date and time: Thu May  8 06:11:35 2025  (Duration: 0-23:21:41.32)
Done!
