
*************** JDFTx 1.7.0  ***************

Start date and time: Thu May  1 18:42:28 2025
Executable /data2/jt577/jdftx_eat_withLibXC/build/jdftx with command-line: -i /data2/jt577/May_2025/EAT_noMag/run1+1_6/runs/calc_20250501-184227/O/O.in
Running on hosts (process indices):  node3305 (0-8)
Divided in process groups (process indices):  0 (0)  1 (1)  2 (2)  3 (3)  4 (4)  5 (5)  6 (6)  7 (7)  8 (8)
Resource initialization completed at t[s]:      0.00
Run totals: 9 processes, 63 threads, 0 GPUs


Input parsed successfully to the following command list (including defaults):

add-mix mix1 Ni Cr Co V 
add-mix mix2 Ni Cr Co V 
add-mix mix3 Ni Cr Co V 
add-mix mix4 Ni Cr Co V 
add-mix mix5 Ni Cr Co V 
add-mix mix6 Ni Cr Co V 
add-mix mix7 Ni Cr Co V 
add-mix mix8 Ni Cr Co V 
add-mix mix9 Ni Cr Co V 
add-mix mix10 Ni Cr Co V 
add-mix mix11 Ni Cr Co V 
add-mix mix12 Ni Cr Co V 
add-mix mix13 Ni Cr Co V 
add-mix mix14 Ni Cr Co V 
add-mix mix15 Ni Cr Co V 
add-mix mix16 Ni Cr Co V 
basis kpoint-dependent
coords-type Lattice
core-overlap-check vector
coulomb-interaction Periodic
davidson-band-ratio 1.1
dump End State IonicPositions Lattice Ecomponents MixGrad
dump-name O.$VAR
elec-cutoff 30
elec-eigen-algo Davidson
elec-ex-corr gga-x-rpbe gga-c-pbe
elec-smearing Fermi 0.001
electronic-minimize  \
	dirUpdateScheme      FletcherReeves \
	linminMethod         DirUpdateRecommended \
	nIterations          1000 \
	history              15 \
	knormThreshold       0 \
	energyDiffThreshold  1e-07 \
	nEnergyDiff          5 \
	alphaTstart          1 \
	alphaTmin            1e-10 \
	updateTestStepSize   yes \
	alphaTreduceFactor   0.1 \
	alphaTincreaseFactor 3 \
	nAlphaAdjustMax      3 \
	wolfeEnergy          0.0001 \
	wolfeGradient        0.9 \
	fdTest               no
exchange-regularization WignerSeitzTruncated
fluid None
fluid-ex-corr (null) lda-PZ
fluid-gummel-loop 10 1.000000e-05
fluid-minimize  \
	dirUpdateScheme      PolakRibiere \
	linminMethod         DirUpdateRecommended \
	nIterations          100 \
	history              15 \
	knormThreshold       0 \
	energyDiffThreshold  0 \
	nEnergyDiff          2 \
	alphaTstart          1 \
	alphaTmin            1e-10 \
	updateTestStepSize   yes \
	alphaTreduceFactor   0.1 \
	alphaTincreaseFactor 3 \
	nAlphaAdjustMax      3 \
	wolfeEnergy          0.0001 \
	wolfeGradient        0.9 \
	fdTest               no
fluid-solvent H2O 55.338 ScalarEOS \
	epsBulk 78.4 \
	pMol 0.92466 \
	epsInf 1.77 \
	Pvap 1.06736e-10 \
	sigmaBulk 4.62e-05 \
	Rvdw 2.61727 \
	Res 1.42 \
	tauNuc 343133 \
	poleEl 15 7 1
forces-output-coords Positions
initial-state O.$VAR
ion mix1  0.254563873659573   0.229445917211094   0.254632902180978   0.261357306948356   0.000000000000000   0.000000000000000   0.150000000000000 0
ion mix2  0.242313769901973   0.266679553932279   0.210480713855447   0.280525962310301   0.500000000000000   0.000000000000000   0.150000000000000 0
ion mix3  0.266841551216917   0.266814883114360   0.220054614909986   0.246288950758737   0.000000000000000   0.500000000000000   0.150000000000000 0
ion mix4  0.276999808120921   0.231526439753486   0.273606430841179   0.217867321284414   0.500000000000000   0.500000000000000   0.150000000000000 0
ion mix5  0.293441791900151   0.217428229203063   0.258494252212986   0.230635726683799   0.250000000000000   0.250000000000000   0.050000000000000 0
ion mix6  0.264498484057400   0.218912933509632   0.243795333457493   0.272793248975475   0.250000000000000   0.750000000000000   0.050000000000000 0
ion mix7  0.257379500181739   0.220299030299627   0.266850599937588   0.255470869581045  -0.250000000000000   0.250000000000000   0.050000000000000 0
ion mix8  0.220503909980484   0.253623679406947   0.265146181102675   0.260726229509894  -0.250000000000000   0.750000000000000   0.050000000000000 0
ion mix9  0.272775073034499   0.257313938911870   0.221744776329678   0.248166211723953   0.000000000000000   0.000000000000000  -0.050000000000000 0
ion mix10  0.214895556416226   0.269286522803060   0.266678924596572   0.249138996184142   0.500000000000000   0.000000000000000  -0.050000000000000 0
ion mix11  0.234276960345559   0.280406814032444   0.253504195430689   0.231812030191307   0.000000000000000   0.500000000000000  -0.050000000000000 0
ion mix12  0.271374030551233   0.236746642953335   0.276687108436738   0.215192218058695   0.500000000000000   0.500000000000000  -0.050000000000000 0
ion mix13  0.240684578847718   0.230507745952900   0.257169646593683   0.271638028605698   0.250000000000000   0.250000000000000  -0.150000000000000 0
ion mix14  0.233197210112227   0.276141240793476   0.263426642689720   0.227234906404576   0.250000000000000   0.750000000000000  -0.150000000000000 0
ion mix15  0.289733195311016   0.256094934175123   0.222592124863682   0.231579745650180  -0.250000000000000   0.250000000000000  -0.150000000000000 0
ion mix16  0.236258011842001   0.218885614123976   0.266522984355164   0.278333389678859  -0.250000000000000   0.750000000000000  -0.150000000000000 0
ion O  0.250000000000000   0.250000000000000   0.150000000000000 0
ion O  0.250000000000000   0.750000000000000   0.150000000000000 0
ion O -0.250000000000000   0.250000000000000   0.150000000000000 0
ion O -0.250000000000000   0.750000000000000   0.150000000000000 0
ion O  0.000000000000000   0.000000000000000   0.050000000000000 0
ion O  0.500000000000000   0.000000000000000   0.050000000000000 0
ion O  0.000000000000000   0.500000000000000   0.050000000000000 0
ion O  0.500000000000000   0.500000000000000   0.050000000000000 0
ion O  0.250000000000000   0.250000000000000  -0.050000000000000 0
ion O  0.250000000000000   0.750000000000000  -0.050000000000000 0
ion O -0.250000000000000   0.250000000000000  -0.050000000000000 0
ion O -0.250000000000000   0.750000000000000  -0.050000000000000 0
ion O  0.000000000000000   0.000000000000000  -0.150000000000000 0
ion O  0.500000000000000   0.000000000000000  -0.150000000000000 0
ion O  0.000000000000000   0.500000000000000  -0.150000000000000 0
ion O  0.500000000000000   0.500000000000000  -0.150000000000000 0
ion O  0.000000000000000   0.000000000000000   0.230000000000000 1
ion-species SG15/$ID_ONCV_PBE.upf
ion-width 0
ionic-minimize  \
	dirUpdateScheme      L-BFGS \
	linminMethod         DirUpdateRecommended \
	nIterations          1000 \
	history              15 \
	knormThreshold       0.0001 \
	energyDiffThreshold  1e-05 \
	nEnergyDiff          3 \
	alphaTstart          1 \
	alphaTmin            1e-10 \
	updateTestStepSize   yes \
	alphaTreduceFactor   0.1 \
	alphaTincreaseFactor 3 \
	nAlphaAdjustMax      3 \
	wolfeEnergy          0.0001 \
	wolfeGradient        0.9 \
	fdTest               no
kpoint   0.500000000000   0.500000000000   0.500000000000  1.00000000000000
kpoint-folding 3 3 1 
latt-move-scale 1 1 1
latt-scale 1 1 1 
lattice  \
	   8.140000000000001    8.140000000000001    0.000000000000000  \
	   8.140000000000001   -8.140000000000001    0.000000000000000  \
	   0.000000000000000    0.000000000000000   40.700000000000003 
lattice-minimize  \
	dirUpdateScheme      L-BFGS \
	linminMethod         DirUpdateRecommended \
	nIterations          0 \
	history              15 \
	knormThreshold       0 \
	energyDiffThreshold  1e-06 \
	nEnergyDiff          2 \
	alphaTstart          1 \
	alphaTmin            1e-10 \
	updateTestStepSize   yes \
	alphaTreduceFactor   0.1 \
	alphaTincreaseFactor 3 \
	nAlphaAdjustMax      3 \
	wolfeEnergy          0.0001 \
	wolfeGradient        0.9 \
	fdTest               no
lcao-params -1 1e-06 0.001
pcm-variant GLSSA13
spintype no-spin
subspace-rotation-factor 1 yes
symmetries none
symmetry-threshold 0.0001


Applied RMS atom displacement 0 bohrs to make symmetries exact.

---------- Initializing the Grid ----------
R = 
[         8.14         8.14            0  ]
[         8.14        -8.14            0  ]
[            0            0         40.7  ]
unit cell volume = 5393.53
G =
[   0.385945   0.385945         -0  ]
[   0.385945  -0.385945         -0  ]
[         -0         -0   0.154378  ]
Minimum fftbox size, Smin = [  60  60  204  ]
Chosen fftbox size, S = [  60  60  210  ]

---------- Exchange Correlation functional ----------
Initialized LibXC exchange functional 'Hammer, Hansen, and Norskov'
Initialized LibXC correlation functional 'Perdew, Burke & Ernzerhof'

---------- Setting up pseudopotentials ----------
Width of ionic core gaussian charges (only for fluid interactions / plotting) set to 0
  Disabling overlap check for local pseudopotential.

Reading pseudopotential file '/data2/jt577/jdftx_eat_withLibXC/build/pseudopotentials/SG15/Ni_ONCV_PBE.upf':
  'Ni' pseudopotential, 'PBE' functional
  Generated using ONCVPSP code by D. R. Hamann
  Author: Martin Schlipf and Francois Gygi  Date: 150915.
  18 valence electrons, 4 orbitals, 6 projectors, 1292 radial grid points, with lMax = 2
  Transforming local potential to a uniform radial grid of dG=0.02 with 1419 points.
  Transforming nonlocal projectors to a uniform radial grid of dG=0.02 with 528 points.
    3S    l: 0   occupation:  2.0   eigenvalue: -4.081355
    3P    l: 1   occupation:  6.0   eigenvalue: -2.623460
    4S    l: 0   occupation:  2.0   eigenvalue: -0.207378
    3D    l: 2   occupation:  8.0   eigenvalue: -0.326118
  Transforming atomic orbitals to a uniform radial grid of dG=0.02 with 528 points.
  WARNING: large normalization error in atomic orbital 1s (integral: 0.000006).
  Core radius for overlap checks: 1.99 bohrs.
  Reading pulay file /data2/jt577/jdftx_eat_withLibXC/build/pseudopotentials/SG15/Ni_ONCV_PBE.pulay ... using dE_dnG = -7.250568e-04 computed for Ecut = 30.

Reading pseudopotential file '/data2/jt577/jdftx_eat_withLibXC/build/pseudopotentials/SG15/Cr_ONCV_PBE.upf':
  'Cr' pseudopotential, 'PBE' functional
  Generated using ONCVPSP code by D. R. Hamann
  Author: Martin Schlipf and Francois Gygi  Date: 150915.
  14 valence electrons, 4 orbitals, 6 projectors, 1160 radial grid points, with lMax = 2
  Transforming local potential to a uniform radial grid of dG=0.02 with 1419 points.
  Transforming nonlocal projectors to a uniform radial grid of dG=0.02 with 528 points.
    3S    l: 0   occupation:  2.0   eigenvalue: -2.865131
    3P    l: 1   occupation:  6.0   eigenvalue: -1.810600
    4S    l: 0   occupation:  2.0   eigenvalue: -0.180525
    3D    l: 2   occupation:  4.0   eigenvalue: -0.220312
  Transforming atomic orbitals to a uniform radial grid of dG=0.02 with 528 points.
  WARNING: large normalization error in atomic orbital 1s (integral: 0.000001).
  Core radius for overlap checks: 2.10 bohrs.
  Reading pulay file /data2/jt577/jdftx_eat_withLibXC/build/pseudopotentials/SG15/Cr_ONCV_PBE.pulay ... using dE_dnG = -9.817895e-06 computed for Ecut = 30.

Reading pseudopotential file '/data2/jt577/jdftx_eat_withLibXC/build/pseudopotentials/SG15/Co_ONCV_PBE.upf':
  'Co' pseudopotential, 'PBE' functional
  Generated using ONCVPSP code by D. R. Hamann
  Author: Martin Schlipf and Francois Gygi  Date: 150915.
  17 valence electrons, 4 orbitals, 6 projectors, 1388 radial grid points, with lMax = 2
  Transforming local potential to a uniform radial grid of dG=0.02 with 1419 points.
  Transforming nonlocal projectors to a uniform radial grid of dG=0.02 with 528 points.
    3S    l: 0   occupation:  2.0   eigenvalue: -3.763303
    3P    l: 1   occupation:  6.0   eigenvalue: -2.412101
    4S    l: 0   occupation:  2.0   eigenvalue: -0.201022
    3D    l: 2   occupation:  7.0   eigenvalue: -0.301498
  Transforming atomic orbitals to a uniform radial grid of dG=0.02 with 528 points.
  Core radius for overlap checks: 1.94 bohrs.
  Reading pulay file /data2/jt577/jdftx_eat_withLibXC/build/pseudopotentials/SG15/Co_ONCV_PBE.pulay ... using dE_dnG = -9.787391e-05 computed for Ecut = 30.

Reading pseudopotential file '/data2/jt577/jdftx_eat_withLibXC/build/pseudopotentials/SG15/V_ONCV_PBE.upf':
  'V' pseudopotential, 'PBE' functional
  Generated using ONCVPSP code by D. R. Hamann
  Author: Martin Schlipf and Francois Gygi  Date: 150915.
  13 valence electrons, 4 orbitals, 6 projectors, 1536 radial grid points, with lMax = 2
  Transforming local potential to a uniform radial grid of dG=0.02 with 1419 points.
  Transforming nonlocal projectors to a uniform radial grid of dG=0.02 with 528 points.
    3S    l: 0   occupation:  2.0   eigenvalue: -2.581105
    3P    l: 1   occupation:  6.0   eigenvalue: -1.618486
    4S    l: 0   occupation:  2.0   eigenvalue: -0.172804
    3D    l: 2   occupation:  3.0   eigenvalue: -0.189795
  Transforming atomic orbitals to a uniform radial grid of dG=0.02 with 528 points.
  Core radius for overlap checks: 1.80 bohrs.
  Reading pulay file /data2/jt577/jdftx_eat_withLibXC/build/pseudopotentials/SG15/V_ONCV_PBE.pulay ... using dE_dnG = -1.698632e-04 computed for Ecut = 30.
  Disabling overlap check for local pseudopotential.
  Disabling overlap check for local pseudopotential.
  Disabling overlap check for local pseudopotential.
  Disabling overlap check for local pseudopotential.
  Disabling overlap check for local pseudopotential.
  Disabling overlap check for local pseudopotential.
  Disabling overlap check for local pseudopotential.
  Disabling overlap check for local pseudopotential.
  Disabling overlap check for local pseudopotential.
  Disabling overlap check for local pseudopotential.
  Disabling overlap check for local pseudopotential.
  Disabling overlap check for local pseudopotential.
  Disabling overlap check for local pseudopotential.
  Disabling overlap check for local pseudopotential.
  Disabling overlap check for local pseudopotential.

Reading pseudopotential file '/data2/jt577/jdftx_eat_withLibXC/build/pseudopotentials/SG15/O_ONCV_PBE.upf':
  'O' pseudopotential, 'PBE' functional
  Generated using ONCVPSP code by D. R. Hamann
  Author: Martin Schlipf and Francois Gygi  Date: 150915.
  6 valence electrons, 2 orbitals, 4 projectors, 936 radial grid points, with lMax = 1
  Transforming local potential to a uniform radial grid of dG=0.02 with 1419 points.
  Transforming nonlocal projectors to a uniform radial grid of dG=0.02 with 528 points.
    2S    l: 0   occupation:  2.0   eigenvalue: -0.880572
    2P    l: 1   occupation:  4.0   eigenvalue: -0.331869
  Transforming atomic orbitals to a uniform radial grid of dG=0.02 with 528 points.
  Core radius for overlap checks: 1.29 bohrs.
  Reading pulay file /data2/jt577/jdftx_eat_withLibXC/build/pseudopotentials/SG15/O_ONCV_PBE.pulay ... using dE_dnG = -8.209514e-03 computed for Ecut = 30.

Initialized 21 species with 33 total atoms.

Folded 1 k-points by 3x3x1 to 9 k-points.

---------- Setting up k-points, bands, fillings ----------
No reducable k-points. 
Computing the number of bands and number of electrons
Calculating initial fillings.
nElectrons: 350.364350   nBands: 228   nStates: 9

----- Setting up reduced wavefunction bases (one per k-point) -----
average nbasis = 42312.000 , ideal nbasis = 42330.081

---------- Setting up ewald sum ----------
Optimum gaussian width for ewald sums = 3.906449 bohr.
Real space sum over 605 unit cells with max indices [  5  5  2  ]
Reciprocal space sum over 5915 terms with max indices [  6  6  17  ]

---------- Allocating electronic variables ----------
Initializing wave functions:  linear combination of atomic orbitals
O pseudo-atom occupations:   s ( 2 )  p ( 4 )
	FillingsUpdate:  mu: +7.607967058  nElectrons: 350.364350
LCAOMinimize: Iter:   0  F: -1451.4851748777791727  |grad|_K:  1.230e-02  alpha:  1.000e+00
LCAOMinimize: 	Wrong curvature in test step, increasing alphaT to 3.000000e+00.
	FillingsUpdate:  mu: +0.731428936  nElectrons: 350.364350
LCAOMinimize: Iter:   1  F: -1684.3196194062675204  |grad|_K:  1.431e-02  alpha: -2.214e-01  linmin:  6.841e-03  cgtest: -2.075e+00  t[s]:     37.61
LCAOMinimize: 	Bad step direction: g.d > 0.
LCAOMinimize: 	Undoing step.
LCAOMinimize: 	Step failed: resetting search direction.
	FillingsUpdate:  mu: +0.731428936  nElectrons: 350.364350
LCAOMinimize: Iter:   2  F: -1684.3196194062693394  |grad|_K:  1.431e-02  alpha:  0.000e+00
	FillingsUpdate:  mu: +0.222865141  nElectrons: 350.364350
LCAOMinimize: Iter:   3  F: -1695.1284621286808942  |grad|_K:  9.555e-03  alpha:  9.670e-02  linmin: -2.545e-02  cgtest:  6.131e-01  t[s]:     52.74
LCAOMinimize: 	Predicted alpha/alphaT>3.000000, increasing alphaT to 2.900913e-01.
	FillingsUpdate:  mu: +0.465068650  nElectrons: 350.364350
LCAOMinimize: Iter:   4  F: -1702.1120972980036186  |grad|_K:  2.242e-02  alpha:  2.863e-01  linmin:  4.115e-03  cgtest: -4.737e-01  t[s]:     64.05
LCAOMinimize: 	Bad step direction: g.d > 0.
LCAOMinimize: 	Undoing step.
LCAOMinimize: 	Step failed: resetting search direction.
	FillingsUpdate:  mu: +0.465068650  nElectrons: 350.364350
LCAOMinimize: Iter:   5  F: -1702.1120972980036186  |grad|_K:  2.242e-02  alpha:  0.000e+00
	FillingsUpdate:  mu: +0.131452213  nElectrons: 350.364350
LCAOMinimize: Iter:   6  F: -1712.2024472451735164  |grad|_K:  1.944e-02  alpha:  4.290e-02  linmin: -3.278e-02  cgtest:  7.295e-01  t[s]:     78.86
LCAOMinimize: 	Wrong curvature in test step, increasing alphaT to 1.286890e-01.
	FillingsUpdate:  mu: +0.011400763  nElectrons: 350.364350
LCAOMinimize: Iter:   7  F: -1721.5468679158980194  |grad|_K:  1.532e-02  alpha: -4.511e-01  linmin: -1.784e-02  cgtest:  5.607e-01  t[s]:     86.88
	FillingsUpdate:  mu: +5.224328733  nElectrons: 350.364350
LCAOMinimize: Iter:   8  F: -1739.3521199158483341  |grad|_K:  1.927e-02  alpha:  4.816e-01  linmin:  3.658e-03  cgtest: -9.832e-01  t[s]:     95.69
LCAOMinimize: 	Bad step direction: g.d > 0.
LCAOMinimize: 	Undoing step.
LCAOMinimize: 	Step failed: resetting search direction.
	FillingsUpdate:  mu: +5.224328733  nElectrons: 350.364350
LCAOMinimize: Iter:   9  F: -1739.3521199158483341  |grad|_K:  1.927e-02  alpha:  0.000e+00
LCAOMinimize: 	Step increased F by 4.838627e+00, reducing alpha to 1.298845e-02.
	FillingsUpdate:  mu: +5.162027762  nElectrons: 350.364350
LCAOMinimize: Iter:  10  F: -1740.8412099627259977  |grad|_K:  1.673e-02  alpha:  1.299e-02  linmin: -1.171e-02  cgtest:  9.381e-01  t[s]:    116.97
LCAOMinimize: Encountered beta<0, resetting CG.
	FillingsUpdate:  mu: +5.105164118  nElectrons: 350.364350
LCAOMinimize: Iter:  11  F: -1743.8482893329428407  |grad|_K:  1.380e-02  alpha:  3.486e-02  linmin: -1.609e-02  cgtest:  7.972e-01  t[s]:    125.66
LCAOMinimize: 	Wrong curvature in test step, increasing alphaT to 1.045778e-01.
	FillingsUpdate:  mu: +5.053209309  nElectrons: 350.364350
LCAOMinimize: Iter:  12  F: -1752.7654338510265006  |grad|_K:  1.899e-02  alpha: -9.860e-03  linmin: -8.014e-04  cgtest:  3.173e-01  t[s]:    133.61
LCAOMinimize: 	Step increased F by 3.226436e+01, reducing alpha to 1.649921e-02.
	FillingsUpdate:  mu: +5.005682836  nElectrons: 350.364350
LCAOMinimize: Iter:  13  F: -1755.8639220749071228  |grad|_K:  1.632e-02  alpha:  1.650e-02  linmin: -8.257e-03  cgtest:  1.115e+00  t[s]:    148.70
LCAOMinimize: Encountered beta<0, resetting CG.
	FillingsUpdate:  mu: +4.877243403  nElectrons: 350.364350
LCAOMinimize: Iter:  14  F: -1759.0452412089507561  |grad|_K:  1.323e-02  alpha:  3.197e-02  linmin: -2.737e-02  cgtest:  8.326e-01  t[s]:    157.50
LCAOMinimize: Encountered beta<0, resetting CG.
LCAOMinimize: 	Wrong curvature in test step, increasing alphaT to 9.590138e-02.
	FillingsUpdate:  mu: +4.801241217  nElectrons: 350.364350
LCAOMinimize: Iter:  15  F: -1761.7536420557487418  |grad|_K:  1.418e-02  alpha: -6.182e-01  linmin: -2.598e-02  cgtest:  7.750e-01  t[s]:    165.89
LCAOMinimize: 	Step increased F by 4.706276e+01, reducing alpha to 3.182784e-02.
	FillingsUpdate:  mu: +4.712942924  nElectrons: 350.364350
LCAOMinimize: Iter:  16  F: -1767.3814292654769815  |grad|_K:  1.737e-02  alpha:  3.183e-02  linmin: -3.408e-02  cgtest:  7.073e-01  t[s]:    180.61
	FillingsUpdate:  mu: +4.364260362  nElectrons: 350.364350
LCAOMinimize: Iter:  17  F: -1772.7312820095123698  |grad|_K:  4.309e-02  alpha:  3.503e-02  linmin: -1.859e-03  cgtest:  1.117e-01  t[s]:    189.37
	FillingsUpdate:  mu: +2.261207967  nElectrons: 350.364350
LCAOMinimize: Iter:  18  F: -1844.7878767618192342  |grad|_K:  4.343e-02  alpha:  8.292e-03  linmin: -7.476e-02  cgtest:  2.504e-01  t[s]:    198.09
	FillingsUpdate:  mu: -0.112018406  nElectrons: 350.364350
LCAOMinimize: Iter:  19  F: -1862.6935558180387034  |grad|_K:  3.862e-02  alpha:  2.527e-03  linmin:  1.136e-01  cgtest: -4.039e-01  t[s]:    206.82
LCAOMinimize: 	Bad step direction: g.d > 0.
LCAOMinimize: 	Undoing step.
LCAOMinimize: 	Step failed: resetting search direction.
	FillingsUpdate:  mu: -0.112018406  nElectrons: 350.364350
LCAOMinimize: Iter:  20  F: -1862.6935558180459793  |grad|_K:  3.862e-02  alpha:  0.000e+00
LCAOMinimize: 	Predicted alpha/alphaT>3.000000, increasing alphaT to 7.582296e-03.
LCAOMinimize: 	Predicted alpha/alphaT>3.000000, increasing alphaT to 2.274689e-02.
	FillingsUpdate:  mu: +1.051714014  nElectrons: 350.364350
LCAOMinimize: Iter:  21  F: -1866.0676386217257914  |grad|_K:  6.235e-02  alpha:  4.422e-02  linmin:  6.739e-02  cgtest: -6.114e-01  t[s]:    226.68
LCAOMinimize: 	Bad step direction: g.d > 0.
LCAOMinimize: 	Undoing step.
LCAOMinimize: 	Step failed: resetting search direction.
	FillingsUpdate:  mu: +1.051714014  nElectrons: 350.364350
LCAOMinimize: Iter:  22  F: -1866.0676386217257914  |grad|_K:  6.235e-02  alpha:  0.000e+00
	FillingsUpdate:  mu: +0.674922302  nElectrons: 350.364350
LCAOMinimize: Iter:  23  F: -1872.6557469000401852  |grad|_K:  4.653e-02  alpha:  1.322e-02  linmin:  1.208e-01  cgtest: -6.902e-01  t[s]:    241.74
	FillingsUpdate:  mu: +0.665136277  nElectrons: 350.364350
LCAOMinimize: Iter:  24  F: -1872.6933577832226092  |grad|_K:  5.051e-02  alpha:  2.455e-03  linmin:  5.586e-03  cgtest:  9.752e-01  t[s]:    250.35
LCAOMinimize: 	Predicted alpha/alphaT>3.000000, increasing alphaT to 7.363534e-03.
	FillingsUpdate:  mu: -0.119219815  nElectrons: 350.364350
LCAOMinimize: Iter:  25  F: -1877.6359449192893862  |grad|_K:  1.483e-02  alpha:  8.930e-03  linmin:  1.358e-01  cgtest: -8.202e-01  t[s]:    261.58
	FillingsUpdate:  mu: -0.179705188  nElectrons: 350.364350
LCAOMinimize: Iter:  26  F: -1877.7500685803636316  |grad|_K:  1.594e-02  alpha:  1.269e-02  linmin: -1.299e-03  cgtest:  9.852e-01  t[s]:    270.23
	FillingsUpdate:  mu: -0.269303988  nElectrons: 350.364350
LCAOMinimize: Iter:  27  F: -1878.3174861925322148  |grad|_K:  5.467e-03  alpha:  8.821e-03  linmin: -6.326e-03  cgtest: -8.060e-02  t[s]:    278.87
LCAOMinimize: 	Predicted alpha/alphaT>3.000000, increasing alphaT to 2.646427e-02.
	FillingsUpdate:  mu: -0.131303824  nElectrons: 350.364350
LCAOMinimize: Iter:  28  F: -1878.5650632910874265  |grad|_K:  1.154e-02  alpha:  4.041e-02  linmin:  8.864e-03  cgtest:  2.854e-01  t[s]:    289.99
	FillingsUpdate:  mu: -0.164844536  nElectrons: 350.364350
LCAOMinimize: Iter:  29  F: -1878.7070889442782118  |grad|_K:  1.003e-02  alpha:  3.434e-03  linmin: -2.030e-02  cgtest:  9.736e-01  t[s]:    298.71
LCAOMinimize: Encountered beta<0, resetting CG.
	FillingsUpdate:  mu: -0.231455336  nElectrons: 350.364350
LCAOMinimize: Iter:  30  F: -1878.9232063122099134  |grad|_K:  6.260e-03  alpha:  9.389e-03  linmin:  8.150e-03  cgtest: -7.018e-02  t[s]:    307.54
LCAOMinimize: None of the convergence criteria satisfied after 30 iterations.


---- Citations for features of the code used in this run ----

   Software package:
      R. Sundararaman, K. Letchworth-Weaver, K.A. Schwarz, D. Gunceler, Y. Ozhabes and T.A. Arias, 'JDFTx: software for joint density-functional theory', SoftwareX 6, 278 (2017)

   LibXC library of exchange-correlation functions:
      M. A. L. Marques, M. J. T. Oliveira and T. Burnus, Comput. Phys. Commun. 183, 2272 (2012)

   Hammer, Hansen, and Norskov exchange functional:
      B. Hammer, L. B. Hansen, and J. K. Nørskov, Phys. Rev. B 59, 7413 (1999)

   Perdew, Burke & Ernzerhof correlation functional:
      J. P. Perdew, K. Burke, and M. Ernzerhof, Phys. Rev. Lett. 77, 3865 (1996)

   Pseudopotentials:
      M Schlipf and F Gygi, Comput. Phys. Commun. 196, 36 (2015)

   Total energy minimization with Auxiliary Hamiltonian:
      C. Freysoldt, S. Boeck, and J. Neugebauer, Phys. Rev. B 79, 241103(R) (2009)

This list may not be complete. Please suggest additional citations or
report any other bugs at https://github.com/shankar1729/jdftx/issues

Initialization completed successfully at t[s]:    309.97


-------- Electronic minimization -----------
	FillingsUpdate:  mu: -0.231455317  nElectrons: 350.364350
ElecMinimize: Iter:   0  F: -1878.923206312209913  |grad|_K:  1.197e-03  alpha:  1.000e+00
	FillingsUpdate:  mu: +1.846830984  nElectrons: 350.364350
	SubspaceRotationAdjust: set factor to 0.561
ElecMinimize: Iter:   1  F: -1899.726676530457780  |grad|_K:  4.156e-03  alpha:  3.732e-01  linmin:  2.346e-04  t[s]:    362.84
ElecMinimize: 	Step increased F by 3.057806e+02, reducing alpha to 9.784762e-03.
	FillingsUpdate:  mu: +0.643276633  nElectrons: 350.364350
	SubspaceRotationAdjust: set factor to 0.724
ElecMinimize: Iter:   2  F: -1911.018619121362462  |grad|_K:  1.608e-03  alpha:  9.785e-03  linmin:  6.533e-05  t[s]:    418.63
	FillingsUpdate:  mu: +0.664814446  nElectrons: 350.364350
	SubspaceRotationAdjust: set factor to 0.748
ElecMinimize: Iter:   3  F: -1916.212949064345594  |grad|_K:  1.709e-03  alpha:  1.814e-02  linmin: -3.783e-04  t[s]:    453.63
	FillingsUpdate:  mu: +1.399734687  nElectrons: 350.364350
	SubspaceRotationAdjust: set factor to 0.486
ElecMinimize: Iter:   4  F: -1924.588294009261972  |grad|_K:  2.400e-03  alpha:  2.112e-02  linmin:  1.146e-04  t[s]:    488.29
	FillingsUpdate:  mu: +2.151327675  nElectrons: 350.364350
	SubspaceRotationAdjust: set factor to 0.284
ElecMinimize: Iter:   5  F: -1929.629261929423365  |grad|_K:  2.881e-03  alpha:  1.454e-02  linmin: -3.799e-05  t[s]:    522.83
	FillingsUpdate:  mu: +2.721432074  nElectrons: 350.364350
	SubspaceRotationAdjust: set factor to 0.208
ElecMinimize: Iter:   6  F: -1938.751595322234607  |grad|_K:  2.105e-03  alpha:  1.866e-02  linmin:  6.261e-04  t[s]:    557.19
ElecMinimize: 	Bad step direction: g.d > 0.
ElecMinimize: 	Undoing step.
ElecMinimize: 	Step failed: resetting search direction.
	FillingsUpdate:  mu: +2.721432074  nElectrons: 350.364350
	SubspaceRotationAdjust: set factor to 0.169
ElecMinimize: Iter:   7  F: -1938.751595322232788  |grad|_K:  1.894e-03  alpha:  0.000e+00
ElecMinimize: 	Wrong curvature in test step, increasing alphaT to 5.598637e-02.
	FillingsUpdate:  mu: +2.263588569  nElectrons: 350.364350
	SubspaceRotationAdjust: set factor to 0.141
ElecMinimize: Iter:   8  F: -1950.557497190029380  |grad|_K:  1.567e-03  alpha: -7.017e-01  linmin: -3.011e-02  t[s]:    611.92
ElecMinimize: 	Step increased F by 1.424043e+02, reducing alpha to 3.169760e-02.
	FillingsUpdate:  mu: +1.027266324  nElectrons: 350.364350
	SubspaceRotationAdjust: set factor to 0.166
ElecMinimize: Iter:   9  F: -1970.634010721539653  |grad|_K:  8.544e-04  alpha:  3.170e-02  linmin: -1.656e-02  t[s]:    667.85
	FillingsUpdate:  mu: +0.480358272  nElectrons: 350.364350
	SubspaceRotationAdjust: set factor to 0.177
ElecMinimize: Iter:  10  F: -1979.700033759235566  |grad|_K:  5.759e-04  alpha:  7.359e-02  linmin: -3.931e-03  t[s]:    702.41
	FillingsUpdate:  mu: +0.002244591  nElectrons: 350.364350
	SubspaceRotationAdjust: set factor to 0.131
	SubspaceRotationAdjust: resetting CG because factor has changed by 0.130634
ElecMinimize: 	State modified externally: resetting search direction.
ElecMinimize: Iter:  11  F: -1984.190168956709158  |grad|_K:  7.137e-04  alpha:  1.313e-01
	FillingsUpdate:  mu: +0.316632709  nElectrons: 350.364350
	SubspaceRotationAdjust: set factor to 0.0865
ElecMinimize: Iter:  12  F: -1989.038960089477314  |grad|_K:  4.725e-04  alpha:  1.092e-01  linmin:  9.416e-04  t[s]:    790.33
	FillingsUpdate:  mu: +0.407304664  nElectrons: 350.364350
	SubspaceRotationAdjust: set factor to 0.0726
ElecMinimize: Iter:  13  F: -1991.003109339374987  |grad|_K:  2.310e-04  alpha:  1.034e-01  linmin: -7.098e-04  t[s]:    825.06
ElecMinimize: 	Predicted alpha/alphaT>3.000000, increasing alphaT to 3.101272e-01.
	FillingsUpdate:  mu: +0.223464962  nElectrons: 350.364350
	SubspaceRotationAdjust: set factor to 0.0952
ElecMinimize: Iter:  14  F: -1993.029615970315945  |grad|_K:  1.766e-04  alpha:  4.196e-01  linmin: -1.203e-03  t[s]:    872.31
	FillingsUpdate:  mu: +0.185347970  nElectrons: 350.364350
	SubspaceRotationAdjust: set factor to 0.0657
ElecMinimize: Iter:  15  F: -1993.864689494694176  |grad|_K:  2.337e-04  alpha:  2.620e-01  linmin: -4.509e-04  t[s]:    908.25
	FillingsUpdate:  mu: +0.093609676  nElectrons: 350.364350
	SubspaceRotationAdjust: set factor to 0.0858
ElecMinimize: Iter:  16  F: -1994.933573142093792  |grad|_K:  1.605e-04  alpha:  2.091e-01  linmin: -4.126e-04  t[s]:    944.44
	FillingsUpdate:  mu: +0.181975886  nElectrons: 350.364350
	SubspaceRotationAdjust: set factor to 0.0619
ElecMinimize: Iter:  17  F: -1995.801647474362653  |grad|_K:  1.911e-04  alpha:  3.332e-01  linmin: -2.797e-04  t[s]:    980.95
	FillingsUpdate:  mu: +0.141976352  nElectrons: 350.364350
	SubspaceRotationAdjust: set factor to 0.0481
ElecMinimize: Iter:  18  F: -1996.265776713255036  |grad|_K:  1.425e-04  alpha:  1.298e-01  linmin: -1.938e-04  t[s]:   1016.16
ElecMinimize: 	Predicted alpha/alphaT>3.000000, increasing alphaT to 3.894554e-01.
	FillingsUpdate:  mu: +0.160195467  nElectrons: 350.364350
	SubspaceRotationAdjust: set factor to 0.0462
ElecMinimize: Iter:  19  F: -1997.070718451498124  |grad|_K:  1.744e-04  alpha:  4.146e-01  linmin: -3.006e-04  t[s]:   1062.21
	FillingsUpdate:  mu: +0.137157866  nElectrons: 350.364350
	SubspaceRotationAdjust: set factor to 0.0343
ElecMinimize: Iter:  20  F: -1997.724665763780422  |grad|_K:  1.613e-04  alpha:  2.060e-01  linmin: -2.193e-04  t[s]:   1096.89
	FillingsUpdate:  mu: +0.166729693  nElectrons: 350.364350
	SubspaceRotationAdjust: set factor to 0.0448
ElecMinimize: Iter:  21  F: -1998.813029125455159  |grad|_K:  2.044e-04  alpha:  4.253e-01  linmin: -4.296e-05  t[s]:   1131.37
	FillingsUpdate:  mu: +0.177306061  nElectrons: 350.364350
	SubspaceRotationAdjust: set factor to 0.0524
ElecMinimize: Iter:  22  F: -2000.041702573632847  |grad|_K:  2.273e-04  alpha:  3.260e-01  linmin: -7.880e-05  t[s]:   1166.15
	FillingsUpdate:  mu: +0.167817858  nElectrons: 350.364350
	SubspaceRotationAdjust: set factor to 0.0647
ElecMinimize: Iter:  23  F: -2000.096748692086067  |grad|_K:  2.177e-04  alpha:  2.165e-02  linmin: -9.190e-04  t[s]:   1200.91
ElecMinimize: 	Predicted alpha/alphaT>3.000000, increasing alphaT to 6.494028e-02.
	FillingsUpdate:  mu: +0.219324034  nElectrons: 350.364350
	SubspaceRotationAdjust: set factor to 0.0455
ElecMinimize: Iter:  24  F: -2001.211386790514553  |grad|_K:  2.705e-04  alpha:  1.310e-01  linmin:  9.004e-06  t[s]:   1248.13
	FillingsUpdate:  mu: +0.207499956  nElectrons: 350.364350
	SubspaceRotationAdjust: set factor to 0.0361
ElecMinimize: Iter:  25  F: -2001.215242323317625  |grad|_K:  2.414e-04  alpha:  4.440e-03  linmin: -1.081e-03  t[s]:   1284.01
ElecMinimize: 	Predicted alpha/alphaT>3.000000, increasing alphaT to 1.332075e-02.
ElecMinimize: 	Predicted alpha/alphaT>3.000000, increasing alphaT to 3.996224e-02.
	FillingsUpdate:  mu: +0.053252646  nElectrons: 350.364350
	SubspaceRotationAdjust: set factor to 0.0351
ElecMinimize: Iter:  26  F: -2001.692911496654688  |grad|_K:  2.073e-04  alpha:  7.782e-02  linmin:  1.135e-03  t[s]:   1346.08
ElecMinimize: 	Bad step direction: g.d > 0.
ElecMinimize: 	Undoing step.
ElecMinimize: 	Step failed: resetting search direction.
	FillingsUpdate:  mu: +0.053252646  nElectrons: 350.364350
	SubspaceRotationAdjust: set factor to 0.0434
ElecMinimize: Iter:  27  F: -2001.692911496655142  |grad|_K:  2.066e-04  alpha:  0.000e+00
	FillingsUpdate:  mu: +0.138335483  nElectrons: 350.364350
	SubspaceRotationAdjust: set factor to 0.0315
ElecMinimize: Iter:  28  F: -2002.413142199654885  |grad|_K:  1.015e-04  alpha:  1.971e-01  linmin:  1.592e-02  t[s]:   1406.36
	FillingsUpdate:  mu: +0.140153029  nElectrons: 350.364350
	SubspaceRotationAdjust: set factor to 0.0241
ElecMinimize: Iter:  29  F: -2002.618186823053293  |grad|_K:  1.249e-04  alpha:  2.333e-01  linmin: -5.094e-03  t[s]:   1443.09
	FillingsUpdate:  mu: +0.059048838  nElectrons: 350.364350
	SubspaceRotationAdjust: set factor to 0.0167
	SubspaceRotationAdjust: resetting CG because factor has changed by 0.127588
ElecMinimize: 	State modified externally: resetting search direction.
ElecMinimize: Iter:  30  F: -2002.912496481945027  |grad|_K:  7.520e-05  alpha:  2.079e-01
	FillingsUpdate:  mu: +0.092495381  nElectrons: 350.364350
	SubspaceRotationAdjust: set factor to 0.0268
ElecMinimize: Iter:  31  F: -2003.046971508871366  |grad|_K:  4.694e-05  alpha:  2.729e-01  linmin: -4.120e-04  t[s]:   1533.87
	FillingsUpdate:  mu: +0.107762110  nElectrons: 350.364350
	SubspaceRotationAdjust: set factor to 0.023
ElecMinimize: Iter:  32  F: -2003.119959376480438  |grad|_K:  5.110e-05  alpha:  3.801e-01  linmin:  4.299e-04  t[s]:   1569.72
	FillingsUpdate:  mu: +0.089405758  nElectrons: 350.364350
	SubspaceRotationAdjust: set factor to 0.0176
ElecMinimize: Iter:  33  F: -2003.199331451220814  |grad|_K:  4.902e-05  alpha:  3.500e-01  linmin:  1.028e-03  t[s]:   1605.66
	FillingsUpdate:  mu: +0.056888320  nElectrons: 350.364350
	SubspaceRotationAdjust: set factor to 0.0138
ElecMinimize: Iter:  34  F: -2003.259543734115368  |grad|_K:  3.272e-05  alpha:  2.909e-01  linmin:  1.049e-03  t[s]:   1641.95
	FillingsUpdate:  mu: +0.070162052  nElectrons: 350.364350
	SubspaceRotationAdjust: set factor to 0.0152
ElecMinimize: Iter:  35  F: -2003.293261068371066  |grad|_K:  2.352e-05  alpha:  3.663e-01  linmin:  6.699e-04  t[s]:   1678.47
	FillingsUpdate:  mu: +0.074734313  nElectrons: 350.364350
	SubspaceRotationAdjust: set factor to 0.0182
ElecMinimize: Iter:  36  F: -2003.313206945447973  |grad|_K:  2.238e-05  alpha:  4.181e-01  linmin:  8.327e-05  t[s]:   1713.02
	FillingsUpdate:  mu: +0.080079385  nElectrons: 350.364350
	SubspaceRotationAdjust: set factor to 0.0197
ElecMinimize: Iter:  37  F: -2003.343385706019944  |grad|_K:  3.180e-05  alpha:  6.923e-01  linmin: -4.498e-04  t[s]:   1746.93
	FillingsUpdate:  mu: +0.100283974  nElectrons: 350.364350
	SubspaceRotationAdjust: set factor to 0.0185
ElecMinimize: Iter:  38  F: -2003.387158163835466  |grad|_K:  3.768e-05  alpha:  4.697e-01  linmin: -6.426e-04  t[s]:   1780.95
	FillingsUpdate:  mu: +0.105699943  nElectrons: 350.364350
	SubspaceRotationAdjust: set factor to 0.0167
ElecMinimize: Iter:  39  F: -2003.425189786119518  |grad|_K:  3.360e-05  alpha:  2.740e-01  linmin: -1.091e-03  t[s]:   1814.98
	FillingsUpdate:  mu: +0.118164187  nElectrons: 350.364350
	SubspaceRotationAdjust: set factor to 0.0208
ElecMinimize: Iter:  40  F: -2003.457242794992908  |grad|_K:  3.236e-05  alpha:  3.107e-01  linmin:  1.821e-04  t[s]:   1849.18
	FillingsUpdate:  mu: +0.138055396  nElectrons: 350.364350
	SubspaceRotationAdjust: set factor to 0.0217
ElecMinimize: Iter:  41  F: -2003.480307596194962  |grad|_K:  3.499e-05  alpha:  2.490e-01  linmin:  1.794e-04  t[s]:   1883.47
	FillingsUpdate:  mu: +0.146853075  nElectrons: 350.364350
	SubspaceRotationAdjust: set factor to 0.0299
ElecMinimize: Iter:  42  F: -2003.499351274202809  |grad|_K:  3.053e-05  alpha:  1.807e-01  linmin: -1.876e-04  t[s]:   1917.66
	FillingsUpdate:  mu: +0.150497123  nElectrons: 350.364350
	SubspaceRotationAdjust: set factor to 0.0321
ElecMinimize: Iter:  43  F: -2003.513311076477521  |grad|_K:  2.893e-05  alpha:  1.709e-01  linmin: -4.385e-04  t[s]:   1951.68
	FillingsUpdate:  mu: +0.147360805  nElectrons: 350.364350
	SubspaceRotationAdjust: set factor to 0.0419
ElecMinimize: Iter:  44  F: -2003.525701583342425  |grad|_K:  2.222e-05  alpha:  1.666e-01  linmin:  4.157e-04  t[s]:   1985.60
	FillingsUpdate:  mu: +0.147142243  nElectrons: 350.364350
	SubspaceRotationAdjust: set factor to 0.0396
ElecMinimize: Iter:  45  F: -2003.535020726353878  |grad|_K:  2.481e-05  alpha:  2.200e-01  linmin:  2.463e-04  t[s]:   2019.60
	FillingsUpdate:  mu: +0.144363771  nElectrons: 350.364350
	SubspaceRotationAdjust: set factor to 0.0423
ElecMinimize: Iter:  46  F: -2003.541776163438954  |grad|_K:  2.240e-05  alpha:  1.288e-01  linmin:  3.230e-04  t[s]:   2053.80
	FillingsUpdate:  mu: +0.144955087  nElectrons: 350.364350
	SubspaceRotationAdjust: set factor to 0.0555
ElecMinimize: Iter:  47  F: -2003.550029831339771  |grad|_K:  2.028e-05  alpha:  1.916e-01  linmin:  3.056e-04  t[s]:   2087.69
	FillingsUpdate:  mu: +0.144729299  nElectrons: 350.364350
	SubspaceRotationAdjust: set factor to 0.056
ElecMinimize: Iter:  48  F: -2003.558334728531690  |grad|_K:  2.453e-05  alpha:  2.355e-01  linmin:  2.130e-04  t[s]:   2121.81
	FillingsUpdate:  mu: +0.138410561  nElectrons: 350.364350
	SubspaceRotationAdjust: set factor to 0.0517
ElecMinimize: Iter:  49  F: -2003.563392782550409  |grad|_K:  2.432e-05  alpha:  9.667e-02  linmin: -1.688e-04  t[s]:   2155.90
	FillingsUpdate:  mu: +0.132130012  nElectrons: 350.364350
	SubspaceRotationAdjust: set factor to 0.0611
ElecMinimize: Iter:  50  F: -2003.571964993481288  |grad|_K:  2.249e-05  alpha:  1.666e-01  linmin:  3.100e-04  t[s]:   2190.15
	FillingsUpdate:  mu: +0.135952885  nElectrons: 350.364350
	SubspaceRotationAdjust: set factor to 0.0691
ElecMinimize: Iter:  51  F: -2003.580680501785764  |grad|_K:  2.706e-05  alpha:  2.038e-01  linmin:  3.484e-04  t[s]:   2224.78
	FillingsUpdate:  mu: +0.135047362  nElectrons: 350.364350
	SubspaceRotationAdjust: set factor to 0.0568
ElecMinimize: Iter:  52  F: -2003.586418098247577  |grad|_K:  2.850e-05  alpha:  1.003e-01  linmin:  3.326e-04  t[s]:   2259.12
	FillingsUpdate:  mu: +0.133151559  nElectrons: 350.364350
	SubspaceRotationAdjust: set factor to 0.0439
ElecMinimize: Iter:  53  F: -2003.594242837544243  |grad|_K:  2.819e-05  alpha:  1.163e-01  linmin:  8.196e-04  t[s]:   2293.32
	FillingsUpdate:  mu: +0.123224550  nElectrons: 350.364350
	SubspaceRotationAdjust: set factor to 0.0438
ElecMinimize: Iter:  54  F: -2003.601402494100739  |grad|_K:  2.438e-05  alpha:  1.124e-01  linmin:  2.931e-04  t[s]:   2327.53
	FillingsUpdate:  mu: +0.115303652  nElectrons: 350.364350
	SubspaceRotationAdjust: set factor to 0.0483
ElecMinimize: Iter:  55  F: -2003.608149408300278  |grad|_K:  2.809e-05  alpha:  1.365e-01  linmin:  6.090e-04  t[s]:   2362.32
	FillingsUpdate:  mu: +0.117717314  nElectrons: 350.364350
	SubspaceRotationAdjust: set factor to 0.0632
ElecMinimize: Iter:  56  F: -2003.613828839794451  |grad|_K:  2.510e-05  alpha:  8.963e-02  linmin: -2.145e-05  t[s]:   2397.42
	FillingsUpdate:  mu: +0.121143310  nElectrons: 350.364350
	SubspaceRotationAdjust: set factor to 0.067
ElecMinimize: Iter:  57  F: -2003.619333877749796  |grad|_K:  2.424e-05  alpha:  9.954e-02  linmin: -3.607e-04  t[s]:   2433.34
	FillingsUpdate:  mu: +0.123767979  nElectrons: 350.364350
	SubspaceRotationAdjust: set factor to 0.059
ElecMinimize: Iter:  58  F: -2003.623842768860413  |grad|_K:  2.260e-05  alpha:  8.497e-02  linmin:  9.947e-05  t[s]:   2469.04
	FillingsUpdate:  mu: +0.125392988  nElectrons: 350.364350
	SubspaceRotationAdjust: set factor to 0.071
ElecMinimize: Iter:  59  F: -2003.628998612628038  |grad|_K:  2.106e-05  alpha:  1.169e-01  linmin:  4.427e-05  t[s]:   2505.35
	FillingsUpdate:  mu: +0.122570266  nElectrons: 350.364350
	SubspaceRotationAdjust: set factor to 0.0773
ElecMinimize: Iter:  60  F: -2003.633393279176971  |grad|_K:  2.069e-05  alpha:  1.142e-01  linmin:  4.706e-05  t[s]:   2542.08
	FillingsUpdate:  mu: +0.117669301  nElectrons: 350.364350
	SubspaceRotationAdjust: set factor to 0.0746
ElecMinimize: Iter:  61  F: -2003.636571204394613  |grad|_K:  2.134e-05  alpha:  8.553e-02  linmin:  4.787e-05  t[s]:   2577.31
	FillingsUpdate:  mu: +0.119144221  nElectrons: 350.364350
	SubspaceRotationAdjust: set factor to 0.0898
ElecMinimize: Iter:  62  F: -2003.640250808455221  |grad|_K:  1.854e-05  alpha:  9.316e-02  linmin:  6.238e-05  t[s]:   2611.55
	FillingsUpdate:  mu: +0.122038079  nElectrons: 350.364350
	SubspaceRotationAdjust: set factor to 0.106
ElecMinimize: Iter:  63  F: -2003.643613337560510  |grad|_K:  1.778e-05  alpha:  1.130e-01  linmin:  1.351e-04  t[s]:   2645.59
	FillingsUpdate:  mu: +0.123410463  nElectrons: 350.364350
	SubspaceRotationAdjust: set factor to 0.104
ElecMinimize: Iter:  64  F: -2003.646689794369649  |grad|_K:  2.056e-05  alpha:  1.129e-01  linmin:  1.302e-04  t[s]:   2679.63
	FillingsUpdate:  mu: +0.122430975  nElectrons: 350.364350
	SubspaceRotationAdjust: set factor to 0.101
ElecMinimize: Iter:  65  F: -2003.648676172521846  |grad|_K:  1.914e-05  alpha:  5.464e-02  linmin:  6.782e-05  t[s]:   2713.70
	FillingsUpdate:  mu: +0.118964947  nElectrons: 350.364350
	SubspaceRotationAdjust: set factor to 0.108
ElecMinimize: Iter:  66  F: -2003.650934771522316  |grad|_K:  1.662e-05  alpha:  7.115e-02  linmin:  5.287e-05  t[s]:   2748.37
	FillingsUpdate:  mu: +0.120480742  nElectrons: 350.364350
	SubspaceRotationAdjust: set factor to 0.136
	SubspaceRotationAdjust: resetting CG because factor has changed by 8.17961
ElecMinimize: 	State modified externally: resetting search direction.
ElecMinimize: Iter:  67  F: -2003.653542942931153  |grad|_K:  1.636e-05  alpha:  1.091e-01
	FillingsUpdate:  mu: +0.131449048  nElectrons: 350.364350
	SubspaceRotationAdjust: set factor to 0.076
ElecMinimize: Iter:  68  F: -2003.657937074233814  |grad|_K:  3.439e-05  alpha:  1.889e-01  linmin:  4.719e-04  t[s]:   2834.83
	FillingsUpdate:  mu: +0.132868074  nElectrons: 350.364350
	SubspaceRotationAdjust: set factor to 0.051
ElecMinimize: Iter:  69  F: -2003.662007460406130  |grad|_K:  2.419e-05  alpha:  3.992e-02  linmin:  2.685e-04  t[s]:   2868.72
ElecMinimize: 	Predicted alpha/alphaT>3.000000, increasing alphaT to 1.197476e-01.
	FillingsUpdate:  mu: +0.120294637  nElectrons: 350.364350
	SubspaceRotationAdjust: set factor to 0.0482
ElecMinimize: Iter:  70  F: -2003.670680279903308  |grad|_K:  1.744e-05  alpha:  1.703e-01  linmin: -4.872e-04  t[s]:   2914.18
	FillingsUpdate:  mu: +0.121517512  nElectrons: 350.364350
	SubspaceRotationAdjust: set factor to 0.0312
ElecMinimize: Iter:  71  F: -2003.675744308920002  |grad|_K:  2.136e-05  alpha:  1.899e-01  linmin:  3.676e-04  t[s]:   2948.43
	FillingsUpdate:  mu: +0.124566778  nElectrons: 350.364350
	SubspaceRotationAdjust: set factor to 0.026
ElecMinimize: Iter:  72  F: -2003.678971334980361  |grad|_K:  1.140e-05  alpha:  8.145e-02  linmin: -1.520e-04  t[s]:   2982.39
	FillingsUpdate:  mu: +0.127653174  nElectrons: 350.364350
	SubspaceRotationAdjust: set factor to 0.0222
ElecMinimize: Iter:  73  F: -2003.681481305716716  |grad|_K:  9.841e-06  alpha:  2.210e-01  linmin: -8.076e-05  t[s]:   3016.68
	FillingsUpdate:  mu: +0.126341834  nElectrons: 350.364350
	SubspaceRotationAdjust: set factor to 0.0176
	SubspaceRotationAdjust: resetting CG because factor has changed by 0.128809
ElecMinimize: 	State modified externally: resetting search direction.
ElecMinimize: Iter:  74  F: -2003.682585025262142  |grad|_K:  6.983e-06  alpha:  1.307e-01
	FillingsUpdate:  mu: +0.124755876  nElectrons: 350.364350
	SubspaceRotationAdjust: set factor to 0.0241
ElecMinimize: Iter:  75  F: -2003.683402838184065  |grad|_K:  3.975e-06  alpha:  1.926e-01  linmin:  5.394e-05  t[s]:   3102.90
	FillingsUpdate:  mu: +0.124245352  nElectrons: 350.364350
	SubspaceRotationAdjust: set factor to 0.0211
ElecMinimize: Iter:  76  F: -2003.683861647510412  |grad|_K:  3.803e-06  alpha:  3.336e-01  linmin:  9.956e-07  t[s]:   3137.40
	FillingsUpdate:  mu: +0.124437489  nElectrons: 350.364350
	SubspaceRotationAdjust: set factor to 0.0177
ElecMinimize: Iter:  77  F: -2003.684310950456393  |grad|_K:  4.126e-06  alpha:  3.569e-01  linmin:  1.278e-05  t[s]:   3172.74
	FillingsUpdate:  mu: +0.125275026  nElectrons: 350.364350
	SubspaceRotationAdjust: set factor to 0.0151
ElecMinimize: Iter:  78  F: -2003.684711209011994  |grad|_K:  2.772e-06  alpha:  2.702e-01  linmin:  7.364e-06  t[s]:   3208.82
	FillingsUpdate:  mu: +0.125001802  nElectrons: 350.364350
	SubspaceRotationAdjust: set factor to 0.0151
ElecMinimize: Iter:  79  F: -2003.685106851769433  |grad|_K:  3.506e-06  alpha:  5.915e-01  linmin: -4.888e-06  t[s]:   3245.09
	FillingsUpdate:  mu: +0.125504292  nElectrons: 350.364350
	SubspaceRotationAdjust: set factor to 0.0149
ElecMinimize: Iter:  80  F: -2003.685650159108036  |grad|_K:  3.647e-06  alpha:  5.078e-01  linmin: -1.065e-05  t[s]:   3280.66
	FillingsUpdate:  mu: +0.126279646  nElectrons: 350.364350
	SubspaceRotationAdjust: set factor to 0.016
ElecMinimize: Iter:  81  F: -2003.686102869813112  |grad|_K:  3.300e-06  alpha:  3.909e-01  linmin: -2.324e-05  t[s]:   3316.98
	FillingsUpdate:  mu: +0.126908748  nElectrons: 350.364350
	SubspaceRotationAdjust: set factor to 0.0176
ElecMinimize: Iter:  82  F: -2003.686644493064932  |grad|_K:  3.713e-06  alpha:  5.709e-01  linmin: -7.398e-05  t[s]:   3353.47
	FillingsUpdate:  mu: +0.126621978  nElectrons: 350.364350
	SubspaceRotationAdjust: set factor to 0.0183
ElecMinimize: Iter:  83  F: -2003.687265062743791  |grad|_K:  3.763e-06  alpha:  5.160e-01  linmin: -1.391e-04  t[s]:   3389.22
	FillingsUpdate:  mu: +0.126324485  nElectrons: 350.364350
	SubspaceRotationAdjust: set factor to 0.0164
ElecMinimize: Iter:  84  F: -2003.687799262161661  |grad|_K:  3.927e-06  alpha:  4.307e-01  linmin: -9.795e-05  t[s]:   3425.65
	FillingsUpdate:  mu: +0.126555504  nElectrons: 350.364350
	SubspaceRotationAdjust: set factor to 0.0125
ElecMinimize: Iter:  85  F: -2003.688259331956715  |grad|_K:  4.140e-06  alpha:  3.417e-01  linmin: -1.106e-04  t[s]:   3461.77
	FillingsUpdate:  mu: +0.126436261  nElectrons: 350.364350
	SubspaceRotationAdjust: set factor to 0.0119
ElecMinimize: Iter:  86  F: -2003.688936193956806  |grad|_K:  3.829e-06  alpha:  4.514e-01  linmin: -8.140e-05  t[s]:   3498.23
	FillingsUpdate:  mu: +0.126642766  nElectrons: 350.364350
	SubspaceRotationAdjust: set factor to 0.0128
ElecMinimize: Iter:  87  F: -2003.689473643870542  |grad|_K:  3.615e-06  alpha:  4.196e-01  linmin: -4.954e-05  t[s]:   3534.93
	FillingsUpdate:  mu: +0.127218457  nElectrons: 350.364350
	SubspaceRotationAdjust: set factor to 0.0121
ElecMinimize: Iter:  88  F: -2003.689966998133514  |grad|_K:  3.357e-06  alpha:  4.326e-01  linmin: -4.947e-05  t[s]:   3571.36
	FillingsUpdate:  mu: +0.126953266  nElectrons: 350.364350
	SubspaceRotationAdjust: set factor to 0.011
ElecMinimize: Iter:  89  F: -2003.690319766923039  |grad|_K:  2.437e-06  alpha:  3.588e-01  linmin:  6.455e-05  t[s]:   3607.34
	FillingsUpdate:  mu: +0.127155824  nElectrons: 350.364350
	SubspaceRotationAdjust: set factor to 0.0122
ElecMinimize: Iter:  90  F: -2003.690506074920222  |grad|_K:  1.898e-06  alpha:  3.611e-01  linmin:  2.824e-05  t[s]:   3643.98
	FillingsUpdate:  mu: +0.127453452  nElectrons: 350.364350
	SubspaceRotationAdjust: set factor to 0.0131
ElecMinimize: Iter:  91  F: -2003.690628759053880  |grad|_K:  1.625e-06  alpha:  3.914e-01  linmin:  1.746e-05  t[s]:   3681.39
	FillingsUpdate:  mu: +0.127426940  nElectrons: 350.364350
	SubspaceRotationAdjust: set factor to 0.0132
ElecMinimize: Iter:  92  F: -2003.690712920359829  |grad|_K:  1.321e-06  alpha:  3.662e-01  linmin: -1.733e-06  t[s]:   3718.71
	FillingsUpdate:  mu: +0.127149822  nElectrons: 350.364350
	SubspaceRotationAdjust: set factor to 0.0141
ElecMinimize: Iter:  93  F: -2003.690776042762309  |grad|_K:  1.197e-06  alpha:  4.152e-01  linmin: -1.728e-05  t[s]:   3755.07
	FillingsUpdate:  mu: +0.126735278  nElectrons: 350.364350
	SubspaceRotationAdjust: set factor to 0.0156
ElecMinimize: Iter:  94  F: -2003.690835247322639  |grad|_K:  1.251e-06  alpha:  4.742e-01  linmin: -2.229e-05  t[s]:   3791.45
	FillingsUpdate:  mu: +0.126557894  nElectrons: 350.364350
	SubspaceRotationAdjust: set factor to 0.0172
ElecMinimize: Iter:  95  F: -2003.690894527949013  |grad|_K:  1.142e-06  alpha:  4.350e-01  linmin: -1.338e-05  t[s]:   3828.47
	FillingsUpdate:  mu: +0.126652782  nElectrons: 350.364350
	SubspaceRotationAdjust: set factor to 0.016
ElecMinimize: Iter:  96  F: -2003.690939455080070  |grad|_K:  1.125e-06  alpha:  3.952e-01  linmin:  3.668e-06  t[s]:   3865.00
	FillingsUpdate:  mu: +0.126448635  nElectrons: 350.364350
	SubspaceRotationAdjust: set factor to 0.0137
ElecMinimize: Iter:  97  F: -2003.690977992589296  |grad|_K:  1.056e-06  alpha:  3.499e-01  linmin: -1.022e-05  t[s]:   3901.50
	FillingsUpdate:  mu: +0.126190964  nElectrons: 350.364350
	SubspaceRotationAdjust: set factor to 0.0133
ElecMinimize: Iter:  98  F: -2003.691015608806538  |grad|_K:  9.296e-07  alpha:  3.875e-01  linmin: -7.336e-06  t[s]:   3937.95
	FillingsUpdate:  mu: +0.126015611  nElectrons: 350.364350
	SubspaceRotationAdjust: set factor to 0.0144
ElecMinimize: Iter:  99  F: -2003.691048283953478  |grad|_K:  8.810e-07  alpha:  4.342e-01  linmin: -1.527e-05  t[s]:   3974.34
	FillingsUpdate:  mu: +0.125965373  nElectrons: 350.364350
	SubspaceRotationAdjust: set factor to 0.0145
ElecMinimize: Iter: 100  F: -2003.691074141583613  |grad|_K:  7.792e-07  alpha:  3.824e-01  linmin: -2.264e-05  t[s]:   4010.77
	FillingsUpdate:  mu: +0.126033908  nElectrons: 350.364350
	SubspaceRotationAdjust: set factor to 0.0135
ElecMinimize: Iter: 101  F: -2003.691094210449137  |grad|_K:  7.022e-07  alpha:  3.792e-01  linmin: -3.110e-05  t[s]:   4047.16
	FillingsUpdate:  mu: +0.125964730  nElectrons: 350.364350
	SubspaceRotationAdjust: set factor to 0.0134
ElecMinimize: Iter: 102  F: -2003.691111573658645  |grad|_K:  6.422e-07  alpha:  4.038e-01  linmin: -4.267e-05  t[s]:   4084.14
	FillingsUpdate:  mu: +0.125946921  nElectrons: 350.364350
	SubspaceRotationAdjust: set factor to 0.0151
ElecMinimize: Iter: 103  F: -2003.691125823368793  |grad|_K:  5.753e-07  alpha:  3.960e-01  linmin: -5.053e-05  t[s]:   4120.63
	FillingsUpdate:  mu: +0.125962830  nElectrons: 350.364350
	SubspaceRotationAdjust: set factor to 0.0162
ElecMinimize: Iter: 104  F: -2003.691137805576545  |grad|_K:  5.645e-07  alpha:  4.147e-01  linmin: -4.906e-05  t[s]:   4155.89
	FillingsUpdate:  mu: +0.125917624  nElectrons: 350.364350
	SubspaceRotationAdjust: set factor to 0.0157
ElecMinimize: Iter: 105  F: -2003.691149438722960  |grad|_K:  5.728e-07  alpha:  4.181e-01  linmin: -4.730e-05  t[s]:   4190.90
	FillingsUpdate:  mu: +0.125980458  nElectrons: 350.364350
	SubspaceRotationAdjust: set factor to 0.015
ElecMinimize: Iter: 106  F: -2003.691160629114393  |grad|_K:  5.643e-07  alpha:  3.906e-01  linmin: -4.112e-05  t[s]:   4225.90
	FillingsUpdate:  mu: +0.126003573  nElectrons: 350.364350
	SubspaceRotationAdjust: set factor to 0.0156
ElecMinimize: Iter: 107  F: -2003.691172325192838  |grad|_K:  5.519e-07  alpha:  4.206e-01  linmin: -3.272e-05  t[s]:   4261.43
	FillingsUpdate:  mu: +0.126082565  nElectrons: 350.364350
	SubspaceRotationAdjust: set factor to 0.0168
ElecMinimize: Iter: 108  F: -2003.691184663016202  |grad|_K:  5.602e-07  alpha:  4.640e-01  linmin: -2.270e-05  t[s]:   4297.86
	FillingsUpdate:  mu: +0.126192575  nElectrons: 350.364350
	SubspaceRotationAdjust: set factor to 0.0166
ElecMinimize: Iter: 109  F: -2003.691196413322359  |grad|_K:  5.484e-07  alpha:  4.292e-01  linmin: -1.174e-05  t[s]:   4334.27
	FillingsUpdate:  mu: +0.126217106  nElectrons: 350.364350
	SubspaceRotationAdjust: set factor to 0.0139
ElecMinimize: Iter: 110  F: -2003.691205622658799  |grad|_K:  5.088e-07  alpha:  3.514e-01  linmin: -2.549e-06  t[s]:   4370.56
	FillingsUpdate:  mu: +0.126325856  nElectrons: 350.364350
	SubspaceRotationAdjust: set factor to 0.0118
ElecMinimize: Iter: 111  F: -2003.691213100355071  |grad|_K:  4.193e-07  alpha:  3.317e-01  linmin:  3.715e-06  t[s]:   4405.28
	FillingsUpdate:  mu: +0.126376793  nElectrons: 350.364350
	SubspaceRotationAdjust: set factor to 0.0125
ElecMinimize: Iter: 112  F: -2003.691218702570495  |grad|_K:  3.485e-07  alpha:  3.661e-01  linmin:  7.431e-06  t[s]:   4439.79
	FillingsUpdate:  mu: +0.126397355  nElectrons: 350.364350
	SubspaceRotationAdjust: set factor to 0.0124
ElecMinimize: Iter: 113  F: -2003.691222478599002  |grad|_K:  2.893e-07  alpha:  3.574e-01  linmin:  5.456e-06  t[s]:   4474.34
	FillingsUpdate:  mu: +0.126439103  nElectrons: 350.364350
	SubspaceRotationAdjust: set factor to 0.0111
ElecMinimize: Iter: 114  F: -2003.691225147196292  |grad|_K:  2.358e-07  alpha:  3.663e-01  linmin:  5.542e-06  t[s]:   4509.79
	FillingsUpdate:  mu: +0.126450547  nElectrons: 350.364350
	SubspaceRotationAdjust: set factor to 0.0116
ElecMinimize: Iter: 115  F: -2003.691226874568883  |grad|_K:  1.897e-07  alpha:  3.569e-01  linmin: -1.361e-06  t[s]:   4545.64
	FillingsUpdate:  mu: +0.126460262  nElectrons: 350.364350
	SubspaceRotationAdjust: set factor to 0.0123
ElecMinimize: Iter: 116  F: -2003.691227970716909  |grad|_K:  1.547e-07  alpha:  3.498e-01  linmin: -5.325e-06  t[s]:   4581.56
	FillingsUpdate:  mu: +0.126470999  nElectrons: 350.364350
	SubspaceRotationAdjust: set factor to 0.0123
ElecMinimize: Iter: 117  F: -2003.691228732953050  |grad|_K:  1.268e-07  alpha:  3.657e-01  linmin: -3.775e-06  t[s]:   4617.93
	FillingsUpdate:  mu: +0.126461130  nElectrons: 350.364350
	SubspaceRotationAdjust: set factor to 0.0135
ElecMinimize: Iter: 118  F: -2003.691229262355819  |grad|_K:  1.077e-07  alpha:  3.779e-01  linmin: -1.287e-05  t[s]:   4655.38
	FillingsUpdate:  mu: +0.126459020  nElectrons: 350.364350
	SubspaceRotationAdjust: set factor to 0.0158
ElecMinimize: Iter: 119  F: -2003.691229660453700  |grad|_K:  1.010e-07  alpha:  3.936e-01  linmin: -3.572e-06  t[s]:   4691.97
	FillingsUpdate:  mu: +0.126462562  nElectrons: 350.364350
	SubspaceRotationAdjust: set factor to 0.0171
ElecMinimize: Iter: 120  F: -2003.691230038514277  |grad|_K:  1.045e-07  alpha:  4.257e-01  linmin: -5.072e-06  t[s]:   4728.25
	FillingsUpdate:  mu: +0.126444995  nElectrons: 350.364350
	SubspaceRotationAdjust: set factor to 0.0171
ElecMinimize: Iter: 121  F: -2003.691230430766609  |grad|_K:  1.116e-07  alpha:  4.124e-01  linmin: -9.701e-07  t[s]:   4764.32
	FillingsUpdate:  mu: +0.126436910  nElectrons: 350.364350
	SubspaceRotationAdjust: set factor to 0.017
ElecMinimize: Iter: 122  F: -2003.691230902323468  |grad|_K:  1.212e-07  alpha:  4.348e-01  linmin: -4.419e-06  t[s]:   4800.90
	FillingsUpdate:  mu: +0.126415116  nElectrons: 350.364350
	SubspaceRotationAdjust: set factor to 0.0176
ElecMinimize: Iter: 123  F: -2003.691231510561011  |grad|_K:  1.338e-07  alpha:  4.751e-01  linmin: -1.476e-06  t[s]:   4837.34
	FillingsUpdate:  mu: +0.126395857  nElectrons: 350.364350
	SubspaceRotationAdjust: set factor to 0.0184
ElecMinimize: Iter: 124  F: -2003.691232253877160  |grad|_K:  1.417e-07  alpha:  4.771e-01  linmin:  3.615e-07  t[s]:   4873.82
	FillingsUpdate:  mu: +0.126367886  nElectrons: 350.364350
	SubspaceRotationAdjust: set factor to 0.0188
ElecMinimize: Iter: 125  F: -2003.691233049800303  |grad|_K:  1.402e-07  alpha:  4.555e-01  linmin:  1.309e-06  t[s]:   4910.14
	FillingsUpdate:  mu: +0.126331043  nElectrons: 350.364350
	SubspaceRotationAdjust: set factor to 0.0177
ElecMinimize: Iter: 126  F: -2003.691233727645567  |grad|_K:  1.350e-07  alpha:  3.959e-01  linmin:  3.897e-08  t[s]:   4946.43
	FillingsUpdate:  mu: +0.126327874  nElectrons: 350.364350
	SubspaceRotationAdjust: set factor to 0.0147
ElecMinimize: Iter: 127  F: -2003.691234223337688  |grad|_K:  1.214e-07  alpha:  3.123e-01  linmin: -5.401e-07  t[s]:   4982.41
	FillingsUpdate:  mu: +0.126312384  nElectrons: 350.364350
	SubspaceRotationAdjust: set factor to 0.013
ElecMinimize: Iter: 128  F: -2003.691234633551858  |grad|_K:  1.001e-07  alpha:  3.196e-01  linmin:  1.115e-06  t[s]:   5018.81
	FillingsUpdate:  mu: +0.126307085  nElectrons: 350.364350
	SubspaceRotationAdjust: set factor to 0.0144
ElecMinimize: Iter: 129  F: -2003.691234938319894  |grad|_K:  8.342e-08  alpha:  3.494e-01  linmin: -2.314e-06  t[s]:   5055.21
	FillingsUpdate:  mu: +0.126302707  nElectrons: 350.364350
	SubspaceRotationAdjust: set factor to 0.0153
ElecMinimize: Iter: 130  F: -2003.691235148538453  |grad|_K:  7.117e-08  alpha:  3.470e-01  linmin: -2.730e-06  t[s]:   5091.35
	FillingsUpdate:  mu: +0.126294020  nElectrons: 350.364350
	SubspaceRotationAdjust: set factor to 0.0151
ElecMinimize: Iter: 131  F: -2003.691235300401559  |grad|_K:  6.248e-08  alpha:  3.441e-01  linmin: -2.793e-06  t[s]:   5127.78
	FillingsUpdate:  mu: +0.126299243  nElectrons: 350.364350
	SubspaceRotationAdjust: set factor to 0.0165
ElecMinimize: Iter: 132  F: -2003.691235423560329  |grad|_K:  5.702e-08  alpha:  3.628e-01  linmin:  1.341e-05  t[s]:   5164.33
	FillingsUpdate:  mu: +0.126302534  nElectrons: 350.364350
	SubspaceRotationAdjust: set factor to 0.0196
ElecMinimize: Iter: 133  F: -2003.691235535943406  |grad|_K:  5.436e-08  alpha:  3.971e-01  linmin:  3.403e-07  t[s]:   5200.70
	FillingsUpdate:  mu: +0.126300719  nElectrons: 350.364350
	SubspaceRotationAdjust: set factor to 0.0207
ElecMinimize: Iter: 134  F: -2003.691235642560287  |grad|_K:  5.887e-08  alpha:  4.131e-01  linmin: -8.332e-06  t[s]:   5236.96
	FillingsUpdate:  mu: +0.126307483  nElectrons: 350.364350
	SubspaceRotationAdjust: set factor to 0.0181
ElecMinimize: Iter: 135  F: -2003.691235738826890  |grad|_K:  6.187e-08  alpha:  3.179e-01  linmin: -6.844e-06  t[s]:   5273.01
	FillingsUpdate:  mu: +0.126306254  nElectrons: 350.364350
	SubspaceRotationAdjust: set factor to 0.0168
ElecMinimize: Iter: 136  F: -2003.691235848049246  |grad|_K:  5.708e-08  alpha:  3.266e-01  linmin: -4.344e-06  t[s]:   5309.28
	FillingsUpdate:  mu: +0.126313723  nElectrons: 350.364350
	SubspaceRotationAdjust: set factor to 0.0181
ElecMinimize: Iter: 137  F: -2003.691235961334087  |grad|_K:  5.369e-08  alpha:  3.987e-01  linmin: -4.606e-06  t[s]:   5345.49
	FillingsUpdate:  mu: +0.126320500  nElectrons: 350.364350
	SubspaceRotationAdjust: set factor to 0.0188
ElecMinimize: Iter: 138  F: -2003.691236062859844  |grad|_K:  5.190e-08  alpha:  4.035e-01  linmin:  9.727e-06  t[s]:   5382.14
	FillingsUpdate:  mu: +0.126318646  nElectrons: 350.364350
	SubspaceRotationAdjust: set factor to 0.0166
ElecMinimize: Iter: 139  F: -2003.691236141488162  |grad|_K:  4.953e-08  alpha:  3.370e-01  linmin: -3.851e-06  t[s]:   5418.25
	FillingsUpdate:  mu: +0.126323461  nElectrons: 350.364350
	SubspaceRotationAdjust: set factor to 0.0139
ElecMinimize: Iter: 140  F: -2003.691236204047527  |grad|_K:  4.266e-08  alpha:  2.930e-01  linmin:  6.587e-06  t[s]:   5454.82
	FillingsUpdate:  mu: +0.126322731  nElectrons: 350.364350
	SubspaceRotationAdjust: set factor to 0.0148
ElecMinimize: Iter: 141  F: -2003.691236258260005  |grad|_K:  3.543e-08  alpha:  3.433e-01  linmin:  1.060e-05  t[s]:   5491.43
	FillingsUpdate:  mu: +0.126322243  nElectrons: 350.364350
	SubspaceRotationAdjust: set factor to 0.0159
ElecMinimize: Iter: 142  F: -2003.691236296924671  |grad|_K:  3.083e-08  alpha:  3.539e-01  linmin:  9.745e-06  t[s]:   5528.00
	FillingsUpdate:  mu: +0.126324590  nElectrons: 350.364350
	SubspaceRotationAdjust: set factor to 0.015
ElecMinimize: Iter: 143  F: -2003.691236323483054  |grad|_K:  2.670e-08  alpha:  3.208e-01  linmin: -3.819e-05  t[s]:   5564.17
ElecMinimize: Converged (|Delta F|<1.000000e-07 for 5 iters).
Setting wave functions to eigenvectors of Hamiltonian

# Ionic positions in lattice coordinates:
ion mix1   0.000000000000000   0.000000000000000   0.150000000000000 0
ion mix2   0.500000000000000   0.000000000000000   0.150000000000000 0
ion mix3   0.000000000000000   0.500000000000000   0.150000000000000 0
ion mix4   0.500000000000000   0.500000000000000   0.150000000000000 0
ion mix5   0.250000000000000   0.250000000000000   0.050000000000000 0
ion mix6   0.250000000000000   0.750000000000000   0.050000000000000 0
ion mix7  -0.250000000000000   0.250000000000000   0.050000000000000 0
ion mix8  -0.250000000000000   0.750000000000000   0.050000000000000 0
ion mix9   0.000000000000000   0.000000000000000  -0.050000000000000 0
ion mix10   0.500000000000000   0.000000000000000  -0.050000000000000 0
ion mix11   0.000000000000000   0.500000000000000  -0.050000000000000 0
ion mix12   0.500000000000000   0.500000000000000  -0.050000000000000 0
ion mix13   0.250000000000000   0.250000000000000  -0.150000000000000 0
ion mix14   0.250000000000000   0.750000000000000  -0.150000000000000 0
ion mix15  -0.250000000000000   0.250000000000000  -0.150000000000000 0
ion mix16  -0.250000000000000   0.750000000000000  -0.150000000000000 0
ion O   0.250000000000000   0.250000000000000   0.150000000000000 0
ion O   0.250000000000000   0.750000000000000   0.150000000000000 0
ion O  -0.250000000000000   0.250000000000000   0.150000000000000 0
ion O  -0.250000000000000   0.750000000000000   0.150000000000000 0
ion O   0.000000000000000   0.000000000000000   0.050000000000000 0
ion O   0.500000000000000   0.000000000000000   0.050000000000000 0
ion O   0.000000000000000   0.500000000000000   0.050000000000000 0
ion O   0.500000000000000   0.500000000000000   0.050000000000000 0
ion O   0.250000000000000   0.250000000000000  -0.050000000000000 0
ion O   0.250000000000000   0.750000000000000  -0.050000000000000 0
ion O  -0.250000000000000   0.250000000000000  -0.050000000000000 0
ion O  -0.250000000000000   0.750000000000000  -0.050000000000000 0
ion O   0.000000000000000   0.000000000000000  -0.150000000000000 0
ion O   0.500000000000000   0.000000000000000  -0.150000000000000 0
ion O   0.000000000000000   0.500000000000000  -0.150000000000000 0
ion O   0.500000000000000   0.500000000000000  -0.150000000000000 0
ion O   0.000000000000000   0.000000000000000   0.230000000000000 1

# Forces in Lattice coordinates:
force mix1  -0.004172815900598  -0.005557375393337   2.653121014877350 0
force mix2  -0.000913226720433   0.000653790669517  -0.708875190000562 0
force mix3   0.000701301600627  -0.001182459430463  -0.632090670034138 0
force mix4   0.000049926376741   0.000298088434337  -0.743189532446136 0
force mix5   0.027047859171153   0.024641744598751   0.392442578141232 0
force mix6   0.028857918851279  -0.025395035136860   0.406965234534618 0
force mix7  -0.028219997026977   0.026020046038257   0.389190586592187 0
force mix8  -0.029230198036508  -0.026198085858435   0.413501929521922 0
force mix9  -0.001074913265229  -0.004060564738323  -0.434081941471731 0
force mix10   0.000539373973977  -0.003328905645097  -0.368548226307795 0
force mix11  -0.001156496092236   0.002639437422392  -0.342678579529850 0
force mix12   0.001159765030017   0.003299211353985  -0.312529519249730 0
force mix13   0.008906946105915   0.008382569598672   0.751658012943496 0
force mix14   0.008988282311928  -0.008399870223167   0.732227108025882 0
force mix15  -0.008548689559971   0.008281101088707   0.680490045677241 0
force mix16  -0.009341988821144  -0.009081177928364   0.728974812397212 0
force O   0.067677031041911   0.065572057896001  -0.776637115347476 0
force O   0.066226400881376  -0.063857009720234  -0.776620632214101 0
force O  -0.066079918524668   0.064529806557228  -0.773782759329920 0
force O  -0.064996226481823  -0.063067164755875  -0.776697241258404 0
force O   0.001678903429733   0.002016712067952  -0.294009696819671 0
force O   0.000313381325951   0.000496513570645   0.171957220099699 0
force O   0.000072394165821   0.000631356463794   0.148449891396647 0
force O   0.000146805888111   0.000067643832265   0.035404660190327 0
force O  -0.009679185378262  -0.009545496288726  -0.047212999080542 0
force O  -0.009830000124007   0.009778524260848  -0.038322008935802 0
force O   0.009844500948733  -0.009670901691103  -0.018265296115871 0
force O   0.010080571269281   0.009990980869532  -0.056364715585849 0
force O   0.000611101620866  -0.000649991570108   0.524243988699810 0
force O  -0.000653150289612  -0.000851892072080   0.373777260394821 0
force O   0.000722741706358   0.000925243703883   0.364599130798412 0
force O  -0.000778878436135   0.001338007767039   0.325918457160061 0
force O   0.000894790378924   0.001120200534852  -2.047981742022216 1

# Energy components:
   Eewald =     5716.9650615557175115
       EH =     7514.9256833126173660
     Eloc =   -15392.7106522508292983
      Enl =     -519.9915422094013593
   Epulay =       -0.0004678469331923
      Exc =     -245.7178555625785634
       KE =      922.8515974947085851
-------------------------------------
     Etot =    -2003.6781755066990627
       TS =        0.0130608167840972
-------------------------------------
        F =    -2003.6912363234830536

IonicMinimize: Iter:   0  F: -2003.691236323483054  |grad|_K:  2.905e-02  t[s]:   5605.63

-------- Electronic minimization -----------
	FillingsUpdate:  mu: +0.119287695  nElectrons: 350.364350
ElecMinimize: Iter:   0  F: -2003.614855700916223  |grad|_K:  6.313e-05  alpha:  1.000e+00
	FillingsUpdate:  mu: +0.122022793  nElectrons: 350.364350
	SubspaceRotationAdjust: set factor to 0.0149
ElecMinimize: Iter:   1  F: -2003.684640624563144  |grad|_K:  1.890e-05  alpha:  2.092e-01  linmin:  8.934e-02  t[s]:   5664.97
	FillingsUpdate:  mu: +0.123492409  nElectrons: 350.364350
	SubspaceRotationAdjust: set factor to 0.0135
ElecMinimize: Iter:   2  F: -2003.691817151414853  |grad|_K:  5.581e-06  alpha:  2.398e-01  linmin: -6.638e-03  t[s]:   5700.94
	FillingsUpdate:  mu: +0.125701370  nElectrons: 350.364350
	SubspaceRotationAdjust: set factor to 0.00991
ElecMinimize: Iter:   3  F: -2003.692795969719782  |grad|_K:  3.929e-06  alpha:  3.598e-01  linmin: -1.081e-03  t[s]:   5736.41
	FillingsUpdate:  mu: +0.125486810  nElectrons: 350.364350
	SubspaceRotationAdjust: set factor to 0.00657
ElecMinimize: Iter:   4  F: -2003.693091287140760  |grad|_K:  1.794e-06  alpha:  2.194e-01  linmin: -3.333e-04  t[s]:   5772.58
	FillingsUpdate:  mu: +0.125888318  nElectrons: 350.364350
	SubspaceRotationAdjust: set factor to 0.00855
ElecMinimize: Iter:   5  F: -2003.693217450596194  |grad|_K:  1.117e-06  alpha:  4.499e-01  linmin: -2.868e-04  t[s]:   5808.72
	FillingsUpdate:  mu: +0.126128094  nElectrons: 350.364350
	SubspaceRotationAdjust: set factor to 0.00882
ElecMinimize: Iter:   6  F: -2003.693258116644756  |grad|_K:  8.360e-07  alpha:  3.740e-01  linmin: -2.280e-04  t[s]:   5844.81
	FillingsUpdate:  mu: +0.126228689  nElectrons: 350.364350
	SubspaceRotationAdjust: set factor to 0.0111
ElecMinimize: Iter:   7  F: -2003.693282791307638  |grad|_K:  6.286e-07  alpha:  4.052e-01  linmin: -2.602e-04  t[s]:   5881.38
	FillingsUpdate:  mu: +0.126302961  nElectrons: 350.364350
	SubspaceRotationAdjust: set factor to 0.0131
ElecMinimize: Iter:   8  F: -2003.693301546449220  |grad|_K:  6.244e-07  alpha:  5.444e-01  linmin: -1.399e-04  t[s]:   5916.67
	FillingsUpdate:  mu: +0.126510596  nElectrons: 350.364350
	SubspaceRotationAdjust: set factor to 0.0138
ElecMinimize: Iter:   9  F: -2003.693319662761951  |grad|_K:  7.038e-07  alpha:  5.331e-01  linmin: -5.583e-05  t[s]:   5951.17
	FillingsUpdate:  mu: +0.126658769  nElectrons: 350.364350
	SubspaceRotationAdjust: set factor to 0.0142
ElecMinimize: Iter:  10  F: -2003.693341795166816  |grad|_K:  7.322e-07  alpha:  5.129e-01  linmin: -4.555e-05  t[s]:   5985.60
	FillingsUpdate:  mu: +0.126941130  nElectrons: 350.364350
	SubspaceRotationAdjust: set factor to 0.0145
ElecMinimize: Iter:  11  F: -2003.693368480471008  |grad|_K:  7.452e-07  alpha:  5.712e-01  linmin:  3.168e-06  t[s]:   6019.68
	FillingsUpdate:  mu: +0.127143007  nElectrons: 350.364350
	SubspaceRotationAdjust: set factor to 0.0147
ElecMinimize: Iter:  12  F: -2003.693394564913206  |grad|_K:  7.314e-07  alpha:  5.397e-01  linmin: -1.260e-05  t[s]:   6054.02
	FillingsUpdate:  mu: +0.127335844  nElectrons: 350.364350
	SubspaceRotationAdjust: set factor to 0.0149
ElecMinimize: Iter:  13  F: -2003.693414231382803  |grad|_K:  6.377e-07  alpha:  4.221e-01  linmin:  1.583e-06  t[s]:   6088.32
	FillingsUpdate:  mu: +0.127398851  nElectrons: 350.364350
	SubspaceRotationAdjust: set factor to 0.015
ElecMinimize: Iter:  14  F: -2003.693429594721465  |grad|_K:  5.468e-07  alpha:  4.340e-01  linmin: -1.645e-05  t[s]:   6122.92
	FillingsUpdate:  mu: +0.127474913  nElectrons: 350.364350
	SubspaceRotationAdjust: set factor to 0.015
ElecMinimize: Iter:  15  F: -2003.693440239428810  |grad|_K:  4.663e-07  alpha:  4.087e-01  linmin: -1.858e-06  t[s]:   6157.50
	FillingsUpdate:  mu: +0.127450089  nElectrons: 350.364350
	SubspaceRotationAdjust: set factor to 0.0148
ElecMinimize: Iter:  16  F: -2003.693448347745061  |grad|_K:  4.318e-07  alpha:  4.283e-01  linmin: -9.584e-06  t[s]:   6191.73
	FillingsUpdate:  mu: +0.127487252  nElectrons: 350.364350
	SubspaceRotationAdjust: set factor to 0.0151
ElecMinimize: Iter:  17  F: -2003.693455009037734  |grad|_K:  4.201e-07  alpha:  4.103e-01  linmin: -1.212e-06  t[s]:   6226.36
	FillingsUpdate:  mu: +0.127451153  nElectrons: 350.364350
	SubspaceRotationAdjust: set factor to 0.0164
ElecMinimize: Iter:  18  F: -2003.693462664964045  |grad|_K:  4.357e-07  alpha:  4.983e-01  linmin: -2.288e-06  t[s]:   6260.96
	FillingsUpdate:  mu: +0.127450146  nElectrons: 350.364350
	SubspaceRotationAdjust: set factor to 0.0177
ElecMinimize: Iter:  19  F: -2003.693472557644554  |grad|_K:  4.916e-07  alpha:  5.985e-01  linmin:  2.935e-07  t[s]:   6295.12
	FillingsUpdate:  mu: +0.127377543  nElectrons: 350.364350
	SubspaceRotationAdjust: set factor to 0.0179
ElecMinimize: Iter:  20  F: -2003.693485450182152  |grad|_K:  6.012e-07  alpha:  6.129e-01  linmin: -6.154e-06  t[s]:   6329.60
	FillingsUpdate:  mu: +0.127383191  nElectrons: 350.364350
	SubspaceRotationAdjust: set factor to 0.0157
ElecMinimize: Iter:  21  F: -2003.693499135601314  |grad|_K:  6.699e-07  alpha:  4.345e-01  linmin:  6.225e-07  t[s]:   6363.85
	FillingsUpdate:  mu: +0.127249435  nElectrons: 350.364350
	SubspaceRotationAdjust: set factor to 0.0124
ElecMinimize: Iter:  22  F: -2003.693514310287355  |grad|_K:  6.661e-07  alpha:  3.886e-01  linmin: -9.647e-06  t[s]:   6398.28
	FillingsUpdate:  mu: +0.127223564  nElectrons: 350.364350
	SubspaceRotationAdjust: set factor to 0.0112
ElecMinimize: Iter:  23  F: -2003.693529534300296  |grad|_K:  5.898e-07  alpha:  3.936e-01  linmin:  3.505e-06  t[s]:   6432.79
	FillingsUpdate:  mu: +0.127165880  nElectrons: 350.364350
	SubspaceRotationAdjust: set factor to 0.0117
ElecMinimize: Iter:  24  F: -2003.693541986168157  |grad|_K:  5.103e-07  alpha:  4.113e-01  linmin: -3.720e-06  t[s]:   6467.40
	FillingsUpdate:  mu: +0.127109188  nElectrons: 350.364350
	SubspaceRotationAdjust: set factor to 0.011
ElecMinimize: Iter:  25  F: -2003.693549979956060  |grad|_K:  3.984e-07  alpha:  3.526e-01  linmin: -2.516e-06  t[s]:   6501.86
	FillingsUpdate:  mu: +0.127113161  nElectrons: 350.364350
	SubspaceRotationAdjust: set factor to 0.0101
ElecMinimize: Iter:  26  F: -2003.693555051088197  |grad|_K:  2.957e-07  alpha:  3.669e-01  linmin:  3.303e-06  t[s]:   6536.36
	FillingsUpdate:  mu: +0.127093673  nElectrons: 350.364350
	SubspaceRotationAdjust: set factor to 0.0105
ElecMinimize: Iter:  27  F: -2003.693557889290105  |grad|_K:  2.259e-07  alpha:  3.729e-01  linmin:  2.269e-06  t[s]:   6571.00
	FillingsUpdate:  mu: +0.127079868  nElectrons: 350.364350
	SubspaceRotationAdjust: set factor to 0.0107
ElecMinimize: Iter:  28  F: -2003.693559458994969  |grad|_K:  1.703e-07  alpha:  3.534e-01  linmin:  1.809e-08  t[s]:   6605.32
	FillingsUpdate:  mu: +0.127086641  nElectrons: 350.364350
	SubspaceRotationAdjust: set factor to 0.0108
ElecMinimize: Iter:  29  F: -2003.693560398590535  |grad|_K:  1.316e-07  alpha:  3.721e-01  linmin:  1.172e-06  t[s]:   6639.38
	FillingsUpdate:  mu: +0.127087075  nElectrons: 350.364350
	SubspaceRotationAdjust: set factor to 0.0121
ElecMinimize: Iter:  30  F: -2003.693560958821763  |grad|_K:  1.071e-07  alpha:  3.717e-01  linmin:  4.760e-07  t[s]:   6673.89
	FillingsUpdate:  mu: +0.127088866  nElectrons: 350.364350
	SubspaceRotationAdjust: set factor to 0.0138
ElecMinimize: Iter:  31  F: -2003.693561328118221  |grad|_K:  8.927e-08  alpha:  3.695e-01  linmin:  1.118e-05  t[s]:   6708.44
	FillingsUpdate:  mu: +0.127099529  nElectrons: 350.364350
	SubspaceRotationAdjust: set factor to 0.0155
ElecMinimize: Iter:  32  F: -2003.693561611462883  |grad|_K:  7.832e-08  alpha:  4.085e-01  linmin: -3.048e-05  t[s]:   6743.09
	FillingsUpdate:  mu: +0.127104642  nElectrons: 350.364350
	SubspaceRotationAdjust: set factor to 0.0173
ElecMinimize: Iter:  33  F: -2003.693561845813292  |grad|_K:  7.573e-08  alpha:  4.384e-01  linmin:  1.941e-05  t[s]:   6778.53
	FillingsUpdate:  mu: +0.127121889  nElectrons: 350.364350
	SubspaceRotationAdjust: set factor to 0.0192
ElecMinimize: Iter:  34  F: -2003.693562056682822  |grad|_K:  7.496e-08  alpha:  4.230e-01  linmin: -1.810e-06  t[s]:   6813.69
	FillingsUpdate:  mu: +0.127136064  nElectrons: 350.364350
	SubspaceRotationAdjust: set factor to 0.0213
ElecMinimize: Iter:  35  F: -2003.693562265888431  |grad|_K:  7.293e-08  alpha:  4.272e-01  linmin:  2.633e-05  t[s]:   6848.28
	FillingsUpdate:  mu: +0.127158807  nElectrons: 350.364350
	SubspaceRotationAdjust: set factor to 0.0226
ElecMinimize: Iter:  36  F: -2003.693562483681717  |grad|_K:  7.025e-08  alpha:  4.706e-01  linmin: -3.694e-05  t[s]:   6882.54
	FillingsUpdate:  mu: +0.127172449  nElectrons: 350.364350
	SubspaceRotationAdjust: set factor to 0.0213
ElecMinimize: Iter:  37  F: -2003.693562663354442  |grad|_K:  7.491e-08  alpha:  4.180e-01  linmin:  1.394e-05  t[s]:   6916.90
	FillingsUpdate:  mu: +0.127192419  nElectrons: 350.364350
	SubspaceRotationAdjust: set factor to 0.016
ElecMinimize: Iter:  38  F: -2003.693562783702646  |grad|_K:  6.829e-08  alpha:  2.462e-01  linmin: -5.590e-06  t[s]:   6951.38
	FillingsUpdate:  mu: +0.127199961  nElectrons: 350.364350
	SubspaceRotationAdjust: set factor to 0.0141
ElecMinimize: Iter:  39  F: -2003.693562902396025  |grad|_K:  5.515e-08  alpha:  2.920e-01  linmin: -5.848e-05  t[s]:   6985.93
	FillingsUpdate:  mu: +0.127209147  nElectrons: 350.364350
	SubspaceRotationAdjust: set factor to 0.0157
ElecMinimize: Iter:  40  F: -2003.693562997302934  |grad|_K:  4.686e-08  alpha:  3.580e-01  linmin:  5.658e-05  t[s]:   7020.28
	FillingsUpdate:  mu: +0.127217742  nElectrons: 350.364350
	SubspaceRotationAdjust: set factor to 0.0156
ElecMinimize: Iter:  41  F: -2003.693563064203317  |grad|_K:  4.044e-08  alpha:  3.505e-01  linmin:  3.746e-05  t[s]:   7054.27
	FillingsUpdate:  mu: +0.127218077  nElectrons: 350.364350
	SubspaceRotationAdjust: set factor to 0.0143
ElecMinimize: Iter:  42  F: -2003.693563108711260  |grad|_K:  3.490e-08  alpha:  3.123e-01  linmin: -9.512e-05  t[s]:   7088.69
	FillingsUpdate:  mu: +0.127222262  nElectrons: 350.364350
	SubspaceRotationAdjust: set factor to 0.0166
ElecMinimize: Iter:  43  F: -2003.693563145919597  |grad|_K:  2.916e-08  alpha:  3.515e-01  linmin: -1.412e-05  t[s]:   7123.07
	FillingsUpdate:  mu: +0.127223992  nElectrons: 350.364350
	SubspaceRotationAdjust: set factor to 0.0201
ElecMinimize: Iter:  44  F: -2003.693563175461122  |grad|_K:  2.820e-08  alpha:  3.976e-01  linmin: -3.097e-05  t[s]:   7157.37
ElecMinimize: Converged (|Delta F|<1.000000e-07 for 5 iters).
Setting wave functions to eigenvectors of Hamiltonian

# Ionic positions in lattice coordinates:
ion mix1   0.000000000000000   0.000000000000000   0.150000000000000 0
ion mix2   0.500000000000000   0.000000000000000   0.150000000000000 0
ion mix3   0.000000000000000   0.500000000000000   0.150000000000000 0
ion mix4   0.500000000000000   0.500000000000000   0.150000000000000 0
ion mix5   0.250000000000000   0.250000000000000   0.050000000000000 0
ion mix6   0.250000000000000   0.750000000000000   0.050000000000000 0
ion mix7  -0.250000000000000   0.250000000000000   0.050000000000000 0
ion mix8  -0.250000000000000   0.750000000000000   0.050000000000000 0
ion mix9   0.000000000000000   0.000000000000000  -0.050000000000000 0
ion mix10   0.500000000000000   0.000000000000000  -0.050000000000000 0
ion mix11   0.000000000000000   0.500000000000000  -0.050000000000000 0
ion mix12   0.500000000000000   0.500000000000000  -0.050000000000000 0
ion mix13   0.250000000000000   0.250000000000000  -0.150000000000000 0
ion mix14   0.250000000000000   0.750000000000000  -0.150000000000000 0
ion mix15  -0.250000000000000   0.250000000000000  -0.150000000000000 0
ion mix16  -0.250000000000000   0.750000000000000  -0.150000000000000 0
ion O   0.250000000000000   0.250000000000000   0.150000000000000 0
ion O   0.250000000000000   0.750000000000000   0.150000000000000 0
ion O  -0.250000000000000   0.250000000000000   0.150000000000000 0
ion O  -0.250000000000000   0.750000000000000   0.150000000000000 0
ion O   0.000000000000000   0.000000000000000   0.050000000000000 0
ion O   0.500000000000000   0.000000000000000   0.050000000000000 0
ion O   0.000000000000000   0.500000000000000   0.050000000000000 0
ion O   0.500000000000000   0.500000000000000   0.050000000000000 0
ion O   0.250000000000000   0.250000000000000  -0.050000000000000 0
ion O   0.250000000000000   0.750000000000000  -0.050000000000000 0
ion O  -0.250000000000000   0.250000000000000  -0.050000000000000 0
ion O  -0.250000000000000   0.750000000000000  -0.050000000000000 0
ion O   0.000000000000000   0.000000000000000  -0.150000000000000 0
ion O   0.500000000000000   0.000000000000000  -0.150000000000000 0
ion O   0.000000000000000   0.500000000000000  -0.150000000000000 0
ion O   0.500000000000000   0.500000000000000  -0.150000000000000 0
ion O   0.000006752156510   0.000008453118755   0.228763661874190 1

# Forces in Lattice coordinates:
force mix1  -0.004194541744280  -0.005568166332484   2.281875769832942 0
force mix2  -0.000941571267761   0.000678315552101  -0.714852824386033 0
force mix3   0.000714301446424  -0.001234681769038  -0.638000796996401 0
force mix4   0.000067736869917   0.000302721301961  -0.749089169258264 0
force mix5   0.027467662829320   0.025011993815646   0.391609379662234 0
force mix6   0.029284459183605  -0.025784657281809   0.406098374186316 0
force mix7  -0.028650820267528   0.026422650631524   0.388308161840341 0
force mix8  -0.029663613016464  -0.026605045446220   0.412693379917684 0
force mix9  -0.001088919563170  -0.004072680733343  -0.432904136021248 0
force mix10   0.000552804183992  -0.003342952964163  -0.366900561671092 0
force mix11  -0.001174620421936   0.002642767021089  -0.341084782345187 0
force mix12   0.001177443318180   0.003299653379315  -0.312975457881753 0
force mix13   0.008957277213395   0.008385257778776   0.753137721642012 0
force mix14   0.009046041921247  -0.008414152086849   0.733832044805688 0
force mix15  -0.008610171721326   0.008296460446469   0.681961458621602 0
force mix16  -0.009402293924643  -0.009099541738922   0.730475365732575 0
force O   0.070197972441845   0.068029048254102  -0.775610051369156 0
force O   0.068706169514843  -0.066269752372949  -0.775544519235449 0
force O  -0.068553506538649   0.066970324969667  -0.772642398346317 0
force O  -0.067466693041251  -0.065515960667088  -0.775629315025496 0
force O   0.001672865846696   0.002099804624552  -0.291403348224058 0
force O   0.000336548397311   0.000556810808271   0.169303711585951 0
force O   0.000141257715670   0.000650769578334   0.146110037148054 0
force O   0.000182343645754   0.000102341569074   0.032198508022355 0
force O  -0.009605794296227  -0.009447018782572  -0.046122184140015 0
force O  -0.009786263081300   0.009716810381366  -0.037238061179861 0
force O   0.009781623063225  -0.009598485325867  -0.016866280567735 0
force O   0.010045051112836   0.009909841259523  -0.055104984441639 0
force O   0.000598879683083  -0.000656505130965   0.523502015679677 0
force O  -0.000644869980813  -0.000850615478230   0.372100657898068 0
force O   0.000712222787144   0.000923863724575   0.363241887668080 0
force O  -0.000775741534582   0.001328217924260   0.325778329403644 0
[...]
	SubspaceRotationAdjust: set factor to 0.0159
ElecMinimize: Iter:   4  F: -2003.696989134238038  |grad|_K:  8.319e-08  alpha:  1.512e-01  linmin:  1.812e-05  t[s]:  18951.76
	FillingsUpdate:  mu: +0.129955131  nElectrons: 350.364350
	SubspaceRotationAdjust: set factor to 0.0194
ElecMinimize: Iter:   5  F: -2003.696989290665442  |grad|_K:  5.056e-08  alpha:  2.591e-01  linmin: -1.191e-03  t[s]:  18989.12
	FillingsUpdate:  mu: +0.129950838  nElectrons: 350.364350
	SubspaceRotationAdjust: set factor to 0.019
ElecMinimize: Iter:   6  F: -2003.696989371297150  |grad|_K:  4.377e-08  alpha:  3.607e-01  linmin: -3.860e-04  t[s]:  19025.87
	FillingsUpdate:  mu: +0.129954493  nElectrons: 350.364350
	SubspaceRotationAdjust: set factor to 0.0134
ElecMinimize: Iter:   7  F: -2003.696989405950490  |grad|_K:  3.374e-08  alpha:  2.081e-01  linmin:  6.069e-04  t[s]:  19062.25
	FillingsUpdate:  mu: +0.129952351  nElectrons: 350.364350
	SubspaceRotationAdjust: set factor to 0.015
ElecMinimize: Iter:   8  F: -2003.696989435975183  |grad|_K:  2.371e-08  alpha:  3.032e-01  linmin: -1.375e-04  t[s]:  19098.80
	FillingsUpdate:  mu: +0.129951671  nElectrons: 350.364350
	SubspaceRotationAdjust: set factor to 0.0169
ElecMinimize: Iter:   9  F: -2003.696989453544575  |grad|_K:  2.087e-08  alpha:  3.620e-01  linmin:  3.108e-03  t[s]:  19134.90
	FillingsUpdate:  mu: +0.129954088  nElectrons: 350.364350
	SubspaceRotationAdjust: set factor to 0.0145
ElecMinimize: Iter:  10  F: -2003.696989465033539  |grad|_K:  1.841e-08  alpha:  3.070e-01  linmin: -7.722e-04  t[s]:  19171.21
ElecMinimize: Converged (|Delta F|<1.000000e-07 for 5 iters).
Setting wave functions to eigenvectors of Hamiltonian
IonicMinimize: 	Undoing step.

-------- Electronic minimization -----------
	FillingsUpdate:  mu: +0.130540163  nElectrons: 350.364350
ElecMinimize: Iter:   0  F: -2003.696758493427069  |grad|_K:  4.569e-06  alpha:  1.000e+00
	FillingsUpdate:  mu: +0.129909957  nElectrons: 350.364350
	SubspaceRotationAdjust: set factor to 0.0358
ElecMinimize: Iter:   1  F: -2003.696984185881092  |grad|_K:  3.763e-07  alpha:  1.248e-01  linmin:  1.648e-02  t[s]:  19271.54
	FillingsUpdate:  mu: +0.129923835  nElectrons: 350.364350
	SubspaceRotationAdjust: set factor to 0.0407
ElecMinimize: Iter:   2  F: -2003.696987552463042  |grad|_K:  1.684e-07  alpha:  2.742e-01  linmin:  4.445e-04  t[s]:  19307.30
	FillingsUpdate:  mu: +0.129944363  nElectrons: 350.364350
	SubspaceRotationAdjust: set factor to 0.0281
ElecMinimize: Iter:   3  F: -2003.696988126004726  |grad|_K:  2.130e-07  alpha:  2.324e-01  linmin:  1.987e-04  t[s]:  19343.91
	FillingsUpdate:  mu: +0.129932963  nElectrons: 350.364350
	SubspaceRotationAdjust: set factor to 0.0176
ElecMinimize: Iter:   4  F: -2003.696988528611882  |grad|_K:  1.043e-07  alpha:  1.020e-01  linmin: -2.660e-05  t[s]:  19379.74
ElecMinimize: 	Predicted alpha/alphaT>3.000000, increasing alphaT to 3.058973e-01.
	FillingsUpdate:  mu: +0.129936919  nElectrons: 350.364350
	SubspaceRotationAdjust: set factor to 0.024
ElecMinimize: Iter:   5  F: -2003.696988898202790  |grad|_K:  7.882e-08  alpha:  3.900e-01  linmin:  9.395e-05  t[s]:  19428.61
	FillingsUpdate:  mu: +0.129946444  nElectrons: 350.364350
	SubspaceRotationAdjust: set factor to 0.0191
ElecMinimize: Iter:   6  F: -2003.696989054756386  |grad|_K:  7.574e-08  alpha:  2.896e-01  linmin: -7.466e-05  t[s]:  19464.86
	FillingsUpdate:  mu: +0.129940062  nElectrons: 350.364350
	SubspaceRotationAdjust: set factor to 0.0136
ElecMinimize: Iter:   7  F: -2003.696989148804505  |grad|_K:  4.991e-08  alpha:  1.885e-01  linmin:  3.929e-05  t[s]:  19501.36
	FillingsUpdate:  mu: +0.129941849  nElectrons: 350.364350
	SubspaceRotationAdjust: set factor to 0.016
ElecMinimize: Iter:   8  F: -2003.696989236502986  |grad|_K:  4.009e-08  alpha:  4.062e-01  linmin:  1.548e-03  t[s]:  19537.86
	FillingsUpdate:  mu: +0.129943472  nElectrons: 350.364350
	SubspaceRotationAdjust: set factor to 0.0179
ElecMinimize: Iter:   9  F: -2003.696989294123114  |grad|_K:  3.665e-08  alpha:  4.146e-01  linmin: -6.260e-04  t[s]:  19574.74
	FillingsUpdate:  mu: +0.129939663  nElectrons: 350.364350
	SubspaceRotationAdjust: set factor to 0.0152
ElecMinimize: Iter:  10  F: -2003.696989336937349  |grad|_K:  3.639e-08  alpha:  3.632e-01  linmin: -1.422e-04  t[s]:  19610.99
	FillingsUpdate:  mu: +0.129944019  nElectrons: 350.364350
	SubspaceRotationAdjust: set factor to 0.0125
ElecMinimize: Iter:  11  F: -2003.696989373544511  |grad|_K:  3.256e-08  alpha:  3.183e-01  linmin:  8.091e-05  t[s]:  19647.38
ElecMinimize: Converged (|Delta F|<1.000000e-07 for 5 iters).
Setting wave functions to eigenvectors of Hamiltonian
IonicMinimize: 	Step failed: resetting history.

# Ionic positions in lattice coordinates:
ion mix1   0.000000000000000   0.000000000000000   0.150000000000000 0
ion mix2   0.500000000000000   0.000000000000000   0.150000000000000 0
ion mix3   0.000000000000000   0.500000000000000   0.150000000000000 0
ion mix4   0.500000000000000   0.500000000000000   0.150000000000000 0
ion mix5   0.250000000000000   0.250000000000000   0.050000000000000 0
ion mix6   0.250000000000000   0.750000000000000   0.050000000000000 0
ion mix7  -0.250000000000000   0.250000000000000   0.050000000000000 0
ion mix8  -0.250000000000000   0.750000000000000   0.050000000000000 0
ion mix9   0.000000000000000   0.000000000000000  -0.050000000000000 0
ion mix10   0.500000000000000   0.000000000000000  -0.050000000000000 0
ion mix11   0.000000000000000   0.500000000000000  -0.050000000000000 0
ion mix12   0.500000000000000   0.500000000000000  -0.050000000000000 0
ion mix13   0.250000000000000   0.250000000000000  -0.150000000000000 0
ion mix14   0.250000000000000   0.750000000000000  -0.150000000000000 0
ion mix15  -0.250000000000000   0.250000000000000  -0.150000000000000 0
ion mix16  -0.250000000000000   0.750000000000000  -0.150000000000000 0
ion O   0.250000000000000   0.250000000000000   0.150000000000000 0
ion O   0.250000000000000   0.750000000000000   0.150000000000000 0
ion O  -0.250000000000000   0.250000000000000   0.150000000000000 0
ion O  -0.250000000000000   0.750000000000000   0.150000000000000 0
ion O   0.000000000000000   0.000000000000000   0.050000000000000 0
ion O   0.500000000000000   0.000000000000000   0.050000000000000 0
ion O   0.000000000000000   0.500000000000000   0.050000000000000 0
ion O   0.500000000000000   0.500000000000000   0.050000000000000 0
ion O   0.250000000000000   0.250000000000000  -0.050000000000000 0
ion O   0.250000000000000   0.750000000000000  -0.050000000000000 0
ion O  -0.250000000000000   0.250000000000000  -0.050000000000000 0
ion O  -0.250000000000000   0.750000000000000  -0.050000000000000 0
ion O   0.000000000000000   0.000000000000000  -0.150000000000000 0
ion O   0.500000000000000   0.000000000000000  -0.150000000000000 0
ion O   0.000000000000000   0.500000000000000  -0.150000000000000 0
ion O   0.500000000000000   0.500000000000000  -0.150000000000000 0
ion O   0.000153455950872   0.000195170575528   0.225117897618139 1

# Forces in Lattice coordinates:
force mix1  -0.004288601703316  -0.005656924138850   0.732444371752515 0
force mix2  -0.001071467213982   0.000772532611638  -0.736309378288541 0
force mix3   0.000782697861780  -0.001395893393454  -0.658363110742482 0
force mix4   0.000112547267220   0.000368650232326  -0.767162308224214 0
force mix5   0.029280994036405   0.026819361740418   0.389315270889233 0
force mix6   0.031172161628658  -0.027690512609637   0.402054072898354 0
force mix7  -0.030556820931697   0.028294165946945   0.384871178543921 0
force mix8  -0.031569163227728  -0.028504765525930   0.407805683667642 0
force mix9  -0.001111245965719  -0.004110133853844  -0.431969637035058 0
force mix10   0.000548175689985  -0.003333994869050  -0.359924451116271 0
force mix11  -0.001178659762670   0.002635836519053  -0.333825595299955 0
force mix12   0.001178547455188   0.003284920761026  -0.313173913908807 0
force mix13   0.009318413582180   0.008700706717632   0.756334315995259 0
force mix14   0.009425272670018  -0.008748968623108   0.736697055383642 0
force mix15  -0.008980222701165   0.008620974145797   0.684854710732103 0
force mix16  -0.009790200284785  -0.009442224305481   0.733192186094676 0
force O   0.079179519009359   0.077142569965284  -0.777306371100476 0
force O   0.077440401211601  -0.075033267845003  -0.775618286148688 0
force O  -0.077292232379936   0.075878612445087  -0.773149910371092 0
force O  -0.075942223702883  -0.074084797840045  -0.774288422267478 0
force O   0.001728245565990   0.002121474574631  -0.311199310623723 0
force O   0.000346993361281   0.000565285870255   0.160193958446207 0
force O   0.000149472365898   0.000698736282341   0.137040955481723 0
force O   0.000225938619187   0.000140536997625   0.031820278557205 0
force O  -0.009711409967962  -0.009600843083617  -0.050255127008963 0
force O  -0.009877026165130   0.009802827857638  -0.040814294948843 0
force O   0.009864471518903  -0.009740864697334  -0.020908549519068 0
force O   0.010091556526523   0.009987650166899  -0.058208293375624 0
force O   0.000583872623559  -0.000671774779401   0.519497395611335 0
force O  -0.000629948279592  -0.000862645492546   0.366183580010350 0
force O   0.000703603286673   0.000958512414981   0.356866807194663 0
force O  -0.000756148126952   0.001356751386489   0.323355689669459 0
force O   0.001382075101104   0.001721087415521   0.008844786803532 1

# Energy components:
   Eewald =     5728.0231662533851704
       EH =     7526.9722362006905314
     Eloc =   -15415.9017083338003431
      Enl =     -519.9958316666869678
   Epulay =       -0.0004678469331923
      Exc =     -245.7614181019354191
       KE =      922.9799778142073592
-------------------------------------
     Etot =    -2003.6840456810737123
       TS =        0.0129436924708300
-------------------------------------
        F =    -2003.6969893735445112

IonicMinimize: Iter:   7  F: -2003.696989373544511  |grad|_K:  1.673e-04  alpha:  2.689e-19  t[s]:  19689.23

-------- Electronic minimization -----------
	FillingsUpdate:  mu: +0.131165714  nElectrons: 350.364350
ElecMinimize: Iter:   0  F: -2003.696452936795822  |grad|_K:  6.507e-06  alpha:  1.000e+00
	FillingsUpdate:  mu: +0.130001428  nElectrons: 350.364350
	SubspaceRotationAdjust: set factor to 0.0294
ElecMinimize: Iter:   1  F: -2003.696974155964199  |grad|_K:  6.551e-07  alpha:  1.422e-01  linmin:  1.835e-02  t[s]:  19748.29
	FillingsUpdate:  mu: +0.129985442  nElectrons: 350.364350
	SubspaceRotationAdjust: set factor to 0.0333
ElecMinimize: Iter:   2  F: -2003.696984345899409  |grad|_K:  2.837e-07  alpha:  2.742e-01  linmin: -3.071e-04  t[s]:  19784.99
	FillingsUpdate:  mu: +0.129995477  nElectrons: 350.364350
	SubspaceRotationAdjust: set factor to 0.0255
ElecMinimize: Iter:   3  F: -2003.696986190392863  |grad|_K:  3.074e-07  alpha:  2.632e-01  linmin:  1.875e-05  t[s]:  19821.34
	FillingsUpdate:  mu: +0.129960994  nElectrons: 350.364350
	SubspaceRotationAdjust: set factor to 0.0154
ElecMinimize: Iter:   4  F: -2003.696987130876096  |grad|_K:  1.699e-07  alpha:  1.143e-01  linmin:  3.515e-06  t[s]:  19857.57
ElecMinimize: 	Predicted alpha/alphaT>3.000000, increasing alphaT to 3.429341e-01.
	FillingsUpdate:  mu: +0.129961386  nElectrons: 350.364350
	SubspaceRotationAdjust: set factor to 0.0218
ElecMinimize: Iter:   5  F: -2003.696988022921232  |grad|_K:  1.172e-07  alpha:  3.550e-01  linmin: -2.713e-05  t[s]:  19906.96
	FillingsUpdate:  mu: +0.129971536  nElectrons: 350.364350
	SubspaceRotationAdjust: set factor to 0.0188
ElecMinimize: Iter:   6  F: -2003.696988411165876  |grad|_K:  1.080e-07  alpha:  3.250e-01  linmin:  1.634e-05  t[s]:  19943.23
	FillingsUpdate:  mu: +0.129958378  nElectrons: 350.364350
	SubspaceRotationAdjust: set factor to 0.0135
ElecMinimize: Iter:   7  F: -2003.696988620417642  |grad|_K:  7.964e-08  alpha:  2.062e-01  linmin:  1.398e-06  t[s]:  19979.65
	FillingsUpdate:  mu: +0.129960039  nElectrons: 350.364350
	SubspaceRotationAdjust: set factor to 0.0155
ElecMinimize: Iter:   8  F: -2003.696988832798752  |grad|_K:  6.322e-08  alpha:  3.847e-01  linmin:  2.570e-04  t[s]:  20015.19
	FillingsUpdate:  mu: +0.129961756  nElectrons: 350.364350
	SubspaceRotationAdjust: set factor to 0.0177
ElecMinimize: Iter:   9  F: -2003.696988977593264  |grad|_K:  5.809e-08  alpha:  4.165e-01  linmin: -2.646e-05  t[s]:  20051.10
	FillingsUpdate:  mu: +0.129954204  nElectrons: 350.364350
	SubspaceRotationAdjust: set factor to 0.0154
ElecMinimize: Iter:  10  F: -2003.696989083371591  |grad|_K:  5.685e-08  alpha:  3.605e-01  linmin: -3.808e-05  t[s]:  20087.51
	FillingsUpdate:  mu: +0.129958069  nElectrons: 350.364350
	SubspaceRotationAdjust: set factor to 0.0128
ElecMinimize: Iter:  11  F: -2003.696989174040027  |grad|_K:  5.181e-08  alpha:  3.224e-01  linmin:  1.822e-04  t[s]:  20123.30
	FillingsUpdate:  mu: +0.129952800  nElectrons: 350.364350
	SubspaceRotationAdjust: set factor to 0.0144
ElecMinimize: Iter:  12  F: -2003.696989285785776  |grad|_K:  5.012e-08  alpha:  4.787e-01  linmin: -7.218e-05  t[s]:  20159.26
	FillingsUpdate:  mu: +0.129948083  nElectrons: 350.364350
	SubspaceRotationAdjust: set factor to 0.0146
ElecMinimize: Iter:  13  F: -2003.696989381885714  |grad|_K:  4.592e-08  alpha:  4.402e-01  linmin:  3.706e-05  t[s]:  20196.16
	FillingsUpdate:  mu: +0.129950940  nElectrons: 350.364350
	SubspaceRotationAdjust: set factor to 0.0121
ElecMinimize: Iter:  14  F: -2003.696989446622638  |grad|_K:  3.954e-08  alpha:  3.532e-01  linmin:  4.312e-04  t[s]:  20232.24
	FillingsUpdate:  mu: +0.129946062  nElectrons: 350.364350
	SubspaceRotationAdjust: set factor to 0.00996
ElecMinimize: Iter:  15  F: -2003.696989495080061  |grad|_K:  3.148e-08  alpha:  3.574e-01  linmin: -7.514e-05  t[s]:  20268.54
	FillingsUpdate:  mu: +0.129945871  nElectrons: 350.364350
	SubspaceRotationAdjust: set factor to 0.0107
ElecMinimize: Iter:  16  F: -2003.696989527765709  |grad|_K:  2.540e-08  alpha:  3.783e-01  linmin:  6.653e-04  t[s]:  20304.91
	FillingsUpdate:  mu: +0.129946472  nElectrons: 350.364350
	SubspaceRotationAdjust: set factor to 0.0105
ElecMinimize: Iter:  17  F: -2003.696989546862596  |grad|_K:  1.927e-08  alpha:  3.463e-01  linmin:  3.742e-04  t[s]:  20340.74
ElecMinimize: Converged (|Delta F|<1.000000e-07 for 5 iters).
Setting wave functions to eigenvectors of Hamiltonian

# Ionic positions in lattice coordinates:
ion mix1   0.000000000000000   0.000000000000000   0.150000000000000 0
ion mix2   0.500000000000000   0.000000000000000   0.150000000000000 0
ion mix3   0.000000000000000   0.500000000000000   0.150000000000000 0
ion mix4   0.500000000000000   0.500000000000000   0.150000000000000 0
ion mix5   0.250000000000000   0.250000000000000   0.050000000000000 0
ion mix6   0.250000000000000   0.750000000000000   0.050000000000000 0
ion mix7  -0.250000000000000   0.250000000000000   0.050000000000000 0
ion mix8  -0.250000000000000   0.750000000000000   0.050000000000000 0
ion mix9   0.000000000000000   0.000000000000000  -0.050000000000000 0
ion mix10   0.500000000000000   0.000000000000000  -0.050000000000000 0
ion mix11   0.000000000000000   0.500000000000000  -0.050000000000000 0
ion mix12   0.500000000000000   0.500000000000000  -0.050000000000000 0
ion mix13   0.250000000000000   0.250000000000000  -0.150000000000000 0
ion mix14   0.250000000000000   0.750000000000000  -0.150000000000000 0
ion mix15  -0.250000000000000   0.250000000000000  -0.150000000000000 0
ion mix16  -0.250000000000000   0.750000000000000  -0.150000000000000 0
ion O   0.250000000000000   0.250000000000000   0.150000000000000 0
ion O   0.250000000000000   0.750000000000000   0.150000000000000 0
ion O  -0.250000000000000   0.250000000000000   0.150000000000000 0
ion O  -0.250000000000000   0.750000000000000   0.150000000000000 0
ion O   0.000000000000000   0.000000000000000   0.050000000000000 0
ion O   0.500000000000000   0.000000000000000   0.050000000000000 0
ion O   0.000000000000000   0.500000000000000   0.050000000000000 0
ion O   0.500000000000000   0.500000000000000   0.050000000000000 0
ion O   0.250000000000000   0.250000000000000  -0.050000000000000 0
ion O   0.250000000000000   0.750000000000000  -0.050000000000000 0
ion O  -0.250000000000000   0.250000000000000  -0.050000000000000 0
ion O  -0.250000000000000   0.750000000000000  -0.050000000000000 0
ion O   0.000000000000000   0.000000000000000  -0.150000000000000 0
ion O   0.500000000000000   0.000000000000000  -0.150000000000000 0
ion O   0.000000000000000   0.500000000000000  -0.150000000000000 0
ion O   0.500000000000000   0.500000000000000  -0.150000000000000 0
ion O   0.000163885195095   0.000208158032557   0.225123237093055 1

# Forces in Lattice coordinates:
force mix1  -0.004224774678642  -0.005582308104927   0.738579904090835 0
force mix2  -0.001073265536229   0.000777322162707  -0.737421588170408 0
force mix3   0.000790794441026  -0.001397421131691  -0.659374129774942 0
force mix4   0.000106298277764   0.000366035566643  -0.768551279931135 0
force mix5   0.029247889116170   0.026770458611707   0.385194189555351 0
force mix6   0.031120807555562  -0.027624220940137   0.399358304198826 0
force mix7  -0.030517302766127   0.028230687783361   0.381708111894972 0
force mix8  -0.031512346637638  -0.028428264746499   0.405636945491863 0
force mix9  -0.001102662058965  -0.004103688214152  -0.434598581688862 0
force mix10   0.000540943469428  -0.003325780116185  -0.362112461322637 0
force mix11  -0.001165044795372   0.002632014325126  -0.336402007707711 0
force mix12   0.001170371164837   0.003274129463253  -0.317130366893494 0
force mix13   0.009309556786496   0.008682750520614   0.755414562846894 0
force mix14   0.009421226415764  -0.008737479290715   0.735790200841326 0
force mix15  -0.008979424941052   0.008604755602946   0.683932770521954 0
force mix16  -0.009783370378147  -0.009425779471437   0.732299952963062 0
force O   0.078490063850152   0.076458775612243  -0.773717278333653 0
force O   0.076551465313953  -0.074301224143012  -0.772433028046613 0
force O  -0.076546596292408   0.075033895750029  -0.769875104425033 0
force O  -0.075024136888393  -0.073209165512434  -0.771454337578003 0
force O   0.001734567547121   0.002131157903325  -0.307637098237186 0
force O   0.000359009297403   0.000487867776544   0.161865563268617 0
force O   0.000083088235357   0.000684927897508   0.137784131459594 0
force O   0.000194210669511   0.000119945468244   0.023830412635496 0
force O  -0.009743479772453  -0.009588072228565  -0.046915399173423 0
force O  -0.009882493821110   0.009818654351939  -0.037356695967884 0
force O   0.009920071025798  -0.009700416169077  -0.017178557965674 0
force O   0.010114387616627   0.009968362768692  -0.054611559575663 0
force O   0.000599292805259  -0.000649965866990   0.524607982772233 0
force O  -0.000631307900985  -0.000856777798975   0.367986657366648 0
force O   0.000708862804832   0.000946617056754   0.359199902190660 0
force O  -0.000769100095071   0.001346981202025   0.324150716443256 0
force O   0.000184018904326   0.000226022002017  -0.000214671617400 1

# Energy components:
   Eewald =     5728.0109003734223734
       EH =     7526.9620474276844106
     Eloc =   -15415.8792164329643128
      Enl =     -519.9959237997918535
   Epulay =       -0.0004678469331923
      Exc =     -245.7614198956398184
       KE =      922.9800367836611485
-------------------------------------
     Etot =    -2003.6840433905613281
       TS =        0.0129461563011649
-------------------------------------
        F =    -2003.6969895468625964

IonicMinimize: Iter:   8  F: -2003.696989546862596  |grad|_K:  1.493e-05  alpha:  1.000e+00  linmin: -1.714e-04  t[s]:  20382.67
IonicMinimize: Converged (|grad|_K<1.000000e-04).

Dumping 'O.fillings' ... mpirun: Forwarding signal 18 to job
slurmstepd-node3305: error: *** JOB 43766 ON node3305 CANCELLED AT 2025-05-02T14:20:49 ***
