/var/spool/slurmd/job44401/slurm_script: line 9: module: command not found
/var/spool/slurmd/job44401/slurm_script: line 10: module: command not found

*************** JDFTx 1.7.0  ***************

Start date and time: Sun May 18 10:36:49 2025
Executable /data2/jt577/jdftx_eat_withLibXC/build/jdftx with command-line: -i /data2/jt577/May_2025/Relax_Mag_litU/rel8+1_6/OH/runs/calc_/run.in
Running on hosts (process indices):  node3214 (0-8)
Divided in process groups (process indices):  0 (0)  1 (1)  2 (2)  3 (3)  4 (4)  5 (5)  6 (6)  7 (7)  8 (8)
Resource initialization completed at t[s]:      0.00
Run totals: 9 processes, 36 threads, 0 GPUs


Input parsed successfully to the following command list (including defaults):

add-mix 
add-U 	Ni d 0.235196 \
	V d 0.113923 \
	Cr d 0.128623 \
	Co d 0.121273
basis kpoint-dependent
coords-type Lattice
core-overlap-check vector
coulomb-interaction Periodic
davidson-band-ratio 1.1
dump End IonicPositions Lattice Ecomponents
dump-name run.$VAR
elec-cutoff 30
elec-eigen-algo Davidson
elec-ex-corr gga-x-rpbe gga-c-pbe
elec-smearing Fermi 0.001
electronic-minimize  \
	dirUpdateScheme      FletcherReeves \
	linminMethod         DirUpdateRecommended \
	nIterations          1000 \
	history              15 \
	knormThreshold       0 \
	energyDiffThreshold  1e-06 \
	nEnergyDiff          5 \
	alphaTstart          1 \
	alphaTmin            1e-10 \
	updateTestStepSize   yes \
	alphaTreduceFactor   0.1 \
	alphaTincreaseFactor 3 \
	nAlphaAdjustMax      3 \
	wolfeEnergy          0.0001 \
	wolfeGradient        0.9 \
	fdTest               no
exchange-regularization WignerSeitzTruncated
fluid None
fluid-ex-corr (null) lda-PZ
fluid-gummel-loop 10 1.000000e-05
fluid-minimize  \
	dirUpdateScheme      PolakRibiere \
	linminMethod         DirUpdateRecommended \
	nIterations          100 \
	history              15 \
	knormThreshold       0 \
	energyDiffThreshold  0 \
	nEnergyDiff          2 \
	alphaTstart          1 \
	alphaTmin            1e-10 \
	updateTestStepSize   yes \
	alphaTreduceFactor   0.1 \
	alphaTincreaseFactor 3 \
	nAlphaAdjustMax      3 \
	wolfeEnergy          0.0001 \
	wolfeGradient        0.9 \
	fdTest               no
fluid-solvent H2O 55.338 ScalarEOS \
	epsBulk 78.4 \
	pMol 0.92466 \
	epsInf 1.77 \
	Pvap 1.06736e-10 \
	sigmaBulk 4.62e-05 \
	Rvdw 2.61727 \
	Res 1.42 \
	tauNuc 343133 \
	poleEl 15 7 1
forces-output-coords Positions
initial-magnetic-moments  \
	Ni 1 -1 -1 1 1 \
	V -1 1 -1 1 -1 \
	Cr 1 -1 1 \
	Co -1 1 -1
initial-state run.$VAR
ion Ni  0.000000000000000   0.000000000000000   0.150000000000000 1
ion Ni -0.250000000000000   0.250000000000000   0.050000000000000 1
ion Ni  0.000000000000000   0.000000000000000  -0.050000000000000 0
ion Ni  0.500000000000000   0.000000000000000  -0.050000000000000 0
ion Ni -0.250000000000000   0.250000000000000  -0.150000000000000 0
ion V  0.500000000000000   0.000000000000000   0.150000000000000 1
ion V  0.000000000000000   0.500000000000000   0.150000000000000 1
ion V  0.500000000000000   0.500000000000000   0.150000000000000 1
ion V  0.250000000000000   0.750000000000000   0.050000000000000 1
ion V  0.250000000000000   0.750000000000000  -0.150000000000000 0
ion Cr  0.250000000000000   0.250000000000000   0.050000000000000 1
ion Cr  0.000000000000000   0.500000000000000  -0.050000000000000 0
ion Cr -0.250000000000000   0.750000000000000  -0.150000000000000 0
ion Co -0.250000000000000   0.750000000000000   0.050000000000000 1
ion Co  0.500000000000000   0.500000000000000  -0.050000000000000 0
ion Co  0.250000000000000   0.250000000000000  -0.150000000000000 0
ion O  0.250000000000000   0.250000000000000   0.150000000000000 1
ion O  0.250000000000000   0.750000000000000   0.150000000000000 1
ion O -0.250000000000000   0.250000000000000   0.150000000000000 1
ion O -0.250000000000000   0.750000000000000   0.150000000000000 1
ion O  0.000000000000000   0.000000000000000   0.050000000000000 1
ion O  0.500000000000000   0.000000000000000   0.050000000000000 1
ion O  0.000000000000000   0.500000000000000   0.050000000000000 1
ion O  0.500000000000000   0.500000000000000   0.050000000000000 1
ion O  0.250000000000000   0.250000000000000  -0.050000000000000 0
ion O  0.250000000000000   0.750000000000000  -0.050000000000000 0
ion O -0.250000000000000   0.250000000000000  -0.050000000000000 0
ion O -0.250000000000000   0.750000000000000  -0.050000000000000 0
ion O  0.000000000000000   0.000000000000000  -0.150000000000000 0
ion O  0.500000000000000   0.000000000000000  -0.150000000000000 0
ion O  0.000000000000000   0.500000000000000  -0.150000000000000 0
ion O  0.500000000000000   0.500000000000000  -0.150000000000000 0
ion O -0.008040138212305  -0.008269777577920   0.235000196603227 1
ion H  0.095742872057713   0.094897636790041   0.252810710255288 1
ion-species SG15/$ID_ONCV_PBE.upf
ion-width 0
ionic-minimize  \
	dirUpdateScheme      L-BFGS \
	linminMethod         DirUpdateRecommended \
	nIterations          1000 \
	history              15 \
	knormThreshold       0.0001 \
	energyDiffThreshold  0.0001 \
	nEnergyDiff          3 \
	alphaTstart          1 \
	alphaTmin            1e-10 \
	updateTestStepSize   yes \
	alphaTreduceFactor   0.1 \
	alphaTincreaseFactor 3 \
	nAlphaAdjustMax      3 \
	wolfeEnergy          0.0001 \
	wolfeGradient        0.9 \
	fdTest               no
kpoint   0.500000000000   0.500000000000   0.500000000000  1.00000000000000
kpoint-folding 3 3 1 
latt-move-scale 1 1 1
latt-scale 1 1 1 
lattice  \
	   8.140000000000001    8.140000000000001    0.000000000000000  \
	   8.140000000000001   -8.140000000000001    0.000000000000000  \
	   0.000000000000000    0.000000000000000   40.700000000000003 
lattice-minimize  \
	dirUpdateScheme      L-BFGS \
	linminMethod         DirUpdateRecommended \
	nIterations          0 \
	history              15 \
	knormThreshold       0 \
	energyDiffThreshold  1e-06 \
	nEnergyDiff          2 \
	alphaTstart          1 \
	alphaTmin            1e-10 \
	updateTestStepSize   yes \
	alphaTreduceFactor   0.1 \
	alphaTincreaseFactor 3 \
	nAlphaAdjustMax      3 \
	wolfeEnergy          0.0001 \
	wolfeGradient        0.9 \
	fdTest               no
lcao-params -1 1e-06 0.001
pcm-variant GLSSA13
spintype z-spin
subspace-rotation-factor 1 yes
symmetries none
symmetry-threshold 0.0001


Applied RMS atom displacement 0 bohrs to make symmetries exact.

---------- Initializing the Grid ----------
R = 
[         8.14         8.14            0  ]
[         8.14        -8.14            0  ]
[            0            0         40.7  ]
unit cell volume = 5393.53
G =
[   0.385945   0.385945         -0  ]
[   0.385945  -0.385945         -0  ]
[         -0         -0   0.154378  ]
Minimum fftbox size, Smin = [  60  60  204  ]
Chosen fftbox size, S = [  60  60  210  ]

---------- Exchange Correlation functional ----------
Initialized LibXC exchange functional 'Hammer, Hansen, and Norskov'
Initialized LibXC correlation functional 'Perdew, Burke & Ernzerhof'

---------- Setting up pseudopotentials ----------
Width of ionic core gaussian charges (only for fluid interactions / plotting) set to 0

Reading pseudopotential file '/data2/jt577/jdftx_eat_withLibXC/build/pseudopotentials/SG15/Ni_ONCV_PBE.upf':
  'Ni' pseudopotential, 'PBE' functional
  Generated using ONCVPSP code by D. R. Hamann
  Author: Martin Schlipf and Francois Gygi  Date: 150915.
  18 valence electrons, 4 orbitals, 6 projectors, 1292 radial grid points, with lMax = 2
  Transforming local potential to a uniform radial grid of dG=0.02 with 1419 points.
  Transforming nonlocal projectors to a uniform radial grid of dG=0.02 with 528 points.
    3S    l: 0   occupation:  2.0   eigenvalue: -4.081355
    3P    l: 1   occupation:  6.0   eigenvalue: -2.623460
    4S    l: 0   occupation:  2.0   eigenvalue: -0.207378
    3D    l: 2   occupation:  8.0   eigenvalue: -0.326118
  Transforming atomic orbitals to a uniform radial grid of dG=0.02 with 528 points.
  WARNING: large normalization error in atomic orbital 1s (integral: 0.000006).
  Core radius for overlap checks: 1.99 bohrs.
  Reading pulay file /data2/jt577/jdftx_eat_withLibXC/build/pseudopotentials/SG15/Ni_ONCV_PBE.pulay ... using dE_dnG = -7.250568e-04 computed for Ecut = 30.

Reading pseudopotential file '/data2/jt577/jdftx_eat_withLibXC/build/pseudopotentials/SG15/V_ONCV_PBE.upf':
  'V' pseudopotential, 'PBE' functional
  Generated using ONCVPSP code by D. R. Hamann
  Author: Martin Schlipf and Francois Gygi  Date: 150915.
  13 valence electrons, 4 orbitals, 6 projectors, 1536 radial grid points, with lMax = 2
  Transforming local potential to a uniform radial grid of dG=0.02 with 1419 points.
  Transforming nonlocal projectors to a uniform radial grid of dG=0.02 with 528 points.
    3S    l: 0   occupation:  2.0   eigenvalue: -2.581105
    3P    l: 1   occupation:  6.0   eigenvalue: -1.618486
    4S    l: 0   occupation:  2.0   eigenvalue: -0.172804
    3D    l: 2   occupation:  3.0   eigenvalue: -0.189795
  Transforming atomic orbitals to a uniform radial grid of dG=0.02 with 528 points.
  Core radius for overlap checks: 1.80 bohrs.
  Reading pulay file /data2/jt577/jdftx_eat_withLibXC/build/pseudopotentials/SG15/V_ONCV_PBE.pulay ... using dE_dnG = -1.698632e-04 computed for Ecut = 30.

Reading pseudopotential file '/data2/jt577/jdftx_eat_withLibXC/build/pseudopotentials/SG15/Cr_ONCV_PBE.upf':
  'Cr' pseudopotential, 'PBE' functional
  Generated using ONCVPSP code by D. R. Hamann
  Author: Martin Schlipf and Francois Gygi  Date: 150915.
  14 valence electrons, 4 orbitals, 6 projectors, 1160 radial grid points, with lMax = 2
  Transforming local potential to a uniform radial grid of dG=0.02 with 1419 points.
  Transforming nonlocal projectors to a uniform radial grid of dG=0.02 with 528 points.
    3S    l: 0   occupation:  2.0   eigenvalue: -2.865131
    3P    l: 1   occupation:  6.0   eigenvalue: -1.810600
    4S    l: 0   occupation:  2.0   eigenvalue: -0.180525
    3D    l: 2   occupation:  4.0   eigenvalue: -0.220312
  Transforming atomic orbitals to a uniform radial grid of dG=0.02 with 528 points.
  WARNING: large normalization error in atomic orbital 1s (integral: 0.000001).
  Core radius for overlap checks: 2.10 bohrs.
  Reading pulay file /data2/jt577/jdftx_eat_withLibXC/build/pseudopotentials/SG15/Cr_ONCV_PBE.pulay ... using dE_dnG = -9.817895e-06 computed for Ecut = 30.

Reading pseudopotential file '/data2/jt577/jdftx_eat_withLibXC/build/pseudopotentials/SG15/Co_ONCV_PBE.upf':
  'Co' pseudopotential, 'PBE' functional
  Generated using ONCVPSP code by D. R. Hamann
  Author: Martin Schlipf and Francois Gygi  Date: 150915.
  17 valence electrons, 4 orbitals, 6 projectors, 1388 radial grid points, with lMax = 2
  Transforming local potential to a uniform radial grid of dG=0.02 with 1419 points.
  Transforming nonlocal projectors to a uniform radial grid of dG=0.02 with 528 points.
    3S    l: 0   occupation:  2.0   eigenvalue: -3.763303
    3P    l: 1   occupation:  6.0   eigenvalue: -2.412101
    4S    l: 0   occupation:  2.0   eigenvalue: -0.201022
    3D    l: 2   occupation:  7.0   eigenvalue: -0.301498
  Transforming atomic orbitals to a uniform radial grid of dG=0.02 with 528 points.
  Core radius for overlap checks: 1.94 bohrs.
  Reading pulay file /data2/jt577/jdftx_eat_withLibXC/build/pseudopotentials/SG15/Co_ONCV_PBE.pulay ... using dE_dnG = -9.787391e-05 computed for Ecut = 30.

Reading pseudopotential file '/data2/jt577/jdftx_eat_withLibXC/build/pseudopotentials/SG15/O_ONCV_PBE.upf':
  'O' pseudopotential, 'PBE' functional
  Generated using ONCVPSP code by D. R. Hamann
  Author: Martin Schlipf and Francois Gygi  Date: 150915.
  6 valence electrons, 2 orbitals, 4 projectors, 936 radial grid points, with lMax = 1
  Transforming local potential to a uniform radial grid of dG=0.02 with 1419 points.
  Transforming nonlocal projectors to a uniform radial grid of dG=0.02 with 528 points.
    2S    l: 0   occupation:  2.0   eigenvalue: -0.880572
    2P    l: 1   occupation:  4.0   eigenvalue: -0.331869
  Transforming atomic orbitals to a uniform radial grid of dG=0.02 with 528 points.
  Core radius for overlap checks: 1.29 bohrs.
  Reading pulay file /data2/jt577/jdftx_eat_withLibXC/build/pseudopotentials/SG15/O_ONCV_PBE.pulay ... using dE_dnG = -8.209514e-03 computed for Ecut = 30.

Reading pseudopotential file '/data2/jt577/jdftx_eat_withLibXC/build/pseudopotentials/SG15/H_ONCV_PBE.upf':
  'H' pseudopotential, 'PBE' functional
  Generated using ONCVPSP code by D. R. Hamann
  Author: Martin Schlipf and Francois Gygi  Date: 150915.
  1 valence electrons, 1 orbitals, 2 projectors, 1166 radial grid points, with lMax = 0
  Transforming local potential to a uniform radial grid of dG=0.02 with 1419 points.
  Transforming nonlocal projectors to a uniform radial grid of dG=0.02 with 528 points.
    1S    l: 0   occupation:  1.0   eigenvalue: -0.238602
  Transforming atomic orbitals to a uniform radial grid of dG=0.02 with 528 points.
  Core radius for overlap checks: 1.01 bohrs.
  Reading pulay file /data2/jt577/jdftx_eat_withLibXC/build/pseudopotentials/SG15/H_ONCV_PBE.pulay ... using dE_dnG = -8.245991e-05 computed for Ecut = 30.

Initialized 6 species with 34 total atoms.

Folded 1 k-points by 3x3x1 to 9 k-points.

---------- Setting up k-points, bands, fillings ----------
No reducable k-points. 
Computing the number of bands and number of electrons
Calculating initial fillings.
nElectrons: 351.000000   nBands: 229   nStates: 18

----- Setting up reduced wavefunction bases (one per k-point) -----
average nbasis = 42312.000 , ideal nbasis = 42330.081

---------- Setting up ewald sum ----------
Optimum gaussian width for ewald sums = 3.887061 bohr.
Real space sum over 605 unit cells with max indices [  5  5  2  ]
Reciprocal space sum over 5915 terms with max indices [  6  6  17  ]

---------- Allocating electronic variables ----------
Initializing wave functions:  linear combination of atomic orbitals
Ni (M=1) pseudo-atom majority spin occupations:   s ( 1 0.5 )  p ( 3 )  d ( 5 )
Ni (M=1) pseudo-atom minority spin occupations:   s ( 1 0 )  p ( 3 )  d ( 4.5 )
V (M=1) pseudo-atom majority spin occupations:   s ( 1 0 )  p ( 3 )  d ( 3 )
V (M=1) pseudo-atom minority spin occupations:   s ( 1 0 )  p ( 3 )  d ( 2 )
Cr (M=1) pseudo-atom majority spin occupations:   s ( 1 0 )  p ( 3 )  d ( 3.5 )
Cr (M=1) pseudo-atom minority spin occupations:   s ( 1 0 )  p ( 3 )  d ( 2.5 )
Co (M=1) pseudo-atom majority spin occupations:   s ( 1 0 )  p ( 3 )  d ( 5 )
Co (M=1) pseudo-atom minority spin occupations:   s ( 1 0 )  p ( 3 )  d ( 4 )
O pseudo-atom occupations:   s ( 2 )  p ( 4 )
H pseudo-atom occupations:   s ( 1 )
	FillingsUpdate:  mu: +0.624298217  nElectrons: 351.000000  magneticMoment: [ Abs: 0.26516  Tot: -0.00000 ]
LCAOMinimize: Iter:   0  F: -1896.1943640813876755  |grad|_K:  8.347e-03  alpha:  1.000e+00
	FillingsUpdate:  mu: +0.682512406  nElectrons: 351.000000  magneticMoment: [ Abs: 0.33737  Tot: -0.00000 ]
LCAOMinimize: Iter:   1  F: -1900.8847332669949992  |grad|_K:  1.051e-02  alpha:  6.320e-02  linmin: -5.326e-02  cgtest:  6.454e-01  t[s]:     87.70
LCAOMinimize: 	Wrong curvature in test step, increasing alphaT to 1.896054e-01.
	FillingsUpdate:  mu: +1.277987545  nElectrons: 351.000000  magneticMoment: [ Abs: 2.68137  Tot: -0.00000 ]
LCAOMinimize: Iter:   2  F: -1939.0110376614952656  |grad|_K:  2.602e-02  alpha: -1.559e-02  linmin: -9.952e-03  cgtest: -2.016e-01  t[s]:    116.35
LCAOMinimize: 	Step increased F by 5.473812e+02, reducing alpha to 3.426596e-02.
LCAOMinimize: 	Step increased F by 3.598153e+02, reducing alpha to 3.426596e-03.
LCAOMinimize: 	Step increased F by 5.039988e+00, reducing alpha to 3.426596e-04.
LCAOMinimize: 	Step failed to reduce F after 3 attempts. Quitting step.
LCAOMinimize: 	Undoing step.
LCAOMinimize: 	Step failed: resetting search direction.
	FillingsUpdate:  mu: +1.306756637  nElectrons: 351.000000  magneticMoment: [ Abs: 1.65030  Tot: -0.00000 ]
LCAOMinimize: Iter:   3  F: -1934.6208899558882877  |grad|_K:  2.585e-02  alpha:  3.427e-04
LCAOMinimize: 	Step increased F by 2.094690e+02, reducing alpha to 3.277798e-02.
	FillingsUpdate:  mu: +0.447553046  nElectrons: 351.000000  magneticMoment: [ Abs: 1.76429  Tot: +0.00000 ]
LCAOMinimize: Iter:   4  F: -1952.2542743502874600  |grad|_K:  1.088e-02  alpha:  3.278e-02  linmin: -4.564e-02  cgtest: -2.255e-02  t[s]:    267.14
LCAOMinimize: 	Wrong curvature in test step, increasing alphaT to 9.833394e-02.
	FillingsUpdate:  mu: +0.235385860  nElectrons: 351.000000  magneticMoment: [ Abs: 4.04438  Tot: -0.00000 ]
LCAOMinimize: Iter:   5  F: -1956.8345722542162548  |grad|_K:  1.283e-02  alpha: -2.620e-01  linmin: -2.770e-03  cgtest:  4.316e-01  t[s]:    294.86
LCAOMinimize: 	Step increased F by 1.248841e+02, reducing alpha to 1.848701e-02.
	FillingsUpdate:  mu: -0.042449883  nElectrons: 351.000000  magneticMoment: [ Abs: 5.19068  Tot: -0.00000 ]
LCAOMinimize: Iter:   6  F: -1959.1171469099137994  |grad|_K:  1.787e-02  alpha:  1.849e-02  linmin: -4.861e-03  cgtest:  6.675e-01  t[s]:    345.60
	FillingsUpdate:  mu: +0.023092958  nElectrons: 351.000000  magneticMoment: [ Abs: 6.60225  Tot: -0.00000 ]
LCAOMinimize: Iter:   7  F: -1961.0216462978712570  |grad|_K:  1.536e-02  alpha:  8.906e-03  linmin: -1.931e-02  cgtest:  9.237e-01  t[s]:    375.14
LCAOMinimize: Encountered beta<0, resetting CG.
	FillingsUpdate:  mu: +0.048202571  nElectrons: 351.000000  magneticMoment: [ Abs: 5.23495  Tot: +0.00000 ]
LCAOMinimize: Iter:   8  F: -1963.3504977729637631  |grad|_K:  7.269e-03  alpha:  1.797e-02  linmin: -7.396e-02  cgtest:  3.249e-01  t[s]:    404.46
LCAOMinimize: 	Predicted alpha/alphaT>3.000000, increasing alphaT to 5.392482e-02.
	FillingsUpdate:  mu: +0.069225021  nElectrons: 351.000000  magneticMoment: [ Abs: 6.11262  Tot: -0.00000 ]
LCAOMinimize: Iter:   9  F: -1964.3134527827560305  |grad|_K:  7.406e-03  alpha:  2.213e-02  linmin: -4.062e-02  cgtest:  2.938e-01  t[s]:    441.70
LCAOMinimize: 	Step increased F by 1.669624e+00, reducing alpha to 4.341912e-03.
	FillingsUpdate:  mu: +0.073154924  nElectrons: 351.000000  magneticMoment: [ Abs: 6.15960  Tot: -0.00000 ]
LCAOMinimize: Iter:  10  F: -1964.6017277417029163  |grad|_K:  6.824e-03  alpha:  4.342e-03  linmin: -8.718e-02  cgtest:  9.672e-01  t[s]:    492.23
LCAOMinimize: Encountered beta<0, resetting CG.
LCAOMinimize: 	Predicted alpha/alphaT>3.000000, increasing alphaT to 1.302574e-02.
	FillingsUpdate:  mu: +0.068922732  nElectrons: 351.000000  magneticMoment: [ Abs: 5.61762  Tot: -0.00000 ]
LCAOMinimize: Iter:  11  F: -1965.0592494423549397  |grad|_K:  7.237e-03  alpha:  1.984e-02  linmin: -7.918e-03  cgtest: -8.448e-02  t[s]:    529.25
LCAOMinimize: 	Step increased F by 3.448433e+00, reducing alpha to 4.887650e-03.
	FillingsUpdate:  mu: +0.051673840  nElectrons: 351.000000  magneticMoment: [ Abs: 5.83914  Tot: +0.00000 ]
LCAOMinimize: Iter:  12  F: -1965.3196778379956413  |grad|_K:  6.713e-03  alpha:  4.888e-03  linmin: -5.692e-02  cgtest:  9.650e-01  t[s]:    579.35
LCAOMinimize: Encountered beta<0, resetting CG.
LCAOMinimize: 	Predicted alpha/alphaT>3.000000, increasing alphaT to 1.466295e-02.
	FillingsUpdate:  mu: +0.068750584  nElectrons: 351.000000  magneticMoment: [ Abs: 6.73653  Tot: +0.00000 ]
LCAOMinimize: Iter:  13  F: -1965.6176632893498208  |grad|_K:  5.693e-03  alpha:  1.380e-02  linmin:  7.244e-03  cgtest: -5.791e-02  t[s]:    616.24
LCAOMinimize: 	Wrong curvature in test step, increasing alphaT to 4.138796e-02.
	FillingsUpdate:  mu: +0.095884997  nElectrons: 351.000000  magneticMoment: [ Abs: 7.08239  Tot: +0.00000 ]
LCAOMinimize: Iter:  14  F: -1966.0644685182742251  |grad|_K:  5.266e-03  alpha: -6.497e-02  linmin: -7.229e-02  cgtest:  8.530e-01  t[s]:    642.92
LCAOMinimize: 	Step increased F by 1.373080e+00, reducing alpha to 5.214837e-03.
	FillingsUpdate:  mu: +0.078160867  nElectrons: 351.000000  magneticMoment: [ Abs: 7.02824  Tot: -0.00000 ]
LCAOMinimize: Iter:  15  F: -1966.1870426377367949  |grad|_K:  3.504e-03  alpha:  5.215e-03  linmin: -1.338e-01  cgtest:  8.257e-01  t[s]:    693.86
LCAOMinimize: Encountered beta<0, resetting CG.
LCAOMinimize: 	Predicted alpha/alphaT>3.000000, increasing alphaT to 1.564451e-02.
LCAOMinimize: 	Predicted alpha/alphaT>3.000000, increasing alphaT to 4.693354e-02.
	FillingsUpdate:  mu: +0.111254097  nElectrons: 351.000000  magneticMoment: [ Abs: 7.46921  Tot: -0.00000 ]
LCAOMinimize: Iter:  16  F: -1966.4158162769929277  |grad|_K:  5.764e-03  alpha:  3.689e-02  linmin:  2.426e-03  cgtest: -5.621e-02  t[s]:    739.52
	FillingsUpdate:  mu: +0.106117492  nElectrons: 351.000000  magneticMoment: [ Abs: 7.83588  Tot: +0.00000 ]
LCAOMinimize: Iter:  17  F: -1966.5309089022769058  |grad|_K:  4.989e-03  alpha:  4.607e-03  linmin: -2.207e-02  cgtest:  9.821e-01  t[s]:    768.82
LCAOMinimize: Encountered beta<0, resetting CG.
	FillingsUpdate:  mu: +0.071161991  nElectrons: 351.000000  magneticMoment: [ Abs: 8.13223  Tot: +0.00000 ]
LCAOMinimize: Iter:  18  F: -1966.6328912976739502  |grad|_K:  1.896e-03  alpha:  8.695e-03  linmin:  8.927e-03  cgtest:  2.528e-02  t[s]:    798.28
LCAOMinimize: 	Predicted alpha/alphaT>3.000000, increasing alphaT to 2.608606e-02.
	FillingsUpdate:  mu: +0.056165844  nElectrons: 351.000000  magneticMoment: [ Abs: 8.16939  Tot: -0.00000 ]
LCAOMinimize: Iter:  19  F: -1966.7203046959334642  |grad|_K:  1.977e-03  alpha:  5.120e-02  linmin: -1.348e-03  cgtest: -2.068e-01  t[s]:    835.15
	FillingsUpdate:  mu: +0.069336551  nElectrons: 351.000000  magneticMoment: [ Abs: 8.71639  Tot: -0.00000 ]
LCAOMinimize: Iter:  20  F: -1966.7689078573948791  |grad|_K:  1.842e-03  alpha:  2.581e-02  linmin:  3.485e-04  cgtest: -1.011e-02  t[s]:    864.03
	FillingsUpdate:  mu: +0.091123704  nElectrons: 351.000000  magneticMoment: [ Abs: 9.29877  Tot: -0.00000 ]
LCAOMinimize: Iter:  21  F: -1966.8168048204629486  |grad|_K:  1.499e-03  alpha:  3.038e-02  linmin:  9.968e-04  cgtest:  1.749e-01  t[s]:    892.97
	FillingsUpdate:  mu: +0.087941692  nElectrons: 351.000000  magneticMoment: [ Abs: 9.69338  Tot: -0.00000 ]
LCAOMinimize: Iter:  22  F: -1966.8502684951597530  |grad|_K:  1.040e-03  alpha:  3.214e-02  linmin: -1.131e-03  cgtest:  2.571e-01  t[s]:    921.76
	FillingsUpdate:  mu: +0.090249127  nElectrons: 351.000000  magneticMoment: [ Abs: 9.69807  Tot: -0.00000 ]
LCAOMinimize: Iter:  23  F: -1966.8637347756973668  |grad|_K:  1.076e-03  alpha:  2.586e-02  linmin: -2.496e-04  cgtest: -2.977e-02  t[s]:    950.63
	FillingsUpdate:  mu: +0.078471773  nElectrons: 351.000000  magneticMoment: [ Abs: 10.04768  Tot: -0.00000 ]
LCAOMinimize: Iter:  24  F: -1966.8869449476837872  |grad|_K:  9.759e-04  alpha:  4.055e-02  linmin: -1.040e-03  cgtest: -7.634e-02  t[s]:    979.06
	FillingsUpdate:  mu: +0.111584067  nElectrons: 351.000000  magneticMoment: [ Abs: 11.44980  Tot: +0.00000 ]
LCAOMinimize: Iter:  25  F: -1966.9378854950602999  |grad|_K:  1.234e-03  alpha:  9.907e-02  linmin: -1.286e-03  cgtest: -9.865e-02  t[s]:   1007.81
	FillingsUpdate:  mu: +0.093500789  nElectrons: 351.000000  magneticMoment: [ Abs: 12.11026  Tot: +0.00000 ]
LCAOMinimize: Iter:  26  F: -1966.9571511949297928  |grad|_K:  8.917e-04  alpha:  2.147e-02  linmin: -1.535e-03  cgtest:  1.606e-01  t[s]:   1036.52
	FillingsUpdate:  mu: +0.086776486  nElectrons: 351.000000  magneticMoment: [ Abs: 12.78602  Tot: +0.00000 ]
LCAOMinimize: Iter:  27  F: -1966.9811740983868731  |grad|_K:  8.407e-04  alpha:  5.770e-02  linmin: -4.677e-04  cgtest: -4.080e-02  t[s]:   1065.04
	FillingsUpdate:  mu: +0.096378561  nElectrons: 351.000000  magneticMoment: [ Abs: 13.54799  Tot: -0.00000 ]
LCAOMinimize: Iter:  28  F: -1966.9987908862358381  |grad|_K:  7.453e-04  alpha:  5.142e-02  linmin: -7.229e-04  cgtest:  6.514e-02  t[s]:   1094.09
	FillingsUpdate:  mu: +0.105886556  nElectrons: 351.000000  magneticMoment: [ Abs: 13.94942  Tot: -0.00000 ]
LCAOMinimize: Iter:  29  F: -1967.0098194181277904  |grad|_K:  6.940e-04  alpha:  4.124e-02  linmin: -5.887e-04  cgtest: -5.910e-02  t[s]:   1122.69
	FillingsUpdate:  mu: +0.096660445  nElectrons: 351.000000  magneticMoment: [ Abs: 14.58938  Tot: +0.00000 ]
LCAOMinimize: Iter:  30  F: -1967.0224417868089404  |grad|_K:  4.821e-04  alpha:  5.311e-02  linmin:  1.115e-04  cgtest: -4.049e-02  t[s]:   1151.42
LCAOMinimize: None of the convergence criteria satisfied after 30 iterations.


---- Citations for features of the code used in this run ----

   Software package:
      R. Sundararaman, K. Letchworth-Weaver, K.A. Schwarz, D. Gunceler, Y. Ozhabes and T.A. Arias, 'JDFTx: software for joint density-functional theory', SoftwareX 6, 278 (2017)

   Simplified rotationally-invariant DFT+U:
      S. L. Dudarev et al., Phys. Rev. B 57, 1505 (1998)

   LibXC library of exchange-correlation functions:
      M. A. L. Marques, M. J. T. Oliveira and T. Burnus, Comput. Phys. Commun. 183, 2272 (2012)

   Hammer, Hansen, and Norskov exchange functional:
      B. Hammer, L. B. Hansen, and J. K. Nørskov, Phys. Rev. B 59, 7413 (1999)

   Perdew, Burke & Ernzerhof correlation functional:
      J. P. Perdew, K. Burke, and M. Ernzerhof, Phys. Rev. Lett. 77, 3865 (1996)

   Pseudopotentials:
      M Schlipf and F Gygi, Comput. Phys. Commun. 196, 36 (2015)

   Total energy minimization with Auxiliary Hamiltonian:
      C. Freysoldt, S. Boeck, and J. Neugebauer, Phys. Rev. B 79, 241103(R) (2009)

This list may not be complete. Please suggest additional citations or
report any other bugs at https://github.com/shankar1729/jdftx/issues

Initialization completed successfully at t[s]:   1163.28


-------- Electronic minimization -----------
	FillingsUpdate:  mu: +0.096660451  nElectrons: 351.000000  magneticMoment: [ Abs: 14.58938  Tot: +0.00000 ]
ElecMinimize: Iter:   0  F: -1967.022441786813488  |grad|_K:  9.657e-04  alpha:  1.000e+00
	FillingsUpdate:  mu: +0.476660463  nElectrons: 351.000000  magneticMoment: [ Abs: 15.99799  Tot: +0.00000 ]
	SubspaceRotationAdjust: set factor to 0.997
ElecMinimize: Iter:   1  F: -2011.562600922194406  |grad|_K:  1.209e-03  alpha:  4.771e-01  linmin:  1.490e-02  t[s]:   1266.62
	FillingsUpdate:  mu: +0.840518075  nElectrons: 351.000000  magneticMoment: [ Abs: 19.26106  Tot: +0.00000 ]
	SubspaceRotationAdjust: set factor to 0.646
ElecMinimize: Iter:   2  F: -2014.372548995340367  |grad|_K:  1.528e-03  alpha:  9.147e-02  linmin:  2.550e-03  t[s]:   1338.70
	FillingsUpdate:  mu: +0.241014936  nElectrons: 351.000000  magneticMoment: [ Abs: 18.33094  Tot: +0.00000 ]
	SubspaceRotationAdjust: set factor to 0.41
ElecMinimize: Iter:   3  F: -2023.450410889223804  |grad|_K:  7.908e-04  alpha:  2.691e-02  linmin:  5.753e-04  t[s]:   1412.26
ElecMinimize: 	Predicted alpha/alphaT>3.000000, increasing alphaT to 8.072431e-02.
	FillingsUpdate:  mu: +1.016070790  nElectrons: 351.000000  magneticMoment: [ Abs: 18.97073  Tot: -0.00000 ]
	SubspaceRotationAdjust: set factor to 0.265
ElecMinimize: Iter:   4  F: -2033.548648536306928  |grad|_K:  1.007e-03  alpha:  1.082e-01  linmin:  2.229e-03  t[s]:   1504.77
	FillingsUpdate:  mu: +0.952961682  nElectrons: 351.000000  magneticMoment: [ Abs: 19.33353  Tot: +0.00000 ]
	SubspaceRotationAdjust: set factor to 0.202
ElecMinimize: Iter:   5  F: -2036.215505029669885  |grad|_K:  7.595e-04  alpha:  1.605e-02  linmin: -1.804e-03  t[s]:   1576.81
ElecMinimize: 	Predicted alpha/alphaT>3.000000, increasing alphaT to 4.814374e-02.
	FillingsUpdate:  mu: +0.538129822  nElectrons: 351.000000  magneticMoment: [ Abs: 21.05257  Tot: +0.00000 ]
	SubspaceRotationAdjust: set factor to 0.184
ElecMinimize: Iter:   6  F: -2043.529650937491169  |grad|_K:  5.505e-04  alpha:  5.575e-02  linmin:  1.044e-03  t[s]:   1668.27
	FillingsUpdate:  mu: +0.485319382  nElectrons: 351.000000  magneticMoment: [ Abs: 22.49231  Tot: -0.00000 ]
	SubspaceRotationAdjust: set factor to 0.209
ElecMinimize: Iter:   7  F: -2044.928739036813113  |grad|_K:  5.141e-04  alpha:  3.183e-02  linmin:  3.709e-04  t[s]:   1740.57
	FillingsUpdate:  mu: +0.376521809  nElectrons: 351.000000  magneticMoment: [ Abs: 24.00260  Tot: +0.00000 ]
	SubspaceRotationAdjust: set factor to 0.237
ElecMinimize: Iter:   8  F: -2046.505644013649544  |grad|_K:  4.430e-04  alpha:  3.730e-02  linmin:  2.157e-04  t[s]:   1812.21
	FillingsUpdate:  mu: +0.305648766  nElectrons: 351.000000  magneticMoment: [ Abs: 24.52014  Tot: -0.00000 ]
	SubspaceRotationAdjust: set factor to 0.236
ElecMinimize: Iter:   9  F: -2047.464527514251813  |grad|_K:  3.947e-04  alpha:  2.848e-02  linmin:  1.316e-05  t[s]:   1883.38
	FillingsUpdate:  mu: +0.265995468  nElectrons: 351.000000  magneticMoment: [ Abs: 24.43745  Tot: -0.00000 ]
	SubspaceRotationAdjust: set factor to 0.186
ElecMinimize: Iter:  10  F: -2048.103334309141246  |grad|_K:  3.957e-04  alpha:  2.275e-02  linmin:  2.019e-04  t[s]:   1955.02
	FillingsUpdate:  mu: +0.196737809  nElectrons: 351.000000  magneticMoment: [ Abs: 24.32359  Tot: +0.00000 ]
	SubspaceRotationAdjust: set factor to 0.131
	SubspaceRotationAdjust: resetting CG because factor has changed by 0.130574
ElecMinimize: 	State modified externally: resetting search direction.
ElecMinimize: Iter:  11  F: -2048.680588681866993  |grad|_K:  3.503e-04  alpha:  2.209e-02
ElecMinimize: 	Predicted alpha/alphaT>3.000000, increasing alphaT to 6.625509e-02.
	FillingsUpdate:  mu: +0.244003005  nElectrons: 351.000000  magneticMoment: [ Abs: 24.97534  Tot: -0.00000 ]
	SubspaceRotationAdjust: set factor to 0.0924
ElecMinimize: Iter:  12  F: -2051.858686560607111  |grad|_K:  1.819e-04  alpha:  1.418e-01  linmin: -7.682e-03  t[s]:   2149.96
	FillingsUpdate:  mu: +0.183685087  nElectrons: 351.000000  magneticMoment: [ Abs: 24.08640  Tot: +0.00000 ]
	SubspaceRotationAdjust: set factor to 0.0563
ElecMinimize: Iter:  13  F: -2053.125531268251507  |grad|_K:  9.388e-05  alpha:  2.082e-01  linmin:  3.063e-03  t[s]:   2221.48
	FillingsUpdate:  mu: +0.173287831  nElectrons: 351.000000  magneticMoment: [ Abs: 23.77499  Tot: -0.00000 ]
	SubspaceRotationAdjust: set factor to 0.0602
ElecMinimize: Iter:  14  F: -2053.642404693563549  |grad|_K:  6.397e-05  alpha:  3.875e-01  linmin: -1.659e-04  t[s]:   2293.04
	FillingsUpdate:  mu: +0.144880465  nElectrons: 351.000000  magneticMoment: [ Abs: 23.63533  Tot: +0.00000 ]
	SubspaceRotationAdjust: set factor to 0.0672
ElecMinimize: Iter:  15  F: -2053.954080535295361  |grad|_K:  5.025e-05  alpha:  4.291e-01  linmin:  1.006e-04  t[s]:   2364.91
	FillingsUpdate:  mu: +0.122495897  nElectrons: 351.000000  magneticMoment: [ Abs: 23.75757  Tot: +0.00000 ]
	SubspaceRotationAdjust: set factor to 0.0758
ElecMinimize: Iter:  16  F: -2054.139711794792220  |grad|_K:  4.283e-05  alpha:  4.266e-01  linmin: -7.836e-07  t[s]:   2436.35
	FillingsUpdate:  mu: +0.113774903  nElectrons: 351.000000  magneticMoment: [ Abs: 23.99927  Tot: -0.00000 ]
	SubspaceRotationAdjust: set factor to 0.091
ElecMinimize: Iter:  17  F: -2054.261964955905569  |grad|_K:  3.718e-05  alpha:  3.814e-01  linmin: -5.629e-05  t[s]:   2507.66
	FillingsUpdate:  mu: +0.128874812  nElectrons: 351.000000  magneticMoment: [ Abs: 24.41532  Tot: -0.00000 ]
	SubspaceRotationAdjust: set factor to 0.107
ElecMinimize: Iter:  18  F: -2054.390939772707952  |grad|_K:  4.017e-05  alpha:  5.226e-01  linmin: -1.296e-04  t[s]:   2579.35
	FillingsUpdate:  mu: +0.139233349  nElectrons: 351.000000  magneticMoment: [ Abs: 25.17511  Tot: -0.00000 ]
	SubspaceRotationAdjust: set factor to 0.122
ElecMinimize: Iter:  19  F: -2054.531997881750158  |grad|_K:  4.195e-05  alpha:  4.718e-01  linmin: -1.470e-04  t[s]:   2650.57
	FillingsUpdate:  mu: +0.139610132  nElectrons: 351.000000  magneticMoment: [ Abs: 26.55175  Tot: +0.00000 ]
	SubspaceRotationAdjust: set factor to 0.121
ElecMinimize: Iter:  20  F: -2054.687979451072806  |grad|_K:  5.461e-05  alpha:  4.622e-01  linmin: -8.367e-05  t[s]:   2722.08
	FillingsUpdate:  mu: +0.125269456  nElectrons: 351.000000  magneticMoment: [ Abs: 28.21377  Tot: +0.00000 ]
	SubspaceRotationAdjust: set factor to 0.108
ElecMinimize: Iter:  21  F: -2054.861669110449384  |grad|_K:  6.024e-05  alpha:  3.004e-01  linmin: -7.522e-05  t[s]:   2793.81
	FillingsUpdate:  mu: +0.146859305  nElectrons: 351.000000  magneticMoment: [ Abs: 29.57657  Tot: -0.00000 ]
	SubspaceRotationAdjust: set factor to 0.129
ElecMinimize: Iter:  22  F: -2055.034243592427629  |grad|_K:  5.950e-05  alpha:  2.123e-01  linmin: -1.631e-04  t[s]:   2865.97
	FillingsUpdate:  mu: +0.145918833  nElectrons: 351.000000  magneticMoment: [ Abs: 29.59237  Tot: -0.00000 ]
	SubspaceRotationAdjust: set factor to 0.171
ElecMinimize: Iter:  23  F: -2055.034643838773263  |grad|_K:  6.089e-05  alpha:  4.207e-03  linmin: -1.031e-03  t[s]:   2937.53
ElecMinimize: 	Predicted alpha/alphaT>3.000000, increasing alphaT to 1.261966e-02.
ElecMinimize: 	Predicted alpha/alphaT>3.000000, increasing alphaT to 3.785899e-02.
ElecMinimize: 	Predicted alpha/alphaT>3.000000, increasing alphaT to 1.135770e-01.
ElecMinimize: 	Step increased F by 4.300132e+00, reducing alpha to 1.351368e-02.
	FillingsUpdate:  mu: +0.142042134  nElectrons: 351.000000  magneticMoment: [ Abs: 29.63096  Tot: -0.00000 ]
	SubspaceRotationAdjust: set factor to 0.21
ElecMinimize: Iter:  24  F: -2055.070153959937670  |grad|_K:  5.915e-05  alpha:  1.351e-02  linmin: -1.839e-03  t[s]:   3094.60
ElecMinimize: 	Predicted alpha/alphaT>3.000000, increasing alphaT to 4.054104e-02.
	FillingsUpdate:  mu: +0.128876047  nElectrons: 351.000000  magneticMoment: [ Abs: 29.57034  Tot: +0.00000 ]
	SubspaceRotationAdjust: set factor to 0.159
ElecMinimize: Iter:  25  F: -2055.152892257792701  |grad|_K:  3.976e-05  alpha:  8.482e-02  linmin:  6.276e-03  t[s]:   3185.57
ElecMinimize: 	Bad step direction: g.d > 0.
ElecMinimize: 	Undoing step.
ElecMinimize: 	Step failed: resetting search direction.
	FillingsUpdate:  mu: +0.128876047  nElectrons: 351.000000  magneticMoment: [ Abs: 29.57034  Tot: +0.00000 ]
	SubspaceRotationAdjust: set factor to 0.222
ElecMinimize: Iter:  26  F: -2055.152892257789063  |grad|_K:  3.814e-05  alpha:  0.000e+00
ElecMinimize: 	Predicted alpha/alphaT>3.000000, increasing alphaT to 2.544480e-01.
	FillingsUpdate:  mu: +0.116427737  nElectrons: 351.000000  magneticMoment: [ Abs: 29.80854  Tot: +0.00000 ]
	SubspaceRotationAdjust: set factor to 0.195
ElecMinimize: Iter:  27  F: -2055.225560641953507  |grad|_K:  3.908e-05  alpha:  2.858e-01  linmin:  1.533e-04  t[s]:   3329.03
	FillingsUpdate:  mu: +0.145607670  nElectrons: 351.000000  magneticMoment: [ Abs: 29.99288  Tot: +0.00000 ]
	SubspaceRotationAdjust: set factor to 0.138
ElecMinimize: Iter:  28  F: -2055.296880679074093  |grad|_K:  4.497e-05  alpha:  2.675e-01  linmin: -8.419e-05  t[s]:   3400.38
	FillingsUpdate:  mu: +0.143883484  nElectrons: 351.000000  magneticMoment: [ Abs: 30.17204  Tot: -0.00000 ]
	SubspaceRotationAdjust: set factor to 0.0958
ElecMinimize: Iter:  29  F: -2055.343546098165007  |grad|_K:  3.158e-05  alpha:  1.385e-01  linmin:  6.159e-04  t[s]:   3471.86
	FillingsUpdate:  mu: +0.115761475  nElectrons: 351.000000  magneticMoment: [ Abs: 30.85053  Tot: -0.00000 ]
	SubspaceRotationAdjust: set factor to 0.0831
ElecMinimize: Iter:  30  F: -2055.393833485426967  |grad|_K:  2.212e-05  alpha:  3.019e-01  linmin:  1.926e-03  t[s]:   3543.31
	FillingsUpdate:  mu: +0.116581587  nElectrons: 351.000000  magneticMoment: [ Abs: 31.37950  Tot: +0.00000 ]
	SubspaceRotationAdjust: set factor to 0.109
ElecMinimize: Iter:  31  F: -2055.422702562830636  |grad|_K:  1.722e-05  alpha:  3.574e-01  linmin: -2.384e-04  t[s]:   3615.17
	FillingsUpdate:  mu: +0.136551359  nElectrons: 351.000000  magneticMoment: [ Abs: 31.83085  Tot: -0.00000 ]
	SubspaceRotationAdjust: set factor to 0.107
ElecMinimize: Iter:  32  F: -2055.443302094226965  |grad|_K:  1.810e-05  alpha:  3.934e-01  linmin: -4.665e-04  t[s]:   3687.19
	FillingsUpdate:  mu: +0.129771408  nElectrons: 351.000000  magneticMoment: [ Abs: 32.37646  Tot: +0.00000 ]
	SubspaceRotationAdjust: set factor to 0.091
ElecMinimize: Iter:  33  F: -2055.459125351120747  |grad|_K:  1.605e-05  alpha:  2.748e-01  linmin: -6.610e-05  t[s]:   3759.10
	FillingsUpdate:  mu: +0.126099281  nElectrons: 351.000000  magneticMoment: [ Abs: 32.82843  Tot: +0.00000 ]
	SubspaceRotationAdjust: set factor to 0.0825
ElecMinimize: Iter:  34  F: -2055.470969756992417  |grad|_K:  1.284e-05  alpha:  2.621e-01  linmin:  2.306e-04  t[s]:   3830.68
	FillingsUpdate:  mu: +0.124599182  nElectrons: 351.000000  magneticMoment: [ Abs: 33.36963  Tot: +0.00000 ]
	SubspaceRotationAdjust: set factor to 0.101
ElecMinimize: Iter:  35  F: -2055.481862216879563  |grad|_K:  1.157e-05  alpha:  3.800e-01  linmin: -2.206e-04  t[s]:   3902.66
	FillingsUpdate:  mu: +0.122452131  nElectrons: 351.000000  magneticMoment: [ Abs: 33.84754  Tot: +0.00000 ]
	SubspaceRotationAdjust: set factor to 0.107
ElecMinimize: Iter:  36  F: -2055.490662134331160  |grad|_K:  1.213e-05  alpha:  3.725e-01  linmin: -1.516e-04  t[s]:   3974.19
	FillingsUpdate:  mu: +0.126644031  nElectrons: 351.000000  magneticMoment: [ Abs: 34.26279  Tot: -0.00000 ]
	SubspaceRotationAdjust: set factor to 0.0993
ElecMinimize: Iter:  37  F: -2055.499047603374493  |grad|_K:  1.214e-05  alpha:  3.256e-01  linmin: -3.095e-04  t[s]:   4046.47
	FillingsUpdate:  mu: +0.121330466  nElectrons: 351.000000  magneticMoment: [ Abs: 34.76964  Tot: +0.00000 ]
	SubspaceRotationAdjust: set factor to 0.12
ElecMinimize: Iter:  38  F: -2055.508230190508129  |grad|_K:  1.094e-05  alpha:  3.500e-01  linmin: -2.076e-04  t[s]:   4117.85
	FillingsUpdate:  mu: +0.121735488  nElectrons: 351.000000  magneticMoment: [ Abs: 35.24027  Tot: -0.00000 ]
	SubspaceRotationAdjust: set factor to 0.14
ElecMinimize: Iter:  39  F: -2055.516715038027996  |grad|_K:  1.061e-05  alpha:  3.995e-01  linmin: -2.621e-04  t[s]:   4189.29
	FillingsUpdate:  mu: +0.124890987  nElectrons: 351.000000  magneticMoment: [ Abs: 35.58679  Tot: -0.00000 ]
	SubspaceRotationAdjust: set factor to 0.148
ElecMinimize: Iter:  40  F: -2055.523278855971057  |grad|_K:  1.085e-05  alpha:  3.223e-01  linmin:  3.489e-04  t[s]:   4261.36
	FillingsUpdate:  mu: +0.123407421  nElectrons: 351.000000  magneticMoment: [ Abs: 35.99024  Tot: -0.00000 ]
	SubspaceRotationAdjust: set factor to 0.143
ElecMinimize: Iter:  41  F: -2055.528932003507634  |grad|_K:  1.032e-05  alpha:  2.826e-01  linmin: -2.269e-04  t[s]:   4332.65
	FillingsUpdate:  mu: +0.125243921  nElectrons: 351.000000  magneticMoment: [ Abs: 36.50826  Tot: +0.00000 ]
	SubspaceRotationAdjust: set factor to 0.153
ElecMinimize: Iter:  42  F: -2055.535309225941091  |grad|_K:  1.003e-05  alpha:  3.373e-01  linmin:  1.447e-04  t[s]:   4404.58
	FillingsUpdate:  mu: +0.126147281  nElectrons: 351.000000  magneticMoment: [ Abs: 36.93315  Tot: -0.00000 ]
	SubspaceRotationAdjust: set factor to 0.116
ElecMinimize: Iter:  43  F: -2055.539955484089660  |grad|_K:  1.222e-05  alpha:  2.474e-01  linmin:  5.857e-04  t[s]:   4477.03
	FillingsUpdate:  mu: +0.117381918  nElectrons: 351.000000  magneticMoment: [ Abs: 37.34159  Tot: -0.00000 ]
	SubspaceRotationAdjust: set factor to 0.167
ElecMinimize: Iter:  44  F: -2055.544079227573548  |grad|_K:  1.073e-05  alpha:  1.695e-01  linmin: -7.635e-05  t[s]:   4548.89
	FillingsUpdate:  mu: +0.115382505  nElectrons: 351.000000  magneticMoment: [ Abs: 37.68807  Tot: -0.00000 ]
	SubspaceRotationAdjust: set factor to 0.167
ElecMinimize: Iter:  45  F: -2055.548400064065845  |grad|_K:  1.155e-05  alpha:  2.112e-01  linmin: -2.454e-04  t[s]:   4620.29
	FillingsUpdate:  mu: +0.122298252  nElectrons: 351.000000  magneticMoment: [ Abs: 38.03574  Tot: +0.00000 ]
	SubspaceRotationAdjust: set factor to 0.215
ElecMinimize: Iter:  46  F: -2055.552696469786952  |grad|_K:  1.007e-05  alpha:  1.796e-01  linmin: -5.429e-05  t[s]:   4691.98
	FillingsUpdate:  mu: +0.130296567  nElectrons: 351.000000  magneticMoment: [ Abs: 38.34849  Tot: -0.00000 ]
	SubspaceRotationAdjust: set factor to 0.212
ElecMinimize: Iter:  47  F: -2055.556810570740254  |grad|_K:  1.120e-05  alpha:  2.261e-01  linmin: -4.715e-04  t[s]:   4763.57
	FillingsUpdate:  mu: +0.119895066  nElectrons: 351.000000  magneticMoment: [ Abs: 38.60067  Tot: +0.00000 ]
	SubspaceRotationAdjust: set factor to 0.235
ElecMinimize: Iter:  48  F: -2055.560755911507840  |grad|_K:  9.350e-06  alpha:  1.710e-01  linmin: -4.375e-05  t[s]:   4835.54
	FillingsUpdate:  mu: +0.115331961  nElectrons: 351.000000  magneticMoment: [ Abs: 38.90426  Tot: -0.00000 ]
	SubspaceRotationAdjust: set factor to 0.287
ElecMinimize: Iter:  49  F: -2055.565086017870726  |grad|_K:  9.912e-06  alpha:  2.787e-01  linmin: -1.695e-04  t[s]:   4907.38
	FillingsUpdate:  mu: +0.123757837  nElectrons: 351.000000  magneticMoment: [ Abs: 39.08399  Tot: -0.00000 ]
	SubspaceRotationAdjust: set factor to 0.28
ElecMinimize: Iter:  50  F: -2055.568143592342949  |grad|_K:  1.037e-05  alpha:  1.644e-01  linmin: -1.281e-04  t[s]:   4978.73
	FillingsUpdate:  mu: +0.119163374  nElectrons: 351.000000  magneticMoment: [ Abs: 39.19187  Tot: +0.00000 ]
	SubspaceRotationAdjust: set factor to 0.35
ElecMinimize: Iter:  51  F: -2055.571736777901151  |grad|_K:  8.880e-06  alpha:  1.863e-01  linmin: -1.943e-04  t[s]:   5050.27
	FillingsUpdate:  mu: +0.120645633  nElectrons: 351.000000  magneticMoment: [ Abs: 39.26417  Tot: -0.00000 ]
	SubspaceRotationAdjust: set factor to 0.306
ElecMinimize: Iter:  52  F: -2055.574800044700169  |grad|_K:  1.029e-05  alpha:  2.143e-01  linmin: -1.880e-04  t[s]:   5121.36
	FillingsUpdate:  mu: +0.123391635  nElectrons: 351.000000  magneticMoment: [ Abs: 39.35686  Tot: +0.00000 ]
	SubspaceRotationAdjust: set factor to 0.253
ElecMinimize: Iter:  53  F: -2055.576924326365770  |grad|_K:  8.302e-06  alpha:  1.136e-01  linmin:  2.416e-05  t[s]:   5192.83
	FillingsUpdate:  mu: +0.119952196  nElectrons: 351.000000  magneticMoment: [ Abs: 39.38299  Tot: +0.00000 ]
	SubspaceRotationAdjust: set factor to 0.301
ElecMinimize: Iter:  54  F: -2055.579674654527480  |grad|_K:  6.531e-06  alpha:  2.289e-01  linmin:  5.891e-05  t[s]:   5264.49
	FillingsUpdate:  mu: +0.121916788  nElectrons: 351.000000  magneticMoment: [ Abs: 39.36262  Tot: -0.00000 ]
	SubspaceRotationAdjust: set factor to 0.319
ElecMinimize: Iter:  55  F: -2055.581512992828721  |grad|_K:  6.829e-06  alpha:  2.501e-01  linmin:  5.260e-04  t[s]:   5336.48
	FillingsUpdate:  mu: +0.120091554  nElectrons: 351.000000  magneticMoment: [ Abs: 39.36351  Tot: +0.00000 ]
	SubspaceRotationAdjust: set factor to 0.346
ElecMinimize: Iter:  56  F: -2055.582602613126255  |grad|_K:  5.998e-06  alpha:  1.457e-01  linmin:  3.251e-05  t[s]:   5408.23
	FillingsUpdate:  mu: +0.120256522  nElectrons: 351.000000  magneticMoment: [ Abs: 39.31958  Tot: +0.00000 ]
	SubspaceRotationAdjust: set factor to 0.439
ElecMinimize: Iter:  57  F: -2055.583888684665908  |grad|_K:  5.069e-06  alpha:  2.038e-01  linmin: -1.322e-04  t[s]:   5479.69
	FillingsUpdate:  mu: +0.119564216  nElectrons: 351.000000  magneticMoment: [ Abs: 39.28047  Tot: +0.00000 ]
	SubspaceRotationAdjust: set factor to 0.543
ElecMinimize: Iter:  58  F: -2055.585024030896420  |grad|_K:  4.598e-06  alpha:  2.473e-01  linmin: -2.193e-04  t[s]:   5551.67
	FillingsUpdate:  mu: +0.121287934  nElectrons: 351.000000  magneticMoment: [ Abs: 39.23030  Tot: -0.00000 ]
	SubspaceRotationAdjust: set factor to 0.603
ElecMinimize: Iter:  59  F: -2055.586008052494890  |grad|_K:  4.867e-06  alpha:  2.589e-01  linmin:  1.786e-05  t[s]:   5622.88
	FillingsUpdate:  mu: +0.121522211  nElectrons: 351.000000  magneticMoment: [ Abs: 39.16554  Tot: +0.00000 ]
	SubspaceRotationAdjust: set factor to 0.494
ElecMinimize: Iter:  60  F: -2055.586511529281779  |grad|_K:  5.663e-06  alpha:  1.242e-01  linmin:  3.091e-05  t[s]:   5694.44
	FillingsUpdate:  mu: +0.121607997  nElectrons: 351.000000  magneticMoment: [ Abs: 39.12673  Tot: -0.00000 ]
	SubspaceRotationAdjust: set factor to 0.409
ElecMinimize: Iter:  61  F: -2055.587082273379110  |grad|_K:  3.938e-06  alpha:  1.013e-01  linmin:  5.667e-05  t[s]:   5765.70
	FillingsUpdate:  mu: +0.121463057  nElectrons: 351.000000  magneticMoment: [ Abs: 39.06418  Tot: -0.00000 ]
	SubspaceRotationAdjust: set factor to 0.475
ElecMinimize: Iter:  62  F: -2055.587642307246369  |grad|_K:  3.204e-06  alpha:  2.079e-01  linmin: -5.027e-05  t[s]:   5837.26
	FillingsUpdate:  mu: +0.120382598  nElectrons: 351.000000  magneticMoment: [ Abs: 39.01542  Tot: +0.00000 ]
	SubspaceRotationAdjust: set factor to 0.541
ElecMinimize: Iter:  63  F: -2055.588058489064224  |grad|_K:  2.810e-06  alpha:  2.294e-01  linmin: -1.679e-05  t[s]:   5909.12
	FillingsUpdate:  mu: +0.121199911  nElectrons: 351.000000  magneticMoment: [ Abs: 38.99460  Tot: +0.00000 ]
	SubspaceRotationAdjust: set factor to 0.46
ElecMinimize: Iter:  64  F: -2055.588314795245424  |grad|_K:  3.325e-06  alpha:  1.846e-01  linmin:  1.680e-05  t[s]:   5980.96
	FillingsUpdate:  mu: +0.120308379  nElectrons: 351.000000  magneticMoment: [ Abs: 38.95997  Tot: -0.00000 ]
	SubspaceRotationAdjust: set factor to 0.386
ElecMinimize: Iter:  65  F: -2055.588490035123414  |grad|_K:  2.509e-06  alpha:  9.303e-02  linmin:  8.620e-05  t[s]:   6052.97
	FillingsUpdate:  mu: +0.120893238  nElectrons: 351.000000  magneticMoment: [ Abs: 38.93857  Tot: -0.00000 ]
	SubspaceRotationAdjust: set factor to 0.459
ElecMinimize: Iter:  66  F: -2055.588704445484836  |grad|_K:  2.025e-06  alpha:  1.976e-01  linmin:  6.185e-05  t[s]:   6125.14
	FillingsUpdate:  mu: +0.121428837  nElectrons: 351.000000  magneticMoment: [ Abs: 38.92518  Tot: -0.00000 ]
	SubspaceRotationAdjust: set factor to 0.529
ElecMinimize: Iter:  67  F: -2055.588869024494670  |grad|_K:  2.077e-06  alpha:  2.312e-01  linmin:  1.506e-05  t[s]:   6196.80
	FillingsUpdate:  mu: +0.120910772  nElectrons: 351.000000  magneticMoment: [ Abs: 38.91157  Tot: -0.00000 ]
	SubspaceRotationAdjust: set factor to 0.474
ElecMinimize: Iter:  68  F: -2055.588966430691471  |grad|_K:  2.185e-06  alpha:  1.320e-01  linmin:  4.938e-05  t[s]:   6268.24
	FillingsUpdate:  mu: +0.120836253  nElectrons: 351.000000  magneticMoment: [ Abs: 38.92071  Tot: +0.00000 ]
	SubspaceRotationAdjust: set factor to 0.482
ElecMinimize: Iter:  69  F: -2055.589080596844269  |grad|_K:  1.700e-06  alpha:  1.375e-01  linmin: -1.237e-05  t[s]:   6340.41
	FillingsUpdate:  mu: +0.120713227  nElectrons: 351.000000  magneticMoment: [ Abs: 38.92669  Tot: -0.00000 ]
	SubspaceRotationAdjust: set factor to 0.563
ElecMinimize: Iter:  70  F: -2055.589194717291775  |grad|_K:  1.537e-06  alpha:  2.250e-01  linmin: -2.401e-05  t[s]:   6411.94
	FillingsUpdate:  mu: +0.121110470  nElectrons: 351.000000  magneticMoment: [ Abs: 38.93053  Tot: -0.00000 ]
	SubspaceRotationAdjust: set factor to 0.662
ElecMinimize: Iter:  71  F: -2055.589294318030170  |grad|_K:  1.397e-06  alpha:  2.400e-01  linmin:  4.863e-06  t[s]:   6483.72
	FillingsUpdate:  mu: +0.121185622  nElectrons: 351.000000  magneticMoment: [ Abs: 38.94109  Tot: +0.00000 ]
	SubspaceRotationAdjust: set factor to 0.787
ElecMinimize: Iter:  72  F: -2055.589379788616952  |grad|_K:  1.360e-06  alpha:  2.508e-01  linmin:  3.545e-06  t[s]:   6555.30
	FillingsUpdate:  mu: +0.120746878  nElectrons: 351.000000  magneticMoment: [ Abs: 38.95476  Tot: -0.00000 ]
	SubspaceRotationAdjust: set factor to 0.811
ElecMinimize: Iter:  73  F: -2055.589444226042815  |grad|_K:  1.477e-06  alpha:  2.001e-01  linmin: -1.538e-05  t[s]:   6626.67
	FillingsUpdate:  mu: +0.120778800  nElectrons: 351.000000  magneticMoment: [ Abs: 38.96730  Tot: +0.00000 ]
	SubspaceRotationAdjust: set factor to 0.667
ElecMinimize: Iter:  74  F: -2055.589477746788816  |grad|_K:  1.550e-06  alpha:  8.688e-02  linmin: -2.785e-05  t[s]:   6698.09
	FillingsUpdate:  mu: +0.120631419  nElectrons: 351.000000  magneticMoment: [ Abs: 38.97006  Tot: +0.00000 ]
	SubspaceRotationAdjust: set factor to 0.628
ElecMinimize: Iter:  75  F: -2055.589525124421925  |grad|_K:  1.147e-06  alpha:  1.120e-01  linmin: -2.787e-05  t[s]:   6770.03
	FillingsUpdate:  mu: +0.120715192  nElectrons: 351.000000  magneticMoment: [ Abs: 38.98263  Tot: +0.00000 ]
	SubspaceRotationAdjust: set factor to 0.742
ElecMinimize: Iter:  76  F: -2055.589574227905359  |grad|_K:  9.891e-07  alpha:  2.122e-01  linmin: -1.412e-05  t[s]:   6841.60
	FillingsUpdate:  mu: +0.120780187  nElectrons: 351.000000  magneticMoment: [ Abs: 38.99254  Tot: -0.00000 ]
	SubspaceRotationAdjust: set factor to 0.874
ElecMinimize: Iter:  77  F: -2055.589615909235363  |grad|_K:  9.831e-07  alpha:  2.430e-01  linmin: -6.274e-06  t[s]:   6913.41
	FillingsUpdate:  mu: +0.120640433  nElectrons: 351.000000  magneticMoment: [ Abs: 38.99137  Tot: +0.00000 ]
	SubspaceRotationAdjust: set factor to 0.658
ElecMinimize: Iter:  78  F: -2055.589642767890837  |grad|_K:  1.292e-06  alpha:  1.590e-01  linmin:  4.598e-07  t[s]:   6985.07
	FillingsUpdate:  mu: +0.120708404  nElectrons: 351.000000  magneticMoment: [ Abs: 38.99792  Tot: -0.00000 ]
	SubspaceRotationAdjust: set factor to 0.546
ElecMinimize: Iter:  79  F: -2055.589663252128958  |grad|_K:  9.704e-07  alpha:  6.960e-02  linmin: -3.487e-05  t[s]:   7057.40
	FillingsUpdate:  mu: +0.120605857  nElectrons: 351.000000  magneticMoment: [ Abs: 39.00208  Tot: -0.00000 ]
	SubspaceRotationAdjust: set factor to 0.698
ElecMinimize: Iter:  80  F: -2055.589694744251119  |grad|_K:  8.391e-07  alpha:  1.899e-01  linmin: -1.715e-05  t[s]:   7128.72
	FillingsUpdate:  mu: +0.120511315  nElectrons: 351.000000  magneticMoment: [ Abs: 38.99852  Tot: +0.00000 ]
	SubspaceRotationAdjust: set factor to 0.559
ElecMinimize: Iter:  81  F: -2055.589716556260100  |grad|_K:  1.065e-06  alpha:  1.767e-01  linmin: -5.602e-06  t[s]:   7200.23
	FillingsUpdate:  mu: +0.120682111  nElectrons: 351.000000  magneticMoment: [ Abs: 39.00044  Tot: +0.00000 ]
	SubspaceRotationAdjust: set factor to 0.475
ElecMinimize: Iter:  82  F: -2055.589732675138293  |grad|_K:  7.920e-07  alpha:  7.989e-02  linmin: -5.712e-05  t[s]:   7271.87
	FillingsUpdate:  mu: +0.120706108  nElectrons: 351.000000  magneticMoment: [ Abs: 38.99909  Tot: +0.00000 ]
	SubspaceRotationAdjust: set factor to 0.638
ElecMinimize: Iter:  83  F: -2055.589757881458354  |grad|_K:  7.922e-07  alpha:  2.276e-01  linmin:  7.880e-06  t[s]:   7343.43
	FillingsUpdate:  mu: +0.120586187  nElectrons: 351.000000  magneticMoment: [ Abs: 38.99611  Tot: -0.00000 ]
	SubspaceRotationAdjust: set factor to 0.574
ElecMinimize: Iter:  84  F: -2055.589772425939373  |grad|_K:  9.136e-07  alpha:  1.333e-01  linmin:  7.450e-06  t[s]:   7414.94
	FillingsUpdate:  mu: +0.120636369  nElectrons: 351.000000  magneticMoment: [ Abs: 38.99897  Tot: +0.00000 ]
	SubspaceRotationAdjust: set factor to 0.544
ElecMinimize: Iter:  85  F: -2055.589790246523989  |grad|_K:  7.367e-07  alpha:  1.221e-01  linmin:  2.700e-05  t[s]:   7486.59
	FillingsUpdate:  mu: +0.120628107  nElectrons: 351.000000  magneticMoment: [ Abs: 38.99538  Tot: +0.00000 ]
	SubspaceRotationAdjust: set factor to 0.645
ElecMinimize: Iter:  86  F: -2055.589811142497638  |grad|_K:  6.860e-07  alpha:  2.213e-01  linmin:  1.096e-05  t[s]:   7558.25
	FillingsUpdate:  mu: +0.120592001  nElectrons: 351.000000  magneticMoment: [ Abs: 38.99247  Tot: +0.00000 ]
	SubspaceRotationAdjust: set factor to 0.708
ElecMinimize: Iter:  87  F: -2055.589831335146300  |grad|_K:  8.092e-07  alpha:  2.458e-01  linmin:  3.146e-06  t[s]:   7630.02
	FillingsUpdate:  mu: +0.120731436  nElectrons: 351.000000  magneticMoment: [ Abs: 38.99635  Tot: +0.00000 ]
	SubspaceRotationAdjust: set factor to 0.599
ElecMinimize: Iter:  88  F: -2055.589843136068794  |grad|_K:  8.665e-07  alpha:  1.013e-01  linmin: -7.759e-05  t[s]:   7701.82
	FillingsUpdate:  mu: +0.120641336  nElectrons: 351.000000  magneticMoment: [ Abs: 38.99600  Tot: +0.00000 ]
	SubspaceRotationAdjust: set factor to 0.591
ElecMinimize: Iter:  89  F: -2055.589861245965949  |grad|_K:  7.394e-07  alpha:  1.363e-01  linmin: -7.594e-06  t[s]:   7773.66
	FillingsUpdate:  mu: +0.120722209  nElectrons: 351.000000  magneticMoment: [ Abs: 38.99660  Tot: -0.00000 ]
	SubspaceRotationAdjust: set factor to 0.635
ElecMinimize: Iter:  90  F: -2055.589881618478103  |grad|_K:  7.030e-07  alpha:  2.131e-01  linmin:  1.662e-05  t[s]:   7844.98
	FillingsUpdate:  mu: +0.120682768  nElectrons: 351.000000  magneticMoment: [ Abs: 38.99817  Tot: -0.00000 ]
	SubspaceRotationAdjust: set factor to 0.712
ElecMinimize: Iter:  91  F: -2055.589902543758853  |grad|_K:  7.493e-07  alpha:  2.428e-01  linmin: -4.541e-06  t[s]:   7917.85
	FillingsUpdate:  mu: +0.120811198  nElectrons: 351.000000  magneticMoment: [ Abs: 39.00549  Tot: -0.00000 ]
	SubspaceRotationAdjust: set factor to 0.609
ElecMinimize: Iter:  92  F: -2055.589917477759172  |grad|_K:  9.505e-07  alpha:  1.514e-01  linmin: -3.693e-06  t[s]:   7990.47
	FillingsUpdate:  mu: +0.120667594  nElectrons: 351.000000  magneticMoment: [ Abs: 39.00624  Tot: +0.00000 ]
	SubspaceRotationAdjust: set factor to 0.513
ElecMinimize: Iter:  93  F: -2055.589932475181740  |grad|_K:  7.872e-07  alpha:  9.523e-02  linmin:  2.615e-06  t[s]:   8062.53
	FillingsUpdate:  mu: +0.120757231  nElectrons: 351.000000  magneticMoment: [ Abs: 39.01005  Tot: +0.00000 ]
	SubspaceRotationAdjust: set factor to 0.537
ElecMinimize: Iter:  94  F: -2055.589952937852559  |grad|_K:  7.226e-07  alpha:  1.895e-01  linmin:  2.730e-05  t[s]:   8134.56
	FillingsUpdate:  mu: +0.120770668  nElectrons: 351.000000  magneticMoment: [ Abs: 39.01508  Tot: -0.00000 ]
	SubspaceRotationAdjust: set factor to 0.645
ElecMinimize: Iter:  95  F: -2055.589976202798880  |grad|_K:  7.263e-07  alpha:  2.562e-01  linmin: -2.923e-07  t[s]:   8206.96
	FillingsUpdate:  mu: +0.120698293  nElectrons: 351.000000  magneticMoment: [ Abs: 39.02101  Tot: +0.00000 ]
	SubspaceRotationAdjust: set factor to 0.699
ElecMinimize: Iter:  96  F: -2055.589998712181568  |grad|_K:  8.260e-07  alpha:  2.440e-01  linmin: -1.496e-05  t[s]:   8278.46
	FillingsUpdate:  mu: +0.120842351  nElectrons: 351.000000  magneticMoment: [ Abs: 39.02640  Tot: +0.00000 ]
	SubspaceRotationAdjust: set factor to 0.601
ElecMinimize: Iter:  97  F: -2055.590018578910531  |grad|_K:  1.056e-06  alpha:  1.655e-01  linmin:  1.461e-07  t[s]:   8349.82
	FillingsUpdate:  mu: +0.120713842  nElectrons: 351.000000  magneticMoment: [ Abs: 39.02370  Tot: +0.00000 ]
	SubspaceRotationAdjust: set factor to 0.503
ElecMinimize: Iter:  98  F: -2055.590036417429474  |grad|_K:  9.028e-07  alpha:  9.239e-02  linmin:  1.753e-05  t[s]:   8422.12
	FillingsUpdate:  mu: +0.120773041  nElectrons: 351.000000  magneticMoment: [ Abs: 39.02734  Tot: -0.00000 ]
	SubspaceRotationAdjust: set factor to 0.622
ElecMinimize: Iter:  99  F: -2055.590068049074034  |grad|_K:  8.653e-07  alpha:  2.229e-01  linmin:  6.680e-06  t[s]:   8493.40
	FillingsUpdate:  mu: +0.120844869  nElectrons: 351.000000  magneticMoment: [ Abs: 39.03191  Tot: +0.00000 ]
	SubspaceRotationAdjust: set factor to 0.654
ElecMinimize: Iter: 100  F: -2055.590099611095866  |grad|_K:  1.052e-06  alpha:  2.413e-01  linmin: -8.317e-06  t[s]:   8564.87
	FillingsUpdate:  mu: +0.120669897  nElectrons: 351.000000  magneticMoment: [ Abs: 39.02697  Tot: +0.00000 ]
	SubspaceRotationAdjust: set factor to 0.563
ElecMinimize: Iter: 101  F: -2055.590121958517557  |grad|_K:  1.161e-06  alpha:  1.171e-01  linmin:  3.362e-05  t[s]:   8636.23
	FillingsUpdate:  mu: +0.120732744  nElectrons: 351.000000  magneticMoment: [ Abs: 39.02731  Tot: -0.00000 ]
	SubspaceRotationAdjust: set factor to 0.541
ElecMinimize: Iter: 102  F: -2055.590154659734253  |grad|_K:  1.004e-06  alpha:  1.399e-01  linmin:  6.791e-06  t[s]:   8708.03
	FillingsUpdate:  mu: +0.120677575  nElectrons: 351.000000  magneticMoment: [ Abs: 39.02636  Tot: -0.00000 ]
	SubspaceRotationAdjust: set factor to 0.641
ElecMinimize: Iter: 103  F: -2055.590198485700967  |grad|_K:  1.015e-06  alpha:  2.494e-01  linmin:  4.815e-06  t[s]:   8779.82
	FillingsUpdate:  mu: +0.120590975  nElectrons: 351.000000  magneticMoment: [ Abs: 39.02244  Tot: +0.00000 ]
	SubspaceRotationAdjust: set factor to 0.652
ElecMinimize: Iter: 104  F: -2055.590238318306547  |grad|_K:  1.253e-06  alpha:  2.214e-01  linmin: -8.018e-06  t[s]:   8851.75
	FillingsUpdate:  mu: +0.120754738  nElectrons: 351.000000  magneticMoment: [ Abs: 39.02363  Tot: +0.00000 ]
	SubspaceRotationAdjust: set factor to 0.559
ElecMinimize: Iter: 105  F: -2055.590268184573688  |grad|_K:  1.253e-06  alpha:  1.076e-01  linmin: -2.063e-05  t[s]:   8923.10
	FillingsUpdate:  mu: +0.120665682  nElectrons: 351.000000  magneticMoment: [ Abs: 39.01315  Tot: +0.00000 ]
	SubspaceRotationAdjust: set factor to 0.567
ElecMinimize: Iter: 106  F: -2055.590312396248009  |grad|_K:  1.116e-06  alpha:  1.605e-01  linmin:  1.002e-05  t[s]:   8994.99
	FillingsUpdate:  mu: +0.120619537  nElectrons: 351.000000  magneticMoment: [ Abs: 39.00970  Tot: +0.00000 ]
	SubspaceRotationAdjust: set factor to 0.675
ElecMinimize: Iter: 107  F: -2055.590364714081261  |grad|_K:  1.101e-06  alpha:  2.411e-01  linmin:  1.296e-05  t[s]:   9066.44
	FillingsUpdate:  mu: +0.120667963  nElectrons: 351.000000  magneticMoment: [ Abs: 39.01363  Tot: -0.00000 ]
	SubspaceRotationAdjust: set factor to 0.693
ElecMinimize: Iter: 108  F: -2055.590409264920709  |grad|_K:  1.326e-06  alpha:  2.108e-01  linmin:  4.528e-06  t[s]:   9137.94
	FillingsUpdate:  mu: +0.120574643  nElectrons: 351.000000  magneticMoment: [ Abs: 39.00812  Tot: +0.00000 ]
	SubspaceRotationAdjust: set factor to 0.598
ElecMinimize: Iter: 109  F: -2055.590440455343924  |grad|_K:  1.303e-06  alpha:  1.006e-01  linmin: -2.354e-05  t[s]:   9209.40
	FillingsUpdate:  mu: +0.120694324  nElectrons: 351.000000  magneticMoment: [ Abs: 39.00808  Tot: +0.00000 ]
	SubspaceRotationAdjust: set factor to 0.612
ElecMinimize: Iter: 110  F: -2055.590482455480014  |grad|_K:  1.097e-06  alpha:  1.406e-01  linmin: -7.084e-06  t[s]:   9280.94
	FillingsUpdate:  mu: +0.120768830  nElectrons: 351.000000  magneticMoment: [ Abs: 39.01174  Tot: +0.00000 ]
	SubspaceRotationAdjust: set factor to 0.739
ElecMinimize: Iter: 111  F: -2055.590529299327045  |grad|_K:  1.035e-06  alpha:  2.225e-01  linmin:  1.223e-05  t[s]:   9352.33
	FillingsUpdate:  mu: +0.120638831  nElectrons: 351.000000  magneticMoment: [ Abs: 39.01595  Tot: +0.00000 ]
	SubspaceRotationAdjust: set factor to 0.688
ElecMinimize: Iter: 112  F: -2055.590563037821539  |grad|_K:  1.243e-06  alpha:  1.804e-01  linmin:  8.510e-06  t[s]:   9424.66
	FillingsUpdate:  mu: +0.120718708  nElectrons: 351.000000  magneticMoment: [ Abs: 39.02387  Tot: +0.00000 ]
	SubspaceRotationAdjust: set factor to 0.575
ElecMinimize: Iter: 113  F: -2055.590585433673368  |grad|_K:  1.085e-06  alpha:  8.303e-02  linmin: -2.481e-06  t[s]:   9497.03
	FillingsUpdate:  mu: +0.120676305  nElectrons: 351.000000  magneticMoment: [ Abs: 39.02535  Tot: -0.00000 ]
	SubspaceRotationAdjust: set factor to 0.607
ElecMinimize: Iter: 114  F: -2055.590615903259732  |grad|_K:  9.148e-07  alpha:  1.482e-01  linmin:  1.403e-05  t[s]:   9568.84
	FillingsUpdate:  mu: +0.120778170  nElectrons: 351.000000  magneticMoment: [ Abs: 39.03111  Tot: -0.00000 ]
	SubspaceRotationAdjust: set factor to 0.745
ElecMinimize: Iter: 115  F: -2055.590645910735930  |grad|_K:  8.633e-07  alpha:  2.059e-01  linmin:  1.397e-05  t[s]:   9640.25
	FillingsUpdate:  mu: +0.120917211  nElectrons: 351.000000  magneticMoment: [ Abs: 39.03903  Tot: -0.00000 ]
	SubspaceRotationAdjust: set factor to 0.615
ElecMinimize: Iter: 116  F: -2055.590665528797672  |grad|_K:  1.088e-06  alpha:  1.510e-01  linmin: -1.403e-06  t[s]:   9711.66
	FillingsUpdate:  mu: +0.120750805  nElectrons: 351.000000  magneticMoment: [ Abs: 39.03875  Tot: +0.00000 ]
	SubspaceRotationAdjust: set factor to 0.558
ElecMinimize: Iter: 117  F: -2055.590683381220060  |grad|_K:  8.519e-07  alpha:  8.624e-02  linmin:  1.058e-06  t[s]:   9783.41
	FillingsUpdate:  mu: +0.120699407  nElectrons: 351.000000  magneticMoment: [ Abs: 39.04140  Tot: -0.00000 ]
	SubspaceRotationAdjust: set factor to 0.644
ElecMinimize: Iter: 118  F: -2055.590705417112986  |grad|_K:  7.612e-07  alpha:  1.734e-01  linmin: -1.751e-05  t[s]:   9856.00
	FillingsUpdate:  mu: +0.120763949  nElectrons: 351.000000  magneticMoment: [ Abs: 39.04583  Tot: +0.00000 ]
	SubspaceRotationAdjust: set factor to 0.748
ElecMinimize: Iter: 119  F: -2055.590726979678948  |grad|_K:  8.089e-07  alpha:  2.120e-01  linmin: -8.994e-06  t[s]:   9930.02
	FillingsUpdate:  mu: +0.120726881  nElectrons: 351.000000  magneticMoment: [ Abs: 39.04403  Tot: -0.00000 ]
	SubspaceRotationAdjust: set factor to 0.656
ElecMinimize: Iter: 120  F: -2055.590739161756119  |grad|_K:  8.954e-07  alpha:  1.064e-01  linmin:  2.505e-06  t[s]:  10003.98
	FillingsUpdate:  mu: +0.120839786  nElectrons: 351.000000  magneticMoment: [ Abs: 39.04608  Tot: -0.00000 ]
	SubspaceRotationAdjust: set factor to 0.664
ElecMinimize: Iter: 121  F: -2055.590755776353490  |grad|_K:  7.290e-07  alpha:  1.185e-01  linmin: -6.679e-06  t[s]:  10078.52
	FillingsUpdate:  mu: +0.120765323  nElectrons: 351.000000  magneticMoment: [ Abs: 39.04189  Tot: +0.00000 ]
	SubspaceRotationAdjust: set factor to 0.718
ElecMinimize: Iter: 122  F: -2055.590773364259803  |grad|_K:  6.874e-07  alpha:  1.889e-01  linmin: -6.113e-06  t[s]:  10150.95
	FillingsUpdate:  mu: +0.120672263  nElectrons: 351.000000  magneticMoment: [ Abs: 39.04084  Tot: -0.00000 ]
	SubspaceRotationAdjust: set factor to 0.852
ElecMinimize: Iter: 123  F: -2055.590791094646647  |grad|_K:  6.515e-07  alpha:  2.143e-01  linmin: -5.085e-06  t[s]:  10222.93
	FillingsUpdate:  mu: +0.120621868  nElectrons: 351.000000  magneticMoment: [ Abs: 39.03688  Tot: -0.00000 ]
	SubspaceRotationAdjust: set factor to 0.936
ElecMinimize: Iter: 124  F: -2055.590807043193308  |grad|_K:  7.276e-07  alpha:  2.147e-01  linmin: -5.804e-06  t[s]:  10294.26
	FillingsUpdate:  mu: +0.120764269  nElectrons: 351.000000  magneticMoment: [ Abs: 39.03450  Tot: -0.00000 ]
	SubspaceRotationAdjust: set factor to 0.753
ElecMinimize: Iter: 125  F: -2055.590817496097316  |grad|_K:  8.850e-07  alpha:  1.118e-01  linmin: -2.232e-05  t[s]:  10366.12
	FillingsUpdate:  mu: +0.120688016  nElectrons: 351.000000  magneticMoment: [ Abs: 39.02708  Tot: +0.00000 ]
	SubspaceRotationAdjust: set factor to 0.641
ElecMinimize: Iter: 126  F: -2055.590827811130112  |grad|_K:  7.143e-07  alpha:  7.522e-02  linmin: -7.472e-07  t[s]:  10437.70
	FillingsUpdate:  mu: +0.120701243  nElectrons: 351.000000  magneticMoment: [ Abs: 39.02426  Tot: +0.00000 ]
	SubspaceRotationAdjust: set factor to 0.783
ElecMinimize: Iter: 127  F: -2055.590843889306143  |grad|_K:  6.282e-07  alpha:  1.803e-01  linmin:  7.595e-06  t[s]:  10509.06
	FillingsUpdate:  mu: +0.120654621  nElectrons: 351.000000  magneticMoment: [ Abs: 39.02234  Tot: +0.00000 ]
	SubspaceRotationAdjust: set factor to 0.832
ElecMinimize: Iter: 128  F: -2055.590859019544041  |grad|_K:  7.469e-07  alpha:  2.197e-01  linmin:  1.119e-05  t[s]:  10581.64
	FillingsUpdate:  mu: +0.120569262  nElectrons: 351.000000  magneticMoment: [ Abs: 39.01601  Tot: +0.00000 ]
	SubspaceRotationAdjust: set factor to 0.722
ElecMinimize: Iter: 129  F: -2055.590868065424274  |grad|_K:  8.222e-07  alpha:  9.420e-02  linmin:  3.992e-05  t[s]:  10653.39
	FillingsUpdate:  mu: +0.120643445  nElectrons: 351.000000  magneticMoment: [ Abs: 39.01234  Tot: -0.00000 ]
	SubspaceRotationAdjust: set factor to 0.672
ElecMinimize: Iter: 130  F: -2055.590880314960486  |grad|_K:  6.983e-07  alpha:  1.047e-01  linmin:  4.260e-05  t[s]:  10725.15
	FillingsUpdate:  mu: +0.120683201  nElectrons: 351.000000  magneticMoment: [ Abs: 39.00837  Tot: -0.00000 ]
	SubspaceRotationAdjust: set factor to 0.796
ElecMinimize: Iter: 131  F: -2055.590895719221407  |grad|_K:  6.296e-07  alpha:  1.820e-01  linmin: -1.924e-05  t[s]:  10797.15
	FillingsUpdate:  mu: +0.120560986  nElectrons: 351.000000  magneticMoment: [ Abs: 39.00550  Tot: -0.00000 ]
	SubspaceRotationAdjust: set factor to 0.87
ElecMinimize: Iter: 132  F: -2055.590910707014700  |grad|_K:  7.254e-07  alpha:  2.150e-01  linmin: -3.023e-05  t[s]:  10869.31
	FillingsUpdate:  mu: +0.120604410  nElectrons: 351.000000  magneticMoment: [ Abs: 39.00574  Tot: -0.00000 ]
	SubspaceRotationAdjust: set factor to 0.746
ElecMinimize: Iter: 133  F: -2055.590919135268450  |grad|_K:  7.880e-07  alpha:  8.863e-02  linmin: -8.806e-05  t[s]:  10941.90
	FillingsUpdate:  mu: +0.120489348  nElectrons: 351.000000  magneticMoment: [ Abs: 39.00053  Tot: -0.00000 ]
	SubspaceRotationAdjust: set factor to 0.702
ElecMinimize: Iter: 134  F: -2055.590930147959625  |grad|_K:  6.554e-07  alpha:  9.947e-02  linmin: -3.815e-05  t[s]:  11013.63
	FillingsUpdate:  mu: +0.120528072  nElectrons: 351.000000  magneticMoment: [ Abs: 38.99931  Tot: +0.00000 ]
	SubspaceRotationAdjust: set factor to 0.783
ElecMinimize: Iter: 135  F: -2055.590942993952012  |grad|_K:  5.670e-07  alpha:  1.699e-01  linmin:  9.447e-06  t[s]:  11085.73
	FillingsUpdate:  mu: +0.120547978  nElectrons: 351.000000  magneticMoment: [ Abs: 38.99781  Tot: -0.00000 ]
	SubspaceRotationAdjust: set factor to 0.922
ElecMinimize: Iter: 136  F: -2055.590954999055157  |grad|_K:  5.807e-07  alpha:  2.141e-01  linmin:  1.053e-05  t[s]:  11157.01
	FillingsUpdate:  mu: +0.120450373  nElectrons: 351.000000  magneticMoment: [ Abs: 38.99383  Tot: +0.00000 ]
	SubspaceRotationAdjust: set factor to 0.836
ElecMinimize: Iter: 137  F: -2055.590962762436902  |grad|_K:  6.752e-07  alpha:  1.329e-01  linmin:  5.493e-06  t[s]:  11228.13
	FillingsUpdate:  mu: +0.120476797  nElectrons: 351.000000  magneticMoment: [ Abs: 38.99471  Tot: -0.00000 ]
	SubspaceRotationAdjust: set factor to 0.708
ElecMinimize: Iter: 138  F: -2055.590968540727317  |grad|_K:  6.234e-07  alpha:  7.153e-02  linmin: -2.903e-05  t[s]:  11299.56
	FillingsUpdate:  mu: +0.120423649  nElectrons: 351.000000  magneticMoment: [ Abs: 38.99358  Tot: +0.00000 ]
	SubspaceRotationAdjust: set factor to 0.846
ElecMinimize: Iter: 139  F: -2055.590976965580467  |grad|_K:  4.687e-07  alpha:  1.224e-01  linmin: -7.038e-05  t[s]:  11371.25
	FillingsUpdate:  mu: +0.120375393  nElectrons: 351.000000  magneticMoment: [ Abs: 38.99118  Tot: -0.00000 ]
	SubspaceRotationAdjust: set factor to 0.795
ElecMinimize: Iter: 140  F: -2055.590984686971296  |grad|_K:  5.608e-07  alpha:  1.969e-01  linmin: -7.015e-05  t[s]:  11443.52
	FillingsUpdate:  mu: +0.120448640  nElectrons: 351.000000  magneticMoment: [ Abs: 38.99176  Tot: -0.00000 ]
	SubspaceRotationAdjust: set factor to 0.639
ElecMinimize: Iter: 141  F: -2055.590988344004927  |grad|_K:  4.872e-07  alpha:  6.393e-02  linmin: -1.058e-04  t[s]:  11515.25
	FillingsUpdate:  mu: +0.120394478  nElectrons: 351.000000  magneticMoment: [ Abs: 38.98950  Tot: -0.00000 ]
	SubspaceRotationAdjust: set factor to 0.798
ElecMinimize: Iter: 142  F: -2055.590994277045866  |grad|_K:  4.179e-07  alpha:  1.400e-01  linmin: -1.077e-05  t[s]:  11587.73
	FillingsUpdate:  mu: +0.120353828  nElectrons: 351.000000  magneticMoment: [ Abs: 38.98858  Tot: -0.00000 ]
	SubspaceRotationAdjust: set factor to 0.734
ElecMinimize: Iter: 143  F: -2055.590998624876647  |grad|_K:  4.736e-07  alpha:  1.421e-01  linmin: -5.478e-05  t[s]:  11659.86
	FillingsUpdate:  mu: +0.120393093  nElectrons: 351.000000  magneticMoment: [ Abs: 38.99006  Tot: -0.00000 ]
	SubspaceRotationAdjust: set factor to 0.604
ElecMinimize: Iter: 144  F: -2055.591001404445706  |grad|_K:  3.879e-07  alpha:  6.972e-02  linmin: -2.369e-05  t[s]:  11730.98
	FillingsUpdate:  mu: +0.120373612  nElectrons: 351.000000  magneticMoment: [ Abs: 38.98903  Tot: -0.00000 ]
	SubspaceRotationAdjust: set factor to 0.855
ElecMinimize: Iter: 145  F: -2055.591005741680419  |grad|_K:  3.349e-07  alpha:  1.641e-01  linmin: -9.593e-06  t[s]:  11802.38
	FillingsUpdate:  mu: +0.120307238  nElectrons: 351.000000  magneticMoment: [ Abs: 38.98742  Tot: +0.00000 ]
	SubspaceRotationAdjust: set factor to 0.704
ElecMinimize: Iter: 146  F: -2055.591008216400496  |grad|_K:  4.157e-07  alpha:  1.265e-01  linmin: -1.665e-05  t[s]:  11873.73
	FillingsUpdate:  mu: +0.120333050  nElectrons: 351.000000  magneticMoment: [ Abs: 38.98879  Tot: +0.00000 ]
	SubspaceRotationAdjust: set factor to 0.664
ElecMinimize: Iter: 147  F: -2055.591010750633359  |grad|_K:  3.162e-07  alpha:  8.316e-02  linmin: -1.574e-06  t[s]:  11945.33
	FillingsUpdate:  mu: +0.120324880  nElectrons: 351.000000  magneticMoment: [ Abs: 38.99014  Tot: +0.00000 ]
	SubspaceRotationAdjust: set factor to 0.778
ElecMinimize: Iter: 148  F: -2055.591013655107417  |grad|_K:  2.849e-07  alpha:  1.655e-01  linmin: -4.031e-05  t[s]:  12016.90
	FillingsUpdate:  mu: +0.120305800  nElectrons: 351.000000  magneticMoment: [ Abs: 38.98992  Tot: -0.00000 ]
	SubspaceRotationAdjust: set factor to 0.727
ElecMinimize: Iter: 149  F: -2055.591016355106603  |grad|_K:  3.378e-07  alpha:  1.887e-01  linmin: -3.194e-05  t[s]:  12088.61
	FillingsUpdate:  mu: +0.120343035  nElectrons: 351.000000  magneticMoment: [ Abs: 38.99100  Tot: -0.00000 ]
	SubspaceRotationAdjust: set factor to 0.608
ElecMinimize: Iter: 150  F: -2055.591017897418624  |grad|_K:  2.956e-07  alpha:  7.588e-02  linmin: -4.939e-05  t[s]:  12160.39
	FillingsUpdate:  mu: +0.120306057  nElectrons: 351.000000  magneticMoment: [ Abs: 38.99126  Tot: -0.00000 ]
	SubspaceRotationAdjust: set factor to 0.785
ElecMinimize: Iter: 151  F: -2055.591020474581910  |grad|_K:  2.678e-07  alpha:  1.670e-01  linmin: -1.426e-05  t[s]:  12232.37
	FillingsUpdate:  mu: +0.120265255  nElectrons: 351.000000  magneticMoment: [ Abs: 38.99231  Tot: -0.00000 ]
	SubspaceRotationAdjust: set factor to 0.757
ElecMinimize: Iter: 152  F: -2055.591022549850550  |grad|_K:  3.147e-07  alpha:  1.651e-01  linmin: -2.881e-05  t[s]:  12304.45
	FillingsUpdate:  mu: +0.120296654  nElectrons: 351.000000  magneticMoment: [ Abs: 38.99439  Tot: -0.00000 ]
	SubspaceRotationAdjust: set factor to 0.646
ElecMinimize: Iter: 153  F: -2055.591023956818844  |grad|_K:  2.903e-07  alpha:  8.024e-02  linmin: -2.626e-05  t[s]:  12376.29
	FillingsUpdate:  mu: +0.120282197  nElectrons: 351.000000  magneticMoment: [ Abs: 38.99507  Tot: +0.00000 ]
	SubspaceRotationAdjust: set factor to 0.834
ElecMinimize: Iter: 154  F: -2055.591026312803024  |grad|_K:  2.505e-07  alpha:  1.591e-01  linmin: -4.116e-06  t[s]:  12448.18
	FillingsUpdate:  mu: +0.120257831  nElectrons: 351.000000  magneticMoment: [ Abs: 38.99499  Tot: -0.00000 ]
	SubspaceRotationAdjust: set factor to 0.685
ElecMinimize: Iter: 155  F: -2055.591028329366054  |grad|_K:  3.425e-07  alpha:  1.835e-01  linmin: -1.883e-05  t[s]:  12519.98
	FillingsUpdate:  mu: +0.120293970  nElectrons: 351.000000  magneticMoment: [ Abs: 38.99686  Tot: +0.00000 ]
	SubspaceRotationAdjust: set factor to 0.591
ElecMinimize: Iter: 156  F: -2055.591029799985790  |grad|_K:  2.746e-07  alpha:  7.062e-02  linmin: -4.644e-05  t[s]:  12591.54
	FillingsUpdate:  mu: +0.120276985  nElectrons: 351.000000  magneticMoment: [ Abs: 38.99902  Tot: -0.00000 ]
	SubspaceRotationAdjust: set factor to 0.752
ElecMinimize: Iter: 157  F: -2055.591032257751522  |grad|_K:  2.806e-07  alpha:  1.846e-01  linmin: -1.811e-05  t[s]:  12663.41
	FillingsUpdate:  mu: +0.120223910  nElectrons: 351.000000  magneticMoment: [ Abs: 38.99910  Tot: +0.00000 ]
	SubspaceRotationAdjust: set factor to 0.65
ElecMinimize: Iter: 158  F: -2055.591034135959035  |grad|_K:  3.505e-07  alpha:  1.362e-01  linmin: -4.957e-06  t[s]:  12735.25
	FillingsUpdate:  mu: +0.120254781  nElectrons: 351.000000  magneticMoment: [ Abs: 39.00059  Tot: -0.00000 ]
	SubspaceRotationAdjust: set factor to 0.622
ElecMinimize: Iter: 159  F: -2055.591036148210151  |grad|_K:  2.825e-07  alpha:  9.318e-02  linmin:  1.499e-06  t[s]:  12807.94
	FillingsUpdate:  mu: +0.120302886  nElectrons: 351.000000  magneticMoment: [ Abs: 39.00177  Tot: +0.00000 ]
	SubspaceRotationAdjust: set factor to 0.796
ElecMinimize: Iter: 160  F: -2055.591039213329623  |grad|_K:  3.192e-07  alpha:  2.200e-01  linmin:  1.284e-05  t[s]:  12879.81
	FillingsUpdate:  mu: +0.120281038  nElectrons: 351.000000  magneticMoment: [ Abs: 39.00161  Tot: +0.00000 ]
	SubspaceRotationAdjust: set factor to 0.719
ElecMinimize: Iter: 161  F: -2055.591041245149427  |grad|_K:  3.749e-07  alpha:  1.151e-01  linmin:  1.147e-05  t[s]:  12951.89
	FillingsUpdate:  mu: +0.120314231  nElectrons: 351.000000  magneticMoment: [ Abs: 39.00400  Tot: -0.00000 ]
	SubspaceRotationAdjust: set factor to 0.706
ElecMinimize: Iter: 162  F: -2055.591044124960263  |grad|_K:  3.360e-07  alpha:  1.175e-01  linmin:  9.862e-06  t[s]:  13022.94
	FillingsUpdate:  mu: +0.120262010  nElectrons: 351.000000  magneticMoment: [ Abs: 39.00455  Tot: +0.00000 ]
	SubspaceRotationAdjust: set factor to 0.787
ElecMinimize: Iter: 163  F: -2055.591047776855248  |grad|_K:  3.273e-07  alpha:  1.852e-01  linmin: -8.754e-06  t[s]:  13094.71
	FillingsUpdate:  mu: +0.120259037  nElectrons: 351.000000  magneticMoment: [ Abs: 39.00548  Tot: +0.00000 ]
	SubspaceRotationAdjust: set factor to 0.91
ElecMinimize: Iter: 164  F: -2055.591052099746776  |grad|_K:  3.668e-07  alpha:  2.302e-01  linmin: -4.628e-06  t[s]:  13166.18
	FillingsUpdate:  mu: +0.120350623  nElectrons: 351.000000  magneticMoment: [ Abs: 39.00789  Tot: -0.00000 ]
	SubspaceRotationAdjust: set factor to 0.806
ElecMinimize: Iter: 165  F: -2055.591055275108829  |grad|_K:  4.693e-07  alpha:  1.344e-01  linmin: -4.384e-06  t[s]:  13237.74
	FillingsUpdate:  mu: +0.120339508  nElectrons: 351.000000  magneticMoment: [ Abs: 39.00727  Tot: +0.00000 ]
	SubspaceRotationAdjust: set factor to 0.693
ElecMinimize: Iter: 166  F: -2055.591058445224462  |grad|_K:  4.108e-07  alpha:  8.244e-02  linmin:  1.449e-06  t[s]:  13309.55
	FillingsUpdate:  mu: +0.120372109  nElectrons: 351.000000  magneticMoment: [ Abs: 39.00822  Tot: -0.00000 ]
	SubspaceRotationAdjust: set factor to 0.724
ElecMinimize: Iter: 167  F: -2055.591062933875492  |grad|_K:  3.667e-07  alpha:  1.525e-01  linmin:  1.564e-05  t[s]:  13381.16
	FillingsUpdate:  mu: +0.120351340  nElectrons: 351.000000  magneticMoment: [ Abs: 39.01088  Tot: -0.00000 ]
	SubspaceRotationAdjust: set factor to 0.853
ElecMinimize: Iter: 168  F: -2055.591068020755301  |grad|_K:  3.768e-07  alpha:  2.173e-01  linmin: -1.463e-07  t[s]:  13452.76
	FillingsUpdate:  mu: +0.120332256  nElectrons: 351.000000  magneticMoment: [ Abs: 39.01239  Tot: -0.00000 ]
	SubspaceRotationAdjust: set factor to 0.806
ElecMinimize: Iter: 169  F: -2055.591071756021847  |grad|_K:  4.575e-07  alpha:  1.505e-01  linmin: -1.287e-06  t[s]:  13524.43
	FillingsUpdate:  mu: +0.120416735  nElectrons: 351.000000  magneticMoment: [ Abs: 39.01527  Tot: +0.00000 ]
	SubspaceRotationAdjust: set factor to 0.686
ElecMinimize: Iter: 170  F: -2055.591074849606230  |grad|_K:  4.166e-07  alpha:  8.425e-02  linmin: -4.494e-06  t[s]:  13596.78
	FillingsUpdate:  mu: +0.120460745  nElectrons: 351.000000  magneticMoment: [ Abs: 39.01498  Tot: -0.00000 ]
	SubspaceRotationAdjust: set factor to 0.7
ElecMinimize: Iter: 171  F: -2055.591078889988694  |grad|_K:  3.488e-07  alpha:  1.331e-01  linmin:  9.564e-06  t[s]:  13667.82
	FillingsUpdate:  mu: +0.120468559  nElectrons: 351.000000  magneticMoment: [ Abs: 39.01741  Tot: +0.00000 ]
	SubspaceRotationAdjust: set factor to 0.866
ElecMinimize: Iter: 172  F: -2055.591083234707639  |grad|_K:  3.373e-07  alpha:  2.048e-01  linmin: -4.737e-07  t[s]:  13739.13
	FillingsUpdate:  mu: +0.120474059  nElectrons: 351.000000  magneticMoment: [ Abs: 39.02171  Tot: +0.00000 ]
	SubspaceRotationAdjust: set factor to 0.83
ElecMinimize: Iter: 173  F: -2055.591086242489837  |grad|_K:  3.980e-07  alpha:  1.513e-01  linmin: -2.144e-06  t[s]:  13810.89
	FillingsUpdate:  mu: +0.120419785  nElectrons: 351.000000  magneticMoment: [ Abs: 39.02224  Tot: -0.00000 ]
	SubspaceRotationAdjust: set factor to 0.714
ElecMinimize: Iter: 174  F: -2055.591088501146714  |grad|_K:  3.624e-07  alpha:  8.169e-02  linmin:  3.328e-06  t[s]:  13882.60
	FillingsUpdate:  mu: +0.120468729  nElectrons: 351.000000  magneticMoment: [ Abs: 39.02396  Tot: +0.00000 ]
	SubspaceRotationAdjust: set factor to 0.732
ElecMinimize: Iter: 175  F: -2055.591091301881988  |grad|_K:  2.958e-07  alpha:  1.222e-01  linmin:  9.548e-06  t[s]:  13954.29
	FillingsUpdate:  mu: +0.120527597  nElectrons: 351.000000  magneticMoment: [ Abs: 39.02561  Tot: -0.00000 ]
	SubspaceRotationAdjust: set factor to 0.918
ElecMinimize: Iter: 176  F: -2055.591094352535492  |grad|_K:  2.765e-07  alpha:  1.999e-01  linmin:  2.243e-06  t[s]:  14025.28
	FillingsUpdate:  mu: +0.120509416  nElectrons: 351.000000  magneticMoment: [ Abs: 39.02710  Tot: -0.00000 ]
	SubspaceRotationAdjust: set factor to 0.895
ElecMinimize: Iter: 177  F: -2055.591096607295185  |grad|_K:  3.247e-07  alpha:  1.687e-01  linmin: -5.407e-07  t[s]:  14096.80
	FillingsUpdate:  mu: +0.120529330  nElectrons: 351.000000  magneticMoment: [ Abs: 39.02908  Tot: +0.00000 ]
	SubspaceRotationAdjust: set factor to 0.785
ElecMinimize: Iter: 178  F: -2055.591098098348084  |grad|_K:  3.219e-07  alpha:  8.072e-02  linmin: -4.977e-06  t[s]:  14168.19
	FillingsUpdate:  mu: +0.120479087  nElectrons: 351.000000  magneticMoment: [ Abs: 39.02882  Tot: +0.00000 ]
	SubspaceRotationAdjust: set factor to 0.762
ElecMinimize: Iter: 179  F: -2055.591099946402665  |grad|_K:  2.613e-07  alpha:  1.018e-01  linmin: -2.639e-06  t[s]:  14239.30
	FillingsUpdate:  mu: +0.120480130  nElectrons: 351.000000  magneticMoment: [ Abs: 39.03017  Tot: -0.00000 ]
	SubspaceRotationAdjust: set factor to 0.98
	SubspaceRotationAdjust: resetting CG because factor has changed by 7.50371
ElecMinimize: 	State modified externally: resetting search direction.
ElecMinimize: Iter: 180  F: -2055.591102217212210  |grad|_K:  2.477e-07  alpha:  1.901e-01
	FillingsUpdate:  mu: +0.120582857  nElectrons: 351.000000  magneticMoment: [ Abs: 39.03088  Tot: -0.00000 ]
	SubspaceRotationAdjust: set factor to 0.559
ElecMinimize: Iter: 181  F: -2055.591104790588361  |grad|_K:  4.166e-07  alpha:  2.401e-01  linmin:  9.130e-05  t[s]:  14413.16
	FillingsUpdate:  mu: +0.120550379  nElectrons: 351.000000  magneticMoment: [ Abs: 39.02897  Tot: -0.00000 ]
	SubspaceRotationAdjust: set factor to 0.393
ElecMinimize: Iter: 182  F: -2055.591106308928829  |grad|_K:  2.332e-07  alpha:  5.060e-02  linmin:  7.719e-05  t[s]:  14485.15
ElecMinimize: 	Predicted alpha/alphaT>3.000000, increasing alphaT to 1.518124e-01.
	FillingsUpdate:  mu: +0.120461446  nElectrons: 351.000000  magneticMoment: [ Abs: 39.02739  Tot: -0.00000 ]
	SubspaceRotationAdjust: set factor to 0.317
ElecMinimize: Iter: 183  F: -2055.591108988179712  |grad|_K:  2.407e-07  alpha:  2.833e-01  linmin: -1.334e-05  t[s]:  14577.71
	FillingsUpdate:  mu: +0.120465635  nElectrons: 351.000000  magneticMoment: [ Abs: 39.02877  Tot: +0.00000 ]
	SubspaceRotationAdjust: set factor to 0.269
ElecMinimize: Iter: 184  F: -2055.591110422507427  |grad|_K:  2.090e-07  alpha:  1.413e-01  linmin: -7.670e-06  t[s]:  14649.53
	FillingsUpdate:  mu: +0.120456301  nElectrons: 351.000000  magneticMoment: [ Abs: 39.02884  Tot: -0.00000 ]
	SubspaceRotationAdjust: set factor to 0.33
ElecMinimize: Iter: 185  F: -2055.591111958513466  |grad|_K:  1.484e-07  alpha:  2.008e-01  linmin: -2.926e-05  t[s]:  14721.23
	FillingsUpdate:  mu: +0.120462970  nElectrons: 351.000000  magneticMoment: [ Abs: 39.02734  Tot: -0.00000 ]
	SubspaceRotationAdjust: set factor to 0.253
ElecMinimize: Iter: 186  F: -2055.591112804581826  |grad|_K:  1.606e-07  alpha:  2.193e-01  linmin: -5.034e-06  t[s]:  14793.36
	FillingsUpdate:  mu: +0.120500710  nElectrons: 351.000000  magneticMoment: [ Abs: 39.02689  Tot: +0.00000 ]
	SubspaceRotationAdjust: set factor to 0.257
ElecMinimize: Iter: 187  F: -2055.591113532910640  |grad|_K:  1.091e-07  alpha:  1.613e-01  linmin:  3.383e-06  t[s]:  14864.73
	FillingsUpdate:  mu: +0.120497416  nElectrons: 351.000000  magneticMoment: [ Abs: 39.02708  Tot: -0.00000 ]
	SubspaceRotationAdjust: set factor to 0.214
[...]
	FillingsUpdate:  mu: +0.129594270  nElectrons: 351.000000  magneticMoment: [ Abs: 38.68726  Tot: +0.00000 ]
	SubspaceRotationAdjust: set factor to 0.169
ElecMinimize: Iter:  14  F: -2055.638739086637997  |grad|_K:  1.799e-07  alpha:  3.466e-01  linmin:  1.677e-06  t[s]:  93057.23
	FillingsUpdate:  mu: +0.129619813  nElectrons: 351.000000  magneticMoment: [ Abs: 38.68720  Tot: -0.00000 ]
	SubspaceRotationAdjust: set factor to 0.204
ElecMinimize: Iter:  15  F: -2055.638741515608672  |grad|_K:  1.494e-07  alpha:  4.290e-01  linmin: -2.478e-06  t[s]:  93128.76
	FillingsUpdate:  mu: +0.129628573  nElectrons: 351.000000  magneticMoment: [ Abs: 38.68712  Tot: -0.00000 ]
	SubspaceRotationAdjust: set factor to 0.24
ElecMinimize: Iter:  16  F: -2055.638743061161676  |grad|_K:  1.353e-07  alpha:  3.956e-01  linmin: -9.101e-07  t[s]:  93200.97
	FillingsUpdate:  mu: +0.129533463  nElectrons: 351.000000  magneticMoment: [ Abs: 38.68691  Tot: +0.00000 ]
	SubspaceRotationAdjust: set factor to 0.26
ElecMinimize: Iter:  17  F: -2055.638744341859820  |grad|_K:  1.228e-07  alpha:  4.000e-01  linmin:  5.492e-07  t[s]:  93272.72
	FillingsUpdate:  mu: +0.129631131  nElectrons: 351.000000  magneticMoment: [ Abs: 38.68674  Tot: -0.00000 ]
	SubspaceRotationAdjust: set factor to 0.239
ElecMinimize: Iter:  18  F: -2055.638745257987011  |grad|_K:  1.157e-07  alpha:  3.473e-01  linmin: -9.418e-07  t[s]:  93344.84
	FillingsUpdate:  mu: +0.129513987  nElectrons: 351.000000  magneticMoment: [ Abs: 38.68648  Tot: -0.00000 ]
	SubspaceRotationAdjust: set factor to 0.194
ElecMinimize: Iter:  19  F: -2055.638745877862220  |grad|_K:  9.312e-08  alpha:  2.647e-01  linmin:  8.665e-07  t[s]:  93416.57
	FillingsUpdate:  mu: +0.129569693  nElectrons: 351.000000  magneticMoment: [ Abs: 38.68629  Tot: -0.00000 ]
	SubspaceRotationAdjust: set factor to 0.182
ElecMinimize: Iter:  20  F: -2055.638746339544014  |grad|_K:  6.944e-08  alpha:  3.044e-01  linmin:  2.316e-06  t[s]:  93488.78
	FillingsUpdate:  mu: +0.129552031  nElectrons: 351.000000  magneticMoment: [ Abs: 38.68609  Tot: +0.00000 ]
	SubspaceRotationAdjust: set factor to 0.211
ElecMinimize: Iter:  21  F: -2055.638746650999110  |grad|_K:  5.584e-08  alpha:  3.691e-01  linmin: -2.288e-06  t[s]:  93560.58
	FillingsUpdate:  mu: +0.129514924  nElectrons: 351.000000  magneticMoment: [ Abs: 38.68590  Tot: -0.00000 ]
	SubspaceRotationAdjust: set factor to 0.223
ElecMinimize: Iter:  22  F: -2055.638746847032508  |grad|_K:  4.896e-08  alpha:  3.598e-01  linmin: -3.030e-06  t[s]:  93632.02
ElecMinimize: Converged (|Delta F|<1.000000e-06 for 5 iters).
Setting wave functions to eigenvectors of Hamiltonian

# Ionic positions in lattice coordinates:
ion Ni  -0.001043660530307   0.006532901119156   0.157432136710764 1
ion Ni  -0.248635768506636   0.254825564114441   0.047415500596139 1
ion Ni   0.000000000000000   0.000000000000000  -0.050000000000000 0
ion Ni   0.500000000000000   0.000000000000000  -0.050000000000000 0
ion Ni  -0.250000000000000   0.250000000000000  -0.150000000000000 0
ion V   0.509659825119313   0.008047869564075   0.150736373163280 1
ion V  -0.007569377842745   0.508544078574659   0.154570123861278 1
ion V   0.498419265112709   0.506684754750853   0.149984407684928 1
ion V   0.253296837915176   0.762296540543408   0.051002352383524 1
ion V   0.250000000000000   0.750000000000000  -0.150000000000000 0
ion Cr   0.249471230819437   0.253159585419106   0.048788457942746 1
ion Cr   0.000000000000000   0.500000000000000  -0.050000000000000 0
ion Cr  -0.250000000000000   0.750000000000000  -0.150000000000000 0
ion Co  -0.243896333822882   0.777372421620649   0.045404288149182 1
ion Co   0.500000000000000   0.500000000000000  -0.050000000000000 0
ion Co   0.250000000000000   0.250000000000000  -0.150000000000000 0
ion O   0.255355987860784   0.247613323238114   0.145495031439057 1
ion O   0.259861797294069   0.770516513437778   0.151522250246157 1
ion O  -0.260062985305756   0.248123811892477   0.146101181029684 1
ion O  -0.262366766064021   0.764323781831282   0.144790022991394 1
ion O   0.008965563031432   0.022113779859123   0.050878684911163 1
ion O   0.492820861413460   0.022801325302891   0.055107708174967 1
ion O   0.011285971509917   0.493552349101528   0.049806737521941 1
ion O   0.492589643065407   0.489703814387274   0.050972547885202 1
ion O   0.250000000000000   0.250000000000000  -0.050000000000000 0
ion O   0.250000000000000   0.750000000000000  -0.050000000000000 0
ion O  -0.250000000000000   0.250000000000000  -0.050000000000000 0
ion O  -0.250000000000000   0.750000000000000  -0.050000000000000 0
ion O   0.000000000000000   0.000000000000000  -0.150000000000000 0
ion O   0.500000000000000   0.000000000000000  -0.150000000000000 0
ion O   0.000000000000000   0.500000000000000  -0.150000000000000 0
ion O   0.500000000000000   0.500000000000000  -0.150000000000000 0
ion O  -0.049969363149024  -0.016487403379922   0.245371416619771 1
ion H   0.067615776975823   0.047561791416528   0.269513531476393 1

# Forces in Lattice coordinates:
force Ni   0.002880369828146   0.001205952411998  -0.042291304991144 1
force Ni   0.008922462133020  -0.005173441362828   0.015453150496222 1
force Ni  -0.066857538437607   0.079557963073181  -0.442718620426623 0
force Ni   0.062816890246335   0.069936584321388  -0.413128516688644 0
force Ni  -0.017790648380346  -0.055821898703616  -0.280596224845640 0
force V   0.008176910939981   0.004069718406727   0.002442044906993 1
force V  -0.001927274982721   0.007937335791371   0.008478741688110 1
force V  -0.005390700626231   0.005665547648608   0.035793445816298 1
force V  -0.001580102916096  -0.005048722284595   0.007712852409480 1
force V   0.063231104544640   0.117252376115177   0.107849369101240 0
force Cr  -0.005222468785943  -0.011215915375228  -0.011149972982718 1
force Cr  -0.123508126017336  -0.093689542086540  -0.549359284839853 0
force Cr  -0.031291313926890   0.102578630263867  -1.150264691695960 0
force Co   0.005736555146387   0.003767312565624  -0.003190129925239 1
force Co   0.104561140771621  -0.082690109328308  -0.401533253281956 0
force Co   0.059158925990029  -0.091475622559288  -0.164012676234563 0
force O   0.001556938509559  -0.004226842145142   0.027787113610223 1
force O  -0.001477712140138  -0.002136221206737  -0.023186122735243 1
force O  -0.005525724194445  -0.002022032307325   0.004658433621548 1
force O  -0.002216379575814   0.007365406299994  -0.020994400089759 1
force O  -0.004044824323358  -0.002999759258027  -0.026936213562352 1
force O   0.002936309927519  -0.000172909631970  -0.015838080778699 1
force O  -0.003983050056175  -0.005712003339544  -0.025231633864460 1
force O   0.002181333171676   0.007900118402292  -0.023045527990193 1
force O  -0.135823263596604   0.134490056614859   0.666048794383629 0
force O  -0.161296483483142  -0.152547275100055  -0.154395223286873 0
force O   0.162130561435487   0.152391970768359   0.921112979312783 0
force O   0.136640489265276  -0.147314445510544   1.044423441375010 0
force O   0.071552967467575  -0.093438976857033   0.233834013969900 0
force O  -0.085155971285138  -0.106748146179259   0.011545916846659 0
force O   0.071980932950003   0.077593826702685   0.572144957392446 0
force O  -0.096174319281527   0.097033939029466   0.036187548112593 0
force O  -0.007387747325236  -0.002431957426514  -0.072708934313792 1
force H   0.001679978580358  -0.003153580530526   0.007612056167411 1

# Energy components:
   Eewald =     5724.6482786744054465
       EH =     7578.1492434787096499
     Eloc =   -15504.1909184528958576
      Enl =     -549.1907846737780119
   Epulay =       -0.0004842064044479
      Exc =     -249.8113871893827422
       KE =      943.4775786629718368
        U =        1.2809058441006800
-------------------------------------
     Etot =    -2055.6375678622725900
       TS =        0.0011789847598896
-------------------------------------
        F =    -2055.6387468470325075

IonicMinimize: Iter:  21  F: -2055.638746847032508  |grad|_K:  5.189e-04  alpha:  1.000e+00  linmin:  9.053e-03  t[s]:  93657.13

#--- Lowdin population analysis ---
# oxidation-state Ni +3.696 +3.509 +3.377 +3.302 +3.414
# magnetic-moments Ni -0.976 +0.967 -0.852 -0.778 -0.572
# oxidation-state V +1.313 +1.140 +1.069 +0.946 +1.187
# magnetic-moments V -2.183 +2.974 -2.870 +2.940 -2.598
# oxidation-state Cr +2.929 +2.888 +2.954
# magnetic-moments Cr +3.134 +1.367 +3.839
# oxidation-state Co +1.190 +1.190 +1.276
# magnetic-moments Co -2.656 +2.650 -2.741
# oxidation-state O -0.837 -0.884 -0.823 -0.898 -0.798 -0.792 -0.833 -0.873 -0.826 -0.826 -0.745 -0.855 -0.846 -0.858 -0.848 -0.926 -0.804
# magnetic-moments O -0.113 -0.084 +0.061 -0.090 -0.086 +0.016 +0.000 +0.071 -0.175 -0.072 +0.087 -0.148 -0.204 -0.178 -0.121 -0.016 -0.220
# oxidation-state H +0.371
# magnetic-moments H +0.004


-------- Electronic minimization -----------
	FillingsUpdate:  mu: +0.129873486  nElectrons: 351.000000  magneticMoment: [ Abs: 38.68654  Tot: -0.00000 ]
ElecMinimize: Iter:   0  F: -2055.636595369473980  |grad|_K:  7.978e-06  alpha:  1.000e+00
	FillingsUpdate:  mu: +0.129288450  nElectrons: 351.000000  magneticMoment: [ Abs: 38.68644  Tot: +0.00000 ]
	SubspaceRotationAdjust: set factor to 0.207
ElecMinimize: Iter:   1  F: -2055.638637482165905  |grad|_K:  1.505e-06  alpha:  1.832e-01  linmin: -6.329e-04  t[s]:  93784.44
	FillingsUpdate:  mu: +0.130029030  nElectrons: 351.000000  magneticMoment: [ Abs: 38.68700  Tot: -0.00000 ]
	SubspaceRotationAdjust: set factor to 0.176
ElecMinimize: Iter:   2  F: -2055.638716179832045  |grad|_K:  7.879e-07  alpha:  1.985e-01  linmin: -7.939e-05  t[s]:  93856.07
	FillingsUpdate:  mu: +0.129463651  nElectrons: 351.000000  magneticMoment: [ Abs: 38.68702  Tot: +0.00000 ]
	SubspaceRotationAdjust: set factor to 0.146
ElecMinimize: Iter:   3  F: -2055.638744086420502  |grad|_K:  4.251e-07  alpha:  2.569e-01  linmin:  5.114e-05  t[s]:  93928.08
	FillingsUpdate:  mu: +0.129695344  nElectrons: 351.000000  magneticMoment: [ Abs: 38.68734  Tot: +0.00000 ]
	SubspaceRotationAdjust: set factor to 0.146
ElecMinimize: Iter:   4  F: -2055.638753905882822  |grad|_K:  2.926e-07  alpha:  3.111e-01  linmin: -6.481e-06  t[s]:  94000.02
	FillingsUpdate:  mu: +0.129616758  nElectrons: 351.000000  magneticMoment: [ Abs: 38.68750  Tot: -0.00000 ]
	SubspaceRotationAdjust: set factor to 0.172
ElecMinimize: Iter:   5  F: -2055.638758945229711  |grad|_K:  2.169e-07  alpha:  3.365e-01  linmin: -1.356e-06  t[s]:  94071.46
	FillingsUpdate:  mu: +0.129544299  nElectrons: 351.000000  magneticMoment: [ Abs: 38.68763  Tot: -0.00000 ]
	SubspaceRotationAdjust: set factor to 0.2
ElecMinimize: Iter:   6  F: -2055.638761805014838  |grad|_K:  1.874e-07  alpha:  3.477e-01  linmin:  1.106e-06  t[s]:  94143.11
	FillingsUpdate:  mu: +0.129651003  nElectrons: 351.000000  magneticMoment: [ Abs: 38.68786  Tot: -0.00000 ]
	SubspaceRotationAdjust: set factor to 0.229
ElecMinimize: Iter:   7  F: -2055.638763949084023  |grad|_K:  1.579e-07  alpha:  3.490e-01  linmin: -2.136e-06  t[s]:  94215.23
	FillingsUpdate:  mu: +0.129564438  nElectrons: 351.000000  magneticMoment: [ Abs: 38.68806  Tot: +0.00000 ]
	SubspaceRotationAdjust: set factor to 0.253
ElecMinimize: Iter:   8  F: -2055.638765693877758  |grad|_K:  1.525e-07  alpha:  4.001e-01  linmin: -3.098e-08  t[s]:  94287.47
	FillingsUpdate:  mu: +0.129651486  nElectrons: 351.000000  magneticMoment: [ Abs: 38.68838  Tot: +0.00000 ]
	SubspaceRotationAdjust: set factor to 0.27
ElecMinimize: Iter:   9  F: -2055.638767173343240  |grad|_K:  1.319e-07  alpha:  3.638e-01  linmin:  2.247e-08  t[s]:  94359.68
	FillingsUpdate:  mu: +0.129573415  nElectrons: 351.000000  magneticMoment: [ Abs: 38.68863  Tot: +0.00000 ]
	SubspaceRotationAdjust: set factor to 0.266
ElecMinimize: Iter:  10  F: -2055.638768287037692  |grad|_K:  1.130e-07  alpha:  3.660e-01  linmin: -1.105e-07  t[s]:  94431.37
	FillingsUpdate:  mu: +0.129646837  nElectrons: 351.000000  magneticMoment: [ Abs: 38.68887  Tot: -0.00000 ]
	SubspaceRotationAdjust: set factor to 0.231
ElecMinimize: Iter:  11  F: -2055.638768900609193  |grad|_K:  8.683e-08  alpha:  2.749e-01  linmin:  1.157e-06  t[s]:  94503.83
	FillingsUpdate:  mu: +0.129570132  nElectrons: 351.000000  magneticMoment: [ Abs: 38.68899  Tot: -0.00000 ]
	SubspaceRotationAdjust: set factor to 0.182
ElecMinimize: Iter:  12  F: -2055.638769253864211  |grad|_K:  6.541e-08  alpha:  2.676e-01  linmin: -2.224e-06  t[s]:  94575.62
	FillingsUpdate:  mu: +0.129614208  nElectrons: 351.000000  magneticMoment: [ Abs: 38.68913  Tot: -0.00000 ]
	SubspaceRotationAdjust: set factor to 0.163
ElecMinimize: Iter:  13  F: -2055.638769458862953  |grad|_K:  4.860e-08  alpha:  2.739e-01  linmin: -8.447e-06  t[s]:  94646.95
	FillingsUpdate:  mu: +0.129605194  nElectrons: 351.000000  magneticMoment: [ Abs: 38.68923  Tot: -0.00000 ]
	SubspaceRotationAdjust: set factor to 0.185
ElecMinimize: Iter:  14  F: -2055.638769581530596  |grad|_K:  3.494e-08  alpha:  2.966e-01  linmin:  7.627e-08  t[s]:  94718.31
	FillingsUpdate:  mu: +0.129584366  nElectrons: 351.000000  magneticMoment: [ Abs: 38.68929  Tot: -0.00000 ]
	SubspaceRotationAdjust: set factor to 0.195
ElecMinimize: Iter:  15  F: -2055.638769646602213  |grad|_K:  2.710e-08  alpha:  3.052e-01  linmin:  1.365e-05  t[s]:  94790.50
ElecMinimize: Converged (|Delta F|<1.000000e-06 for 5 iters).
Setting wave functions to eigenvectors of Hamiltonian

# Ionic positions in lattice coordinates:
ion Ni  -0.000902938130707   0.006472820200150   0.157287192795839 1
ion Ni  -0.248413591157169   0.254705947105486   0.047466087780552 1
ion Ni   0.000000000000000   0.000000000000000  -0.050000000000000 0
ion Ni   0.500000000000000   0.000000000000000  -0.050000000000000 0
ion Ni  -0.250000000000000   0.250000000000000  -0.150000000000000 0
ion V   0.509898145579911   0.007931013212327   0.150782299554253 1
ion V  -0.007602993301492   0.508512734759610   0.154602246058172 1
ion V   0.498308820840398   0.506563484038414   0.150175297901337 1
ion V   0.253410392008341   0.762028437708732   0.051038715652665 1
ion V   0.250000000000000   0.750000000000000  -0.150000000000000 0
ion Cr   0.249555144286326   0.252871453960074   0.048810941538641 1
ion Cr   0.000000000000000   0.500000000000000  -0.050000000000000 0
ion Cr  -0.250000000000000   0.750000000000000  -0.150000000000000 0
ion Co  -0.243667659043300   0.777372330337276   0.045363840726928 1
ion Co   0.500000000000000   0.500000000000000  -0.050000000000000 0
ion Co   0.250000000000000   0.250000000000000  -0.150000000000000 0
ion O   0.255415096905134   0.247280783326865   0.145596652691710 1
ion O   0.259787150594345   0.770138285127820   0.151499928295498 1
ion O  -0.260239769153687   0.247881025739130   0.146195637889950 1
ion O  -0.262300702956261   0.764286418002829   0.144715940628473 1
ion O   0.008950657735052   0.021872623660712   0.050872600571419 1
ion O   0.492983560042909   0.022582565905034   0.055123773474929 1
ion O   0.011293960925064   0.493285588857936   0.049790194226138 1
ion O   0.492755538294802   0.489815186029537   0.051015194948031 1
ion O   0.250000000000000   0.250000000000000  -0.050000000000000 0
ion O   0.250000000000000   0.750000000000000  -0.050000000000000 0
ion O  -0.250000000000000   0.250000000000000  -0.050000000000000 0
ion O  -0.250000000000000   0.750000000000000  -0.050000000000000 0
ion O   0.000000000000000   0.000000000000000  -0.150000000000000 0
ion O   0.500000000000000   0.000000000000000  -0.150000000000000 0
ion O   0.000000000000000   0.500000000000000  -0.150000000000000 0
ion O   0.500000000000000   0.500000000000000  -0.150000000000000 0
ion O  -0.049367327009642  -0.016207991142118   0.245234916607927 1
ion H   0.068116782475936   0.048349121827343   0.269288389594372 1

# Forces in Lattice coordinates:
force Ni   0.003237681599944   0.002433438513417  -0.028328077735518 1
force Ni   0.002430607552512  -0.003617558113328   0.001777292199601 1
force Ni  -0.066596280112341   0.079463909000330  -0.448451095001231 0
force Ni   0.062962919202818   0.069861565954704  -0.414069824243585 0
force Ni  -0.017723721095216  -0.055981050705542  -0.277682988463951 0
force V   0.003402214378862   0.006991734509616  -0.006422177621305 1
force V  -0.001634219050540   0.005978241653823   0.002693540955118 1
force V  -0.003117809048814   0.004765402618807   0.010820618940725 1
force V  -0.000719790350719  -0.004837505068211  -0.000589778226020 1
force V   0.063191783160152   0.117196242422092   0.108925074694056 0
force Cr  -0.001720601532798  -0.008117452006573  -0.010111399646392 1
force Cr  -0.123246387739347  -0.094206735861384  -0.550481302797677 0
force Cr  -0.031191216958784   0.102629415393444  -1.149611169582184 0
force Co   0.002757246291052   0.001317712172566  -0.003116768762260 1
force Co   0.104808767375371  -0.083291435911124  -0.396563068578621 0
force Co   0.059226722974917  -0.091612191958651  -0.162814969463009 0
force O   0.001392137462292  -0.001136608866288   0.014791032250638 1
force O   0.000051099470080  -0.000164997652047  -0.021075677826382 1
force O  -0.003596827106743   0.001559453940959   0.003141529823283 1
force O  -0.002687317722658   0.004946343628587  -0.013456532244918 1
force O  -0.002536735415499  -0.002467092322588  -0.027550853883608 1
force O   0.000344317584907   0.000866390410634  -0.013580709570066 1
force O  -0.003294731349939  -0.004956652777939  -0.016707360609209 1
force O   0.000102419735212   0.003520840929769  -0.017862227263026 1
force O  -0.136196163844190   0.134104091305695   0.669580825913295 0
force O  -0.161532135908433  -0.152019661658570  -0.152166645804270 0
force O   0.162693705875687   0.151955950461782   0.921046064840159 0
force O   0.137067286333427  -0.147216532021739   1.041191151014102 0
force O   0.071428319914366  -0.093227220181237   0.234018251748017 0
force O  -0.085073885766342  -0.106596914613597   0.011966959521331 0
force O   0.071880155867636   0.077544366395130   0.573129849160772 0
force O  -0.096045094486420   0.096860099874657   0.036898347213333 0
force O  -0.009665934891295  -0.003851602114613  -0.057824586379331 1
force H   0.003541329706198  -0.002256782208773   0.012089683798415 1

# Energy components:
   Eewald =     5724.4299273203723715
       EH =     7577.9543708082665034
     Eloc =   -15503.7766768833116657
      Enl =     -549.1912947093054527
   Epulay =       -0.0004842064044479
      Exc =     -249.8110510508569746
       KE =      943.4769167907692236
        U =        1.2807011837496838
-------------------------------------
     Etot =    -2055.6375907467195248
       TS =        0.0011788998828850
-------------------------------------
        F =    -2055.6387696466022135

IonicMinimize: Iter:  22  F: -2055.638769646602213  |grad|_K:  3.856e-04  alpha:  1.000e+00  linmin: -8.010e-03  t[s]:  94815.67
IonicMinimize: Converged (|Delta F|<1.000000e-04 for 3 iters).

#--- Lowdin population analysis ---
# oxidation-state Ni +3.694 +3.509 +3.378 +3.302 +3.414
# magnetic-moments Ni -0.976 +0.967 -0.853 -0.778 -0.572
# oxidation-state V +1.313 +1.140 +1.070 +0.946 +1.187
# magnetic-moments V -2.183 +2.974 -2.871 +2.940 -2.598
# oxidation-state Cr +2.930 +2.888 +2.954
# magnetic-moments Cr +3.135 +1.367 +3.839
# oxidation-state Co +1.190 +1.190 +1.276
# magnetic-moments Co -2.656 +2.650 -2.741
# oxidation-state O -0.837 -0.884 -0.823 -0.898 -0.798 -0.792 -0.833 -0.873 -0.826 -0.826 -0.745 -0.855 -0.846 -0.858 -0.848 -0.926 -0.804
# magnetic-moments O -0.113 -0.085 +0.062 -0.090 -0.086 +0.016 +0.000 +0.071 -0.175 -0.072 +0.087 -0.148 -0.204 -0.178 -0.121 -0.016 -0.220
# oxidation-state H +0.371
# magnetic-moments H +0.004


Dumping 'run.ionpos' ... done
Dumping 'run.lattice' ... done
Dumping 'run.Ecomponents' ... done
End date and time: Mon May 19 12:57:12 2025  (Duration: 1-2:20:22.52)
Done!
