/var/spool/slurmd/job44099/slurm_script: line 9: module: command not found
/var/spool/slurmd/job44099/slurm_script: line 10: module: command not found

*************** JDFTx 1.7.0  ***************

Start date and time: Tue May  6 14:55:37 2025
Executable /data2/jt577/jdftx_eat_withLibXC/build/jdftx with command-line: -i /data2/jt577/May_2025/Relax_Mag/rel8+1_6/OH/runs/calc_/run.in
Running on hosts (process indices):  node3225 (0-8)
Divided in process groups (process indices):  0 (0)  1 (1)  2 (2)  3 (3)  4 (4)  5 (5)  6 (6)  7 (7)  8 (8)
Resource initialization completed at t[s]:      0.00
Run totals: 9 processes, 36 threads, 0 GPUs


Input parsed successfully to the following command list (including defaults):

add-mix 
add-U 	Ni d 0.22 \
	V d 0.12 \
	Cr d 0.16 \
	Co d 0.2
basis kpoint-dependent
coords-type Lattice
core-overlap-check vector
coulomb-interaction Periodic
davidson-band-ratio 1.1
dump End IonicPositions Lattice Ecomponents
dump-name run.$VAR
elec-cutoff 30
elec-eigen-algo Davidson
elec-ex-corr gga-x-rpbe gga-c-pbe
elec-smearing Fermi 0.001
electronic-minimize  \
	dirUpdateScheme      FletcherReeves \
	linminMethod         DirUpdateRecommended \
	nIterations          1000 \
	history              15 \
	knormThreshold       0 \
	energyDiffThreshold  1e-06 \
	nEnergyDiff          5 \
	alphaTstart          1 \
	alphaTmin            1e-10 \
	updateTestStepSize   yes \
	alphaTreduceFactor   0.1 \
	alphaTincreaseFactor 3 \
	nAlphaAdjustMax      3 \
	wolfeEnergy          0.0001 \
	wolfeGradient        0.9 \
	fdTest               no
exchange-regularization WignerSeitzTruncated
fluid None
fluid-ex-corr (null) lda-PZ
fluid-gummel-loop 10 1.000000e-05
fluid-minimize  \
	dirUpdateScheme      PolakRibiere \
	linminMethod         DirUpdateRecommended \
	nIterations          100 \
	history              15 \
	knormThreshold       0 \
	energyDiffThreshold  0 \
	nEnergyDiff          2 \
	alphaTstart          1 \
	alphaTmin            1e-10 \
	updateTestStepSize   yes \
	alphaTreduceFactor   0.1 \
	alphaTincreaseFactor 3 \
	nAlphaAdjustMax      3 \
	wolfeEnergy          0.0001 \
	wolfeGradient        0.9 \
	fdTest               no
fluid-solvent H2O 55.338 ScalarEOS \
	epsBulk 78.4 \
	pMol 0.92466 \
	epsInf 1.77 \
	Pvap 1.06736e-10 \
	sigmaBulk 4.62e-05 \
	Rvdw 2.61727 \
	Res 1.42 \
	tauNuc 343133 \
	poleEl 15 7 1
forces-output-coords Positions
initial-magnetic-moments  \
	Ni 1 -1 -1 1 1 \
	V -1 1 -1 1 -1 \
	Cr 1 -1 1 \
	Co -1 1 -1
initial-state run.$VAR
ion Ni  0.000000000000000   0.000000000000000   0.150000000000000 1
ion Ni -0.250000000000000   0.250000000000000   0.050000000000000 1
ion Ni  0.000000000000000   0.000000000000000  -0.050000000000000 0
ion Ni  0.500000000000000   0.000000000000000  -0.050000000000000 0
ion Ni -0.250000000000000   0.250000000000000  -0.150000000000000 0
ion V  0.500000000000000   0.000000000000000   0.150000000000000 1
ion V  0.000000000000000   0.500000000000000   0.150000000000000 1
ion V  0.500000000000000   0.500000000000000   0.150000000000000 1
ion V  0.250000000000000   0.750000000000000   0.050000000000000 1
ion V  0.250000000000000   0.750000000000000  -0.150000000000000 0
ion Cr  0.250000000000000   0.250000000000000   0.050000000000000 1
ion Cr  0.000000000000000   0.500000000000000  -0.050000000000000 0
ion Cr -0.250000000000000   0.750000000000000  -0.150000000000000 0
ion Co -0.250000000000000   0.750000000000000   0.050000000000000 1
ion Co  0.500000000000000   0.500000000000000  -0.050000000000000 0
ion Co  0.250000000000000   0.250000000000000  -0.150000000000000 0
ion O  0.250000000000000   0.250000000000000   0.150000000000000 1
ion O  0.250000000000000   0.750000000000000   0.150000000000000 1
ion O -0.250000000000000   0.250000000000000   0.150000000000000 1
ion O -0.250000000000000   0.750000000000000   0.150000000000000 1
ion O  0.000000000000000   0.000000000000000   0.050000000000000 1
ion O  0.500000000000000   0.000000000000000   0.050000000000000 1
ion O  0.000000000000000   0.500000000000000   0.050000000000000 1
ion O  0.500000000000000   0.500000000000000   0.050000000000000 1
ion O  0.250000000000000   0.250000000000000  -0.050000000000000 0
ion O  0.250000000000000   0.750000000000000  -0.050000000000000 0
ion O -0.250000000000000   0.250000000000000  -0.050000000000000 0
ion O -0.250000000000000   0.750000000000000  -0.050000000000000 0
ion O  0.000000000000000   0.000000000000000  -0.150000000000000 0
ion O  0.500000000000000   0.000000000000000  -0.150000000000000 0
ion O  0.000000000000000   0.500000000000000  -0.150000000000000 0
ion O  0.500000000000000   0.500000000000000  -0.150000000000000 0
ion O -0.008040138212305  -0.008269777577920   0.235000196603227 1
ion H  0.095742872057713   0.094897636790041   0.252810710255288 1
ion-species SG15/$ID_ONCV_PBE.upf
ion-width 0
ionic-minimize  \
	dirUpdateScheme      L-BFGS \
	linminMethod         DirUpdateRecommended \
	nIterations          1000 \
	history              15 \
	knormThreshold       0.0001 \
	energyDiffThreshold  0.0001 \
	nEnergyDiff          3 \
	alphaTstart          1 \
	alphaTmin            1e-10 \
	updateTestStepSize   yes \
	alphaTreduceFactor   0.1 \
	alphaTincreaseFactor 3 \
	nAlphaAdjustMax      3 \
	wolfeEnergy          0.0001 \
	wolfeGradient        0.9 \
	fdTest               no
kpoint   0.500000000000   0.500000000000   0.500000000000  1.00000000000000
kpoint-folding 3 3 1 
latt-move-scale 1 1 1
latt-scale 1 1 1 
lattice  \
	   8.140000000000001    8.140000000000001    0.000000000000000  \
	   8.140000000000001   -8.140000000000001    0.000000000000000  \
	   0.000000000000000    0.000000000000000   40.700000000000003 
lattice-minimize  \
	dirUpdateScheme      L-BFGS \
	linminMethod         DirUpdateRecommended \
	nIterations          0 \
	history              15 \
	knormThreshold       0 \
	energyDiffThreshold  1e-06 \
	nEnergyDiff          2 \
	alphaTstart          1 \
	alphaTmin            1e-10 \
	updateTestStepSize   yes \
	alphaTreduceFactor   0.1 \
	alphaTincreaseFactor 3 \
	nAlphaAdjustMax      3 \
	wolfeEnergy          0.0001 \
	wolfeGradient        0.9 \
	fdTest               no
lcao-params -1 1e-06 0.001
pcm-variant GLSSA13
spintype z-spin
subspace-rotation-factor 1 yes
symmetries none
symmetry-threshold 0.0001


Applied RMS atom displacement 0 bohrs to make symmetries exact.

---------- Initializing the Grid ----------
R = 
[         8.14         8.14            0  ]
[         8.14        -8.14            0  ]
[            0            0         40.7  ]
unit cell volume = 5393.53
G =
[   0.385945   0.385945         -0  ]
[   0.385945  -0.385945         -0  ]
[         -0         -0   0.154378  ]
Minimum fftbox size, Smin = [  60  60  204  ]
Chosen fftbox size, S = [  60  60  210  ]

---------- Exchange Correlation functional ----------
Initialized LibXC exchange functional 'Hammer, Hansen, and Norskov'
Initialized LibXC correlation functional 'Perdew, Burke & Ernzerhof'

---------- Setting up pseudopotentials ----------
Width of ionic core gaussian charges (only for fluid interactions / plotting) set to 0

Reading pseudopotential file '/data2/jt577/jdftx_eat_withLibXC/build/pseudopotentials/SG15/Ni_ONCV_PBE.upf':
  'Ni' pseudopotential, 'PBE' functional
  Generated using ONCVPSP code by D. R. Hamann
  Author: Martin Schlipf and Francois Gygi  Date: 150915.
  18 valence electrons, 4 orbitals, 6 projectors, 1292 radial grid points, with lMax = 2
  Transforming local potential to a uniform radial grid of dG=0.02 with 1419 points.
  Transforming nonlocal projectors to a uniform radial grid of dG=0.02 with 528 points.
    3S    l: 0   occupation:  2.0   eigenvalue: -4.081355
    3P    l: 1   occupation:  6.0   eigenvalue: -2.623460
    4S    l: 0   occupation:  2.0   eigenvalue: -0.207378
    3D    l: 2   occupation:  8.0   eigenvalue: -0.326118
  Transforming atomic orbitals to a uniform radial grid of dG=0.02 with 528 points.
  WARNING: large normalization error in atomic orbital 1s (integral: 0.000006).
  Core radius for overlap checks: 1.99 bohrs.
  Reading pulay file /data2/jt577/jdftx_eat_withLibXC/build/pseudopotentials/SG15/Ni_ONCV_PBE.pulay ... using dE_dnG = -7.250568e-04 computed for Ecut = 30.

Reading pseudopotential file '/data2/jt577/jdftx_eat_withLibXC/build/pseudopotentials/SG15/V_ONCV_PBE.upf':
  'V' pseudopotential, 'PBE' functional
  Generated using ONCVPSP code by D. R. Hamann
  Author: Martin Schlipf and Francois Gygi  Date: 150915.
  13 valence electrons, 4 orbitals, 6 projectors, 1536 radial grid points, with lMax = 2
  Transforming local potential to a uniform radial grid of dG=0.02 with 1419 points.
  Transforming nonlocal projectors to a uniform radial grid of dG=0.02 with 528 points.
    3S    l: 0   occupation:  2.0   eigenvalue: -2.581105
    3P    l: 1   occupation:  6.0   eigenvalue: -1.618486
    4S    l: 0   occupation:  2.0   eigenvalue: -0.172804
    3D    l: 2   occupation:  3.0   eigenvalue: -0.189795
  Transforming atomic orbitals to a uniform radial grid of dG=0.02 with 528 points.
  Core radius for overlap checks: 1.80 bohrs.
  Reading pulay file /data2/jt577/jdftx_eat_withLibXC/build/pseudopotentials/SG15/V_ONCV_PBE.pulay ... using dE_dnG = -1.698632e-04 computed for Ecut = 30.

Reading pseudopotential file '/data2/jt577/jdftx_eat_withLibXC/build/pseudopotentials/SG15/Cr_ONCV_PBE.upf':
  'Cr' pseudopotential, 'PBE' functional
  Generated using ONCVPSP code by D. R. Hamann
  Author: Martin Schlipf and Francois Gygi  Date: 150915.
  14 valence electrons, 4 orbitals, 6 projectors, 1160 radial grid points, with lMax = 2
  Transforming local potential to a uniform radial grid of dG=0.02 with 1419 points.
  Transforming nonlocal projectors to a uniform radial grid of dG=0.02 with 528 points.
    3S    l: 0   occupation:  2.0   eigenvalue: -2.865131
    3P    l: 1   occupation:  6.0   eigenvalue: -1.810600
    4S    l: 0   occupation:  2.0   eigenvalue: -0.180525
    3D    l: 2   occupation:  4.0   eigenvalue: -0.220312
  Transforming atomic orbitals to a uniform radial grid of dG=0.02 with 528 points.
  WARNING: large normalization error in atomic orbital 1s (integral: 0.000001).
  Core radius for overlap checks: 2.10 bohrs.
  Reading pulay file /data2/jt577/jdftx_eat_withLibXC/build/pseudopotentials/SG15/Cr_ONCV_PBE.pulay ... using dE_dnG = -9.817895e-06 computed for Ecut = 30.

Reading pseudopotential file '/data2/jt577/jdftx_eat_withLibXC/build/pseudopotentials/SG15/Co_ONCV_PBE.upf':
  'Co' pseudopotential, 'PBE' functional
  Generated using ONCVPSP code by D. R. Hamann
  Author: Martin Schlipf and Francois Gygi  Date: 150915.
  17 valence electrons, 4 orbitals, 6 projectors, 1388 radial grid points, with lMax = 2
  Transforming local potential to a uniform radial grid of dG=0.02 with 1419 points.
  Transforming nonlocal projectors to a uniform radial grid of dG=0.02 with 528 points.
    3S    l: 0   occupation:  2.0   eigenvalue: -3.763303
    3P    l: 1   occupation:  6.0   eigenvalue: -2.412101
    4S    l: 0   occupation:  2.0   eigenvalue: -0.201022
    3D    l: 2   occupation:  7.0   eigenvalue: -0.301498
  Transforming atomic orbitals to a uniform radial grid of dG=0.02 with 528 points.
  Core radius for overlap checks: 1.94 bohrs.
  Reading pulay file /data2/jt577/jdftx_eat_withLibXC/build/pseudopotentials/SG15/Co_ONCV_PBE.pulay ... using dE_dnG = -9.787391e-05 computed for Ecut = 30.

Reading pseudopotential file '/data2/jt577/jdftx_eat_withLibXC/build/pseudopotentials/SG15/O_ONCV_PBE.upf':
  'O' pseudopotential, 'PBE' functional
  Generated using ONCVPSP code by D. R. Hamann
  Author: Martin Schlipf and Francois Gygi  Date: 150915.
  6 valence electrons, 2 orbitals, 4 projectors, 936 radial grid points, with lMax = 1
  Transforming local potential to a uniform radial grid of dG=0.02 with 1419 points.
  Transforming nonlocal projectors to a uniform radial grid of dG=0.02 with 528 points.
    2S    l: 0   occupation:  2.0   eigenvalue: -0.880572
    2P    l: 1   occupation:  4.0   eigenvalue: -0.331869
  Transforming atomic orbitals to a uniform radial grid of dG=0.02 with 528 points.
  Core radius for overlap checks: 1.29 bohrs.
  Reading pulay file /data2/jt577/jdftx_eat_withLibXC/build/pseudopotentials/SG15/O_ONCV_PBE.pulay ... using dE_dnG = -8.209514e-03 computed for Ecut = 30.

Reading pseudopotential file '/data2/jt577/jdftx_eat_withLibXC/build/pseudopotentials/SG15/H_ONCV_PBE.upf':
  'H' pseudopotential, 'PBE' functional
  Generated using ONCVPSP code by D. R. Hamann
  Author: Martin Schlipf and Francois Gygi  Date: 150915.
  1 valence electrons, 1 orbitals, 2 projectors, 1166 radial grid points, with lMax = 0
  Transforming local potential to a uniform radial grid of dG=0.02 with 1419 points.
  Transforming nonlocal projectors to a uniform radial grid of dG=0.02 with 528 points.
    1S    l: 0   occupation:  1.0   eigenvalue: -0.238602
  Transforming atomic orbitals to a uniform radial grid of dG=0.02 with 528 points.
  Core radius for overlap checks: 1.01 bohrs.
  Reading pulay file /data2/jt577/jdftx_eat_withLibXC/build/pseudopotentials/SG15/H_ONCV_PBE.pulay ... using dE_dnG = -8.245991e-05 computed for Ecut = 30.

Initialized 6 species with 34 total atoms.

Folded 1 k-points by 3x3x1 to 9 k-points.

---------- Setting up k-points, bands, fillings ----------
No reducable k-points. 
Computing the number of bands and number of electrons
Calculating initial fillings.
nElectrons: 351.000000   nBands: 229   nStates: 18

----- Setting up reduced wavefunction bases (one per k-point) -----
average nbasis = 42312.000 , ideal nbasis = 42330.081

---------- Setting up ewald sum ----------
Optimum gaussian width for ewald sums = 3.887061 bohr.
Real space sum over 605 unit cells with max indices [  5  5  2  ]
Reciprocal space sum over 5915 terms with max indices [  6  6  17  ]

---------- Allocating electronic variables ----------
Initializing wave functions:  linear combination of atomic orbitals
Ni (M=1) pseudo-atom majority spin occupations:   s ( 1 0.5 )  p ( 3 )  d ( 5 )
Ni (M=1) pseudo-atom minority spin occupations:   s ( 1 0 )  p ( 3 )  d ( 4.5 )
V (M=1) pseudo-atom majority spin occupations:   s ( 1 0 )  p ( 3 )  d ( 3 )
V (M=1) pseudo-atom minority spin occupations:   s ( 1 0 )  p ( 3 )  d ( 2 )
Cr (M=1) pseudo-atom majority spin occupations:   s ( 1 0 )  p ( 3 )  d ( 3.5 )
Cr (M=1) pseudo-atom minority spin occupations:   s ( 1 0 )  p ( 3 )  d ( 2.5 )
Co (M=1) pseudo-atom majority spin occupations:   s ( 1 0 )  p ( 3 )  d ( 5 )
Co (M=1) pseudo-atom minority spin occupations:   s ( 1 0 )  p ( 3 )  d ( 4 )
O pseudo-atom occupations:   s ( 2 )  p ( 4 )
H pseudo-atom occupations:   s ( 1 )
	FillingsUpdate:  mu: +0.623808587  nElectrons: 351.000000  magneticMoment: [ Abs: 0.26516  Tot: -0.00000 ]
LCAOMinimize: Iter:   0  F: -1896.1496540083544460  |grad|_K:  8.327e-03  alpha:  1.000e+00
	FillingsUpdate:  mu: +0.681389006  nElectrons: 351.000000  magneticMoment: [ Abs: 0.33217  Tot: +0.00000 ]
LCAOMinimize: Iter:   1  F: -1900.7449143015862774  |grad|_K:  1.007e-02  alpha:  6.291e-02  linmin: -5.198e-02  cgtest:  6.727e-01  t[s]:    101.80
LCAOMinimize: 	Wrong curvature in test step, increasing alphaT to 1.887238e-01.
	FillingsUpdate:  mu: +1.292641437  nElectrons: 351.000000  magneticMoment: [ Abs: 2.69315  Tot: +0.00000 ]
LCAOMinimize: Iter:   2  F: -1934.8040014251357661  |grad|_K:  3.537e-02  alpha: -1.431e-02  linmin: -5.054e-02  cgtest: -1.264e-01  t[s]:    135.83
LCAOMinimize: 	Step increased F by 6.897373e+02, reducing alpha to 4.708311e-02.
LCAOMinimize: 	Step increased F by 5.176930e+02, reducing alpha to 4.708311e-03.
LCAOMinimize: 	Step increased F by 1.239260e+02, reducing alpha to 4.708311e-04.
LCAOMinimize: 	Step failed to reduce F after 3 attempts. Quitting step.
LCAOMinimize: 	Undoing step.
LCAOMinimize: 	Step failed: resetting search direction.
	FillingsUpdate:  mu: +4.081015278  nElectrons: 351.000000  magneticMoment: [ Abs: 5.64025  Tot: -0.00000 ]
LCAOMinimize: Iter:   3  F: -1855.8773337749785242  |grad|_K:  1.117e-01  alpha:  4.708e-04
LCAOMinimize: 	Step increased F by 4.911510e+02, reducing alpha to 4.780892e-02.
	FillingsUpdate:  mu: +4.051459343  nElectrons: 351.000000  magneticMoment: [ Abs: 2.70455  Tot: -0.00000 ]
LCAOMinimize: Iter:   4  F: -1863.7445892515033847  |grad|_K:  9.609e-02  alpha:  4.781e-02  linmin:  9.644e-02  cgtest: -1.217e+00  t[s]:    310.82
LCAOMinimize: 	Bad step direction: g.d > 0.
LCAOMinimize: 	Undoing step.
LCAOMinimize: 	Step failed: resetting search direction.
	FillingsUpdate:  mu: +4.051459343  nElectrons: 351.000000  magneticMoment: [ Abs: 2.70455  Tot: -0.00000 ]
LCAOMinimize: Iter:   5  F: -1863.7445892515070227  |grad|_K:  9.609e-02  alpha:  0.000e+00
	FillingsUpdate:  mu: +0.739908245  nElectrons: 351.000000  magneticMoment: [ Abs: 2.33991  Tot: -0.00000 ]
LCAOMinimize: Iter:   6  F: -1946.9768559181902674  |grad|_K:  1.947e-02  alpha:  2.233e-02  linmin: -1.147e-01  cgtest:  1.068e+00  t[s]:    372.22
LCAOMinimize: Encountered beta<0, resetting CG.
	FillingsUpdate:  mu: +0.959431358  nElectrons: 351.000000  magneticMoment: [ Abs: 5.42257  Tot: +0.00000 ]
LCAOMinimize: Iter:   7  F: -1951.1988119033935618  |grad|_K:  3.560e-02  alpha:  4.806e-02  linmin:  1.238e-01  cgtest: -5.034e-01  t[s]:    412.42
LCAOMinimize: 	Bad step direction: g.d > 0.
LCAOMinimize: 	Undoing step.
LCAOMinimize: 	Step failed: resetting search direction.
	FillingsUpdate:  mu: +0.959431358  nElectrons: 351.000000  magneticMoment: [ Abs: 5.42257  Tot: +0.00000 ]
LCAOMinimize: Iter:   8  F: -1951.1988119033935618  |grad|_K:  3.560e-02  alpha:  0.000e+00
	FillingsUpdate:  mu: +0.230046578  nElectrons: 351.000000  magneticMoment: [ Abs: 2.85904  Tot: +0.00000 ]
LCAOMinimize: Iter:   9  F: -1957.4615485035039910  |grad|_K:  1.534e-02  alpha:  2.267e-02  linmin:  5.032e-02  cgtest: -9.828e-01  t[s]:    480.40
LCAOMinimize: 	Predicted alpha/alphaT>3.000000, increasing alphaT to 6.801024e-02.
	FillingsUpdate:  mu: +0.241187654  nElectrons: 351.000000  magneticMoment: [ Abs: 3.50135  Tot: +0.00000 ]
LCAOMinimize: Iter:  10  F: -1959.4464810972472151  |grad|_K:  1.738e-02  alpha:  2.641e-02  linmin: -1.749e-02  cgtest:  9.162e-01  t[s]:    526.87
	FillingsUpdate:  mu: +0.011342416  nElectrons: 351.000000  magneticMoment: [ Abs: 5.33219  Tot: -0.00000 ]
LCAOMinimize: Iter:  11  F: -1963.1246914418354663  |grad|_K:  8.790e-03  alpha:  2.134e-02  linmin:  1.717e-03  cgtest: -5.667e-02  t[s]:    563.60
LCAOMinimize: 	Predicted alpha/alphaT>3.000000, increasing alphaT to 6.401555e-02.
	FillingsUpdate:  mu: +0.028556925  nElectrons: 351.000000  magneticMoment: [ Abs: 5.65382  Tot: +0.00000 ]
LCAOMinimize: Iter:  12  F: -1963.7026791570215210  |grad|_K:  9.080e-03  alpha:  7.882e-03  linmin: -8.070e-02  cgtest:  9.301e-01  t[s]:    610.96
LCAOMinimize: 	Predicted alpha/alphaT>3.000000, increasing alphaT to 2.364659e-02.
	FillingsUpdate:  mu: +0.265137438  nElectrons: 351.000000  magneticMoment: [ Abs: 5.69111  Tot: +0.00000 ]
LCAOMinimize: Iter:  13  F: -1964.9478767934776897  |grad|_K:  1.319e-02  alpha:  3.164e-02  linmin:  1.273e-02  cgtest: -2.858e-01  t[s]:    658.20
	FillingsUpdate:  mu: +0.276713193  nElectrons: 351.000000  magneticMoment: [ Abs: 5.92810  Tot: -0.00000 ]
LCAOMinimize: Iter:  14  F: -1965.2335992211571920  |grad|_K:  1.274e-02  alpha:  2.219e-03  linmin: -3.484e-02  cgtest:  9.801e-01  t[s]:    694.31
LCAOMinimize: Encountered beta<0, resetting CG.
LCAOMinimize: 	Predicted alpha/alphaT>3.000000, increasing alphaT to 6.658312e-03.
	FillingsUpdate:  mu: +0.131945789  nElectrons: 351.000000  magneticMoment: [ Abs: 6.89179  Tot: -0.00000 ]
LCAOMinimize: Iter:  15  F: -1965.9757737776201338  |grad|_K:  5.820e-03  alpha:  1.067e-02  linmin:  7.554e-02  cgtest: -3.740e-01  t[s]:    738.80
	FillingsUpdate:  mu: +0.004680214  nElectrons: 351.000000  magneticMoment: [ Abs: 7.43258  Tot: -0.00000 ]
LCAOMinimize: Iter:  16  F: -1966.2233861724778308  |grad|_K:  5.157e-03  alpha:  2.723e-02  linmin:  1.824e-02  cgtest:  5.794e-01  t[s]:    774.05
	FillingsUpdate:  mu: +0.043584493  nElectrons: 351.000000  magneticMoment: [ Abs: 7.27610  Tot: +0.00000 ]
LCAOMinimize: Iter:  17  F: -1966.3697956714679549  |grad|_K:  3.144e-03  alpha:  1.218e-02  linmin: -1.898e-03  cgtest:  2.276e-02  t[s]:    809.13
	FillingsUpdate:  mu: +0.105201280  nElectrons: 351.000000  magneticMoment: [ Abs: 7.67962  Tot: -0.00000 ]
LCAOMinimize: Iter:  18  F: -1966.4615520733584617  |grad|_K:  1.930e-03  alpha:  2.000e-02  linmin:  8.506e-03  cgtest:  1.459e-01  t[s]:    844.43
	FillingsUpdate:  mu: +0.088005690  nElectrons: 351.000000  magneticMoment: [ Abs: 8.01865  Tot: -0.00000 ]
LCAOMinimize: Iter:  19  F: -1966.5004533384833394  |grad|_K:  2.307e-03  alpha:  2.319e-02  linmin: -6.752e-04  cgtest:  7.866e-02  t[s]:    879.46
	FillingsUpdate:  mu: +0.064487420  nElectrons: 351.000000  magneticMoment: [ Abs: 8.30786  Tot: +0.00000 ]
LCAOMinimize: Iter:  20  F: -1966.5680220072922566  |grad|_K:  1.253e-03  alpha:  2.593e-02  linmin: -3.280e-03  cgtest: -1.436e-01  t[s]:    915.02
	FillingsUpdate:  mu: +0.096684718  nElectrons: 351.000000  magneticMoment: [ Abs: 8.99006  Tot: +0.00000 ]
LCAOMinimize: Iter:  21  F: -1966.6161287765125962  |grad|_K:  1.037e-03  alpha:  5.795e-02  linmin: -1.712e-03  cgtest: -5.306e-02  t[s]:    950.47
	FillingsUpdate:  mu: +0.083073093  nElectrons: 351.000000  magneticMoment: [ Abs: 9.45006  Tot: +0.00000 ]
LCAOMinimize: Iter:  22  F: -1966.6359178016766691  |grad|_K:  1.477e-03  alpha:  3.775e-02  linmin:  1.143e-05  cgtest: -5.038e-02  t[s]:    985.83
	FillingsUpdate:  mu: +0.073920589  nElectrons: 351.000000  magneticMoment: [ Abs: 10.04974  Tot: -0.00000 ]
LCAOMinimize: Iter:  23  F: -1966.6693697716341376  |grad|_K:  1.156e-03  alpha:  3.271e-02  linmin: -4.524e-04  cgtest:  2.656e-01  t[s]:   1021.65
	FillingsUpdate:  mu: +0.112785924  nElectrons: 351.000000  magneticMoment: [ Abs: 10.98925  Tot: +0.00000 ]
LCAOMinimize: Iter:  24  F: -1966.7153613540078823  |grad|_K:  1.215e-03  alpha:  6.608e-02  linmin: -2.336e-03  cgtest:  1.223e-01  t[s]:   1056.97
	FillingsUpdate:  mu: +0.098735464  nElectrons: 351.000000  magneticMoment: [ Abs: 11.59875  Tot: +0.00000 ]
LCAOMinimize: Iter:  25  F: -1966.7461532518161675  |grad|_K:  1.394e-03  alpha:  3.961e-02  linmin: -9.582e-05  cgtest: -1.912e-01  t[s]:   1092.60
	FillingsUpdate:  mu: +0.085244394  nElectrons: 351.000000  magneticMoment: [ Abs: 12.24477  Tot: +0.00000 ]
LCAOMinimize: Iter:  26  F: -1966.7805180599420964  |grad|_K:  1.054e-03  alpha:  3.702e-02  linmin: -4.203e-04  cgtest:  6.387e-01  t[s]:   1127.74
	FillingsUpdate:  mu: +0.092149774  nElectrons: 351.000000  magneticMoment: [ Abs: 12.36583  Tot: +0.00000 ]
LCAOMinimize: Iter:  27  F: -1966.7916341831271438  |grad|_K:  6.166e-04  alpha:  2.256e-02  linmin:  2.522e-03  cgtest: -9.802e-02  t[s]:   1162.68
	FillingsUpdate:  mu: +0.102007360  nElectrons: 351.000000  magneticMoment: [ Abs: 12.62829  Tot: -0.00000 ]
LCAOMinimize: Iter:  28  F: -1966.8004310867781896  |grad|_K:  4.603e-04  alpha:  4.756e-02  linmin: -1.236e-02  cgtest:  1.128e-01  t[s]:   1197.78
	FillingsUpdate:  mu: +0.081282963  nElectrons: 351.000000  magneticMoment: [ Abs: 12.90773  Tot: +0.00000 ]
LCAOMinimize: Iter:  29  F: -1966.8102393096896776  |grad|_K:  5.260e-04  alpha:  9.075e-02  linmin:  1.345e-04  cgtest: -1.101e-01  t[s]:   1232.84
	FillingsUpdate:  mu: +0.092024730  nElectrons: 351.000000  magneticMoment: [ Abs: 13.70368  Tot: -0.00000 ]
LCAOMinimize: Iter:  30  F: -1966.8217344285026229  |grad|_K:  6.989e-04  alpha:  8.787e-02  linmin: -2.992e-03  cgtest:  7.984e-02  t[s]:   1267.78
LCAOMinimize: None of the convergence criteria satisfied after 30 iterations.


---- Citations for features of the code used in this run ----

   Software package:
      R. Sundararaman, K. Letchworth-Weaver, K.A. Schwarz, D. Gunceler, Y. Ozhabes and T.A. Arias, 'JDFTx: software for joint density-functional theory', SoftwareX 6, 278 (2017)

   Simplified rotationally-invariant DFT+U:
      S. L. Dudarev et al., Phys. Rev. B 57, 1505 (1998)

   LibXC library of exchange-correlation functions:
      M. A. L. Marques, M. J. T. Oliveira and T. Burnus, Comput. Phys. Commun. 183, 2272 (2012)

   Hammer, Hansen, and Norskov exchange functional:
      B. Hammer, L. B. Hansen, and J. K. Nørskov, Phys. Rev. B 59, 7413 (1999)

   Perdew, Burke & Ernzerhof correlation functional:
      J. P. Perdew, K. Burke, and M. Ernzerhof, Phys. Rev. Lett. 77, 3865 (1996)

   Pseudopotentials:
      M Schlipf and F Gygi, Comput. Phys. Commun. 196, 36 (2015)

   Total energy minimization with Auxiliary Hamiltonian:
      C. Freysoldt, S. Boeck, and J. Neugebauer, Phys. Rev. B 79, 241103(R) (2009)

This list may not be complete. Please suggest additional citations or
report any other bugs at https://github.com/shankar1729/jdftx/issues

Initialization completed successfully at t[s]:   1279.87


-------- Electronic minimization -----------
	FillingsUpdate:  mu: +0.092024731  nElectrons: 351.000000  magneticMoment: [ Abs: 13.70368  Tot: -0.00000 ]
ElecMinimize: Iter:   0  F: -1966.821734428494665  |grad|_K:  9.659e-04  alpha:  1.000e+00
	FillingsUpdate:  mu: +0.670921414  nElectrons: 351.000000  magneticMoment: [ Abs: 15.43498  Tot: -0.00000 ]
	SubspaceRotationAdjust: set factor to 0.986
ElecMinimize: Iter:   1  F: -2011.010183499855430  |grad|_K:  1.378e-03  alpha:  4.627e-01  linmin:  2.270e-02  t[s]:   1397.88
ElecMinimize: 	Step increased F by 1.232906e+01, reducing alpha to 7.210685e-03.
	FillingsUpdate:  mu: +0.500428062  nElectrons: 351.000000  magneticMoment: [ Abs: 15.32281  Tot: -0.00000 ]
	SubspaceRotationAdjust: set factor to 1.5
ElecMinimize: Iter:   2  F: -2014.115972125998042  |grad|_K:  8.747e-04  alpha:  7.211e-03  linmin: -4.021e-03  t[s]:   1527.46
	FillingsUpdate:  mu: +0.350922966  nElectrons: 351.000000  magneticMoment: [ Abs: 15.31279  Tot: -0.00000 ]
	SubspaceRotationAdjust: set factor to 1.51
ElecMinimize: Iter:   3  F: -2018.455656825701681  |grad|_K:  8.322e-04  alpha:  1.885e-02  linmin: -3.008e-03  t[s]:   1607.02
ElecMinimize: 	Predicted alpha/alphaT>3.000000, increasing alphaT to 5.655878e-02.
	FillingsUpdate:  mu: +0.395931640  nElectrons: 351.000000  magneticMoment: [ Abs: 16.86132  Tot: -0.00000 ]
	SubspaceRotationAdjust: set factor to 0.842
ElecMinimize: Iter:   4  F: -2027.713437407836182  |grad|_K:  1.694e-03  alpha:  4.700e-02  linmin:  1.829e-04  t[s]:   1707.71
	FillingsUpdate:  mu: +0.334791702  nElectrons: 351.000000  magneticMoment: [ Abs: 17.50274  Tot: +0.00000 ]
	SubspaceRotationAdjust: set factor to 0.505
ElecMinimize: Iter:   5  F: -2031.464372844193349  |grad|_K:  1.222e-03  alpha:  3.892e-03  linmin: -2.271e-03  t[s]:   1786.44
	FillingsUpdate:  mu: +0.211730779  nElectrons: 351.000000  magneticMoment: [ Abs: 19.53361  Tot: -0.00000 ]
	SubspaceRotationAdjust: set factor to 0.438
ElecMinimize: Iter:   6  F: -2036.391326385227785  |grad|_K:  6.718e-04  alpha:  8.969e-03  linmin: -1.661e-03  t[s]:   1865.96
ElecMinimize: 	Predicted alpha/alphaT>3.000000, increasing alphaT to 2.690794e-02.
	FillingsUpdate:  mu: +1.092499442  nElectrons: 351.000000  magneticMoment: [ Abs: 20.39799  Tot: -0.00000 ]
	SubspaceRotationAdjust: set factor to 0.274
ElecMinimize: Iter:   7  F: -2039.084228675568511  |grad|_K:  9.707e-04  alpha:  5.833e-02  linmin:  1.148e-03  t[s]:   1967.10
	FillingsUpdate:  mu: +1.072951978  nElectrons: 351.000000  magneticMoment: [ Abs: 20.50053  Tot: +0.00000 ]
	SubspaceRotationAdjust: set factor to 0.196
ElecMinimize: Iter:   8  F: -2039.360332335542580  |grad|_K:  7.883e-04  alpha:  1.277e-03  linmin: -4.639e-04  t[s]:   2046.69
ElecMinimize: 	Predicted alpha/alphaT>3.000000, increasing alphaT to 3.831261e-03.
	FillingsUpdate:  mu: +0.903381513  nElectrons: 351.000000  magneticMoment: [ Abs: 20.87293  Tot: -0.00000 ]
	SubspaceRotationAdjust: set factor to 0.165
ElecMinimize: Iter:   9  F: -2040.549987542286090  |grad|_K:  6.972e-04  alpha:  8.408e-03  linmin: -3.521e-04  t[s]:   2148.30
ElecMinimize: 	Predicted alpha/alphaT>3.000000, increasing alphaT to 2.522496e-02.
	FillingsUpdate:  mu: +0.709530473  nElectrons: 351.000000  magneticMoment: [ Abs: 21.22360  Tot: +0.00000 ]
	SubspaceRotationAdjust: set factor to 0.153
ElecMinimize: Iter:  10  F: -2041.683243484073728  |grad|_K:  6.489e-04  alpha:  5.929e-03  linmin: -1.700e-03  t[s]:   2251.60
	FillingsUpdate:  mu: +0.495115919  nElectrons: 351.000000  magneticMoment: [ Abs: 22.19942  Tot: +0.00000 ]
	SubspaceRotationAdjust: set factor to 0.213
ElecMinimize: Iter:  11  F: -2042.720611954956439  |grad|_K:  5.276e-04  alpha:  9.455e-03  linmin:  1.973e-03  t[s]:   2332.34
ElecMinimize: 	Bad step direction: g.d > 0.
ElecMinimize: 	Undoing step.
ElecMinimize: 	Step failed: resetting search direction.
	FillingsUpdate:  mu: +0.495115919  nElectrons: 351.000000  magneticMoment: [ Abs: 22.19942  Tot: +0.00000 ]
	SubspaceRotationAdjust: set factor to 0.264
ElecMinimize: Iter:  12  F: -2042.720611954956212  |grad|_K:  5.604e-04  alpha:  0.000e+00
ElecMinimize: 	Predicted alpha/alphaT>3.000000, increasing alphaT to 2.836515e-02.
ElecMinimize: 	Predicted alpha/alphaT>3.000000, increasing alphaT to 8.509546e-02.
	FillingsUpdate:  mu: +0.125998163  nElectrons: 351.000000  magneticMoment: [ Abs: 23.12204  Tot: -0.00000 ]
	SubspaceRotationAdjust: set factor to 0.181
ElecMinimize: Iter:  13  F: -2051.360941547261973  |grad|_K:  2.101e-04  alpha:  1.585e-01  linmin:  2.872e-03  t[s]:   2512.53
	FillingsUpdate:  mu: +0.174318146  nElectrons: 351.000000  magneticMoment: [ Abs: 22.16969  Tot: -0.00000 ]
	SubspaceRotationAdjust: set factor to 0.13
	SubspaceRotationAdjust: resetting CG because factor has changed by 0.129974
ElecMinimize: 	State modified externally: resetting search direction.
ElecMinimize: Iter:  14  F: -2052.266761771402798  |grad|_K:  1.290e-04  alpha:  1.180e-01
	FillingsUpdate:  mu: +0.146252801  nElectrons: 351.000000  magneticMoment: [ Abs: 22.38919  Tot: -0.00000 ]
	SubspaceRotationAdjust: set factor to 0.102
ElecMinimize: Iter:  15  F: -2052.668907678321830  |grad|_K:  8.959e-05  alpha:  1.410e-01  linmin:  1.520e-03  t[s]:   2709.67
	FillingsUpdate:  mu: +0.171193874  nElectrons: 351.000000  magneticMoment: [ Abs: 22.23426  Tot: -0.00000 ]
	SubspaceRotationAdjust: set factor to 0.118
ElecMinimize: Iter:  16  F: -2053.114135065887695  |grad|_K:  7.320e-05  alpha:  3.531e-01  linmin: -2.172e-04  t[s]:   2791.48
	FillingsUpdate:  mu: +0.147861080  nElectrons: 351.000000  magneticMoment: [ Abs: 22.40593  Tot: -0.00000 ]
	SubspaceRotationAdjust: set factor to 0.15
ElecMinimize: Iter:  17  F: -2053.435883729821398  |grad|_K:  5.381e-05  alpha:  3.306e-01  linmin: -5.420e-04  t[s]:   2871.25
	FillingsUpdate:  mu: +0.129420461  nElectrons: 351.000000  magneticMoment: [ Abs: 23.07953  Tot: -0.00000 ]
	SubspaceRotationAdjust: set factor to 0.101
ElecMinimize: Iter:  18  F: -2053.666647763300716  |grad|_K:  7.503e-05  alpha:  4.064e-01  linmin: -2.528e-04  t[s]:   2949.49
	FillingsUpdate:  mu: +0.133108797  nElectrons: 351.000000  magneticMoment: [ Abs: 23.64529  Tot: -0.00000 ]
	SubspaceRotationAdjust: set factor to 0.0745
ElecMinimize: Iter:  19  F: -2053.868805836495994  |grad|_K:  5.538e-05  alpha:  1.909e-01  linmin: -8.819e-05  t[s]:   3028.47
	FillingsUpdate:  mu: +0.135294255  nElectrons: 351.000000  magneticMoment: [ Abs: 24.70022  Tot: +0.00000 ]
	SubspaceRotationAdjust: set factor to 0.085
ElecMinimize: Iter:  20  F: -2054.126386250577070  |grad|_K:  5.643e-05  alpha:  4.538e-01  linmin: -1.226e-04  t[s]:   3107.70
	FillingsUpdate:  mu: +0.144920952  nElectrons: 351.000000  magneticMoment: [ Abs: 25.97598  Tot: +0.00000 ]
	SubspaceRotationAdjust: set factor to 0.0892
ElecMinimize: Iter:  21  F: -2054.442680163472687  |grad|_K:  7.145e-05  alpha:  5.212e-01  linmin: -2.697e-05  t[s]:   3188.00
ElecMinimize: 	Step increased F by 7.747549e-03, reducing alpha to 4.017836e-03.
ElecMinimize: 	Step increased F by 7.238805e-02, reducing alpha to 4.017836e-04.
ElecMinimize: 	Step increased F by 7.928603e-02, reducing alpha to 4.017836e-05.
ElecMinimize: 	Step failed to reduce F after 3 attempts. Quitting step.
ElecMinimize: 	Undoing step.
ElecMinimize: 	Step failed: resetting search direction.
	FillingsUpdate:  mu: +0.142548002  nElectrons: 351.000000  magneticMoment: [ Abs: 25.96996  Tot: -0.00000 ]
	SubspaceRotationAdjust: set factor to 0.109
ElecMinimize: Iter:  22  F: -2054.363317047029341  |grad|_K:  7.281e-05  alpha:  4.018e-05
	FillingsUpdate:  mu: +0.143461588  nElectrons: 351.000000  magneticMoment: [ Abs: 25.89682  Tot: -0.00000 ]
	SubspaceRotationAdjust: set factor to 0.0794
ElecMinimize: Iter:  23  F: -2054.527762293638716  |grad|_K:  4.447e-05  alpha:  1.670e-01  linmin: -2.861e-03  t[s]:   3501.66
	FillingsUpdate:  mu: +0.123194266  nElectrons: 351.000000  magneticMoment: [ Abs: 26.00534  Tot: -0.00000 ]
	SubspaceRotationAdjust: set factor to 0.0691
ElecMinimize: Iter:  24  F: -2054.644268796660072  |grad|_K:  3.610e-05  alpha:  3.165e-01  linmin: -5.863e-04  t[s]:   3581.01
	FillingsUpdate:  mu: +0.127495146  nElectrons: 351.000000  magneticMoment: [ Abs: 26.22110  Tot: -0.00000 ]
	SubspaceRotationAdjust: set factor to 0.0822
ElecMinimize: Iter:  25  F: -2054.744953966855974  |grad|_K:  3.314e-05  alpha:  4.208e-01  linmin: -3.802e-04  t[s]:   3660.05
	FillingsUpdate:  mu: +0.127322823  nElectrons: 351.000000  magneticMoment: [ Abs: 26.64059  Tot: +0.00000 ]
	SubspaceRotationAdjust: set factor to 0.0992
ElecMinimize: Iter:  26  F: -2054.827256030648186  |grad|_K:  2.952e-05  alpha:  4.074e-01  linmin: -1.884e-04  t[s]:   3738.07
	FillingsUpdate:  mu: +0.128197274  nElectrons: 351.000000  magneticMoment: [ Abs: 27.19390  Tot: +0.00000 ]
	SubspaceRotationAdjust: set factor to 0.105
ElecMinimize: Iter:  27  F: -2054.891573237256580  |grad|_K:  2.998e-05  alpha:  4.090e-01  linmin: -1.892e-04  t[s]:   3817.01
	FillingsUpdate:  mu: +0.131963379  nElectrons: 351.000000  magneticMoment: [ Abs: 27.65590  Tot: +0.00000 ]
	SubspaceRotationAdjust: set factor to 0.0888
ElecMinimize: Iter:  28  F: -2054.938553109128861  |grad|_K:  3.274e-05  alpha:  2.803e-01  linmin: -1.126e-04  t[s]:   3895.69
	FillingsUpdate:  mu: +0.110576718  nElectrons: 351.000000  magneticMoment: [ Abs: 28.39973  Tot: +0.00000 ]
	SubspaceRotationAdjust: set factor to 0.0901
ElecMinimize: Iter:  29  F: -2055.002080212516375  |grad|_K:  3.266e-05  alpha:  3.270e-01  linmin: -1.628e-04  t[s]:   3974.97
	FillingsUpdate:  mu: +0.125096191  nElectrons: 351.000000  magneticMoment: [ Abs: 29.94884  Tot: -0.00000 ]
	SubspaceRotationAdjust: set factor to 0.0964
ElecMinimize: Iter:  30  F: -2055.121225915381274  |grad|_K:  4.131e-05  alpha:  5.938e-01  linmin: -4.964e-05  t[s]:   4053.61
ElecMinimize: 	Step increased F by 2.884115e-02, reducing alpha to 1.449700e-03.
ElecMinimize: 	Step increased F by 3.756397e-02, reducing alpha to 1.449700e-04.
ElecMinimize: 	Step increased F by 3.845163e-02, reducing alpha to 1.449700e-05.
ElecMinimize: 	Step failed to reduce F after 3 attempts. Quitting step.
ElecMinimize: 	Undoing step.
ElecMinimize: 	Step failed: resetting search direction.
	FillingsUpdate:  mu: +0.121079960  nElectrons: 351.000000  magneticMoment: [ Abs: 29.92686  Tot: +0.00000 ]
	SubspaceRotationAdjust: set factor to 0.104
ElecMinimize: Iter:  31  F: -2055.082764409621177  |grad|_K:  4.169e-05  alpha:  1.450e-05
	FillingsUpdate:  mu: +0.120311528  nElectrons: 351.000000  magneticMoment: [ Abs: 29.97163  Tot: +0.00000 ]
	SubspaceRotationAdjust: set factor to 0.114
ElecMinimize: Iter:  32  F: -2055.143829205593192  |grad|_K:  2.679e-05  alpha:  2.021e-01  linmin:  7.833e-05  t[s]:   4359.81
	FillingsUpdate:  mu: +0.124805642  nElectrons: 351.000000  magneticMoment: [ Abs: 30.02567  Tot: -0.00000 ]
	SubspaceRotationAdjust: set factor to 0.113
ElecMinimize: Iter:  33  F: -2055.189392857605526  |grad|_K:  2.375e-05  alpha:  3.622e-01  linmin: -3.973e-04  t[s]:   4438.30
	FillingsUpdate:  mu: +0.127539395  nElectrons: 351.000000  magneticMoment: [ Abs: 30.24020  Tot: -0.00000 ]
	SubspaceRotationAdjust: set factor to 0.0901
ElecMinimize: Iter:  34  F: -2055.213449054414923  |grad|_K:  2.380e-05  alpha:  2.396e-01  linmin: -1.003e-04  t[s]:   4516.20
	FillingsUpdate:  mu: +0.123669836  nElectrons: 351.000000  magneticMoment: [ Abs: 30.47483  Tot: -0.00000 ]
	SubspaceRotationAdjust: set factor to 0.0797
ElecMinimize: Iter:  35  F: -2055.240708897184049  |grad|_K:  1.900e-05  alpha:  2.740e-01  linmin:  3.363e-06  t[s]:   4595.86
	FillingsUpdate:  mu: +0.115357828  nElectrons: 351.000000  magneticMoment: [ Abs: 30.87283  Tot: +0.00000 ]
	SubspaceRotationAdjust: set factor to 0.0931
ElecMinimize: Iter:  36  F: -2055.266656080489611  |grad|_K:  1.764e-05  alpha:  4.113e-01  linmin: -9.162e-06  t[s]:   4677.31
	FillingsUpdate:  mu: +0.116051579  nElectrons: 351.000000  magneticMoment: [ Abs: 31.34975  Tot: +0.00000 ]
	SubspaceRotationAdjust: set factor to 0.106
ElecMinimize: Iter:  37  F: -2055.289191463654788  |grad|_K:  1.657e-05  alpha:  4.138e-01  linmin: -3.495e-05  t[s]:   4756.28
	FillingsUpdate:  mu: +0.124184380  nElectrons: 351.000000  magneticMoment: [ Abs: 31.76631  Tot: -0.00000 ]
	SubspaceRotationAdjust: set factor to 0.0867
ElecMinimize: Iter:  38  F: -2055.304850860403349  |grad|_K:  2.017e-05  alpha:  3.244e-01  linmin: -3.095e-05  t[s]:   4834.76
	FillingsUpdate:  mu: +0.120129386  nElectrons: 351.000000  magneticMoment: [ Abs: 32.45784  Tot: +0.00000 ]
	SubspaceRotationAdjust: set factor to 0.073
ElecMinimize: Iter:  39  F: -2055.324025847553912  |grad|_K:  1.945e-05  alpha:  2.722e-01  linmin: -1.507e-04  t[s]:   4914.24
	FillingsUpdate:  mu: +0.127413521  nElectrons: 351.000000  magneticMoment: [ Abs: 33.60108  Tot: -0.00000 ]
	SubspaceRotationAdjust: set factor to 0.0755
ElecMinimize: Iter:  40  F: -2055.357382941866035  |grad|_K:  2.250e-05  alpha:  5.320e-01  linmin:  7.077e-04  t[s]:   4992.66
	FillingsUpdate:  mu: +0.121451368  nElectrons: 351.000000  magneticMoment: [ Abs: 33.97667  Tot: +0.00000 ]
	SubspaceRotationAdjust: set factor to 0.0877
ElecMinimize: Iter:  41  F: -2055.370436975834764  |grad|_K:  1.774e-05  alpha:  1.315e-01  linmin: -1.537e-03  t[s]:   5070.44
	FillingsUpdate:  mu: +0.116432547  nElectrons: 351.000000  magneticMoment: [ Abs: 34.28146  Tot: +0.00000 ]
	SubspaceRotationAdjust: set factor to 0.116
ElecMinimize: Iter:  42  F: -2055.381635711974468  |grad|_K:  1.422e-05  alpha:  1.599e-01  linmin:  1.507e-04  t[s]:   5148.83
	FillingsUpdate:  mu: +0.119387751  nElectrons: 351.000000  magneticMoment: [ Abs: 34.51701  Tot: +0.00000 ]
	SubspaceRotationAdjust: set factor to 0.143
ElecMinimize: Iter:  43  F: -2055.387744855397614  |grad|_K:  1.347e-05  alpha:  1.761e-01  linmin: -7.310e-06  t[s]:   5228.23
	FillingsUpdate:  mu: +0.116723011  nElectrons: 351.000000  magneticMoment: [ Abs: 34.70503  Tot: +0.00000 ]
	SubspaceRotationAdjust: set factor to 0.176
ElecMinimize: Iter:  44  F: -2055.391975381377961  |grad|_K:  1.087e-05  alpha:  1.335e-01  linmin: -7.189e-06  t[s]:   5306.02
	FillingsUpdate:  mu: +0.118449602  nElectrons: 351.000000  magneticMoment: [ Abs: 34.88164  Tot: -0.00000 ]
	SubspaceRotationAdjust: set factor to 0.197
ElecMinimize: Iter:  45  F: -2055.394811942420347  |grad|_K:  1.034e-05  alpha:  1.370e-01  linmin: -7.210e-05  t[s]:   5383.69
	FillingsUpdate:  mu: +0.118540029  nElectrons: 351.000000  magneticMoment: [ Abs: 35.11495  Tot: +0.00000 ]
	SubspaceRotationAdjust: set factor to 0.229
ElecMinimize: Iter:  46  F: -2055.397737861567293  |grad|_K:  1.130e-05  alpha:  1.549e-01  linmin: -2.079e-04  t[s]:   5462.63
	FillingsUpdate:  mu: +0.117762802  nElectrons: 351.000000  magneticMoment: [ Abs: 35.40328  Tot: -0.00000 ]
	SubspaceRotationAdjust: set factor to 0.287
ElecMinimize: Iter:  47  F: -2055.401262686506925  |grad|_K:  1.192e-05  alpha:  1.549e-01  linmin: -2.517e-05  t[s]:   5543.14
	FillingsUpdate:  mu: +0.118996117  nElectrons: 351.000000  magneticMoment: [ Abs: 35.69329  Tot: -0.00000 ]
	SubspaceRotationAdjust: set factor to 0.32
ElecMinimize: Iter:  48  F: -2055.404696283978410  |grad|_K:  1.324e-05  alpha:  1.378e-01  linmin: -2.768e-05  t[s]:   5623.61
	FillingsUpdate:  mu: +0.123111205  nElectrons: 351.000000  magneticMoment: [ Abs: 36.08347  Tot: -0.00000 ]
	SubspaceRotationAdjust: set factor to 0.391
ElecMinimize: Iter:  49  F: -2055.408722505457717  |grad|_K:  1.465e-05  alpha:  1.305e-01  linmin:  1.230e-04  t[s]:   5702.14
	FillingsUpdate:  mu: +0.123140447  nElectrons: 351.000000  magneticMoment: [ Abs: 36.49134  Tot: -0.00000 ]
	SubspaceRotationAdjust: set factor to 0.414
ElecMinimize: Iter:  50  F: -2055.412613700209477  |grad|_K:  1.722e-05  alpha:  1.055e-01  linmin: -2.485e-05  t[s]:   5780.57
	FillingsUpdate:  mu: +0.127945789  nElectrons: 351.000000  magneticMoment: [ Abs: 36.85579  Tot: +0.00000 ]
	SubspaceRotationAdjust: set factor to 0.484
ElecMinimize: Iter:  51  F: -2055.416822797215900  |grad|_K:  1.745e-05  alpha:  7.754e-02  linmin:  1.894e-06  t[s]:   5858.54
	FillingsUpdate:  mu: +0.130140687  nElectrons: 351.000000  magneticMoment: [ Abs: 37.18358  Tot: -0.00000 ]
	SubspaceRotationAdjust: set factor to 0.457
ElecMinimize: Iter:  52  F: -2055.420432833649102  |grad|_K:  1.942e-05  alpha:  6.749e-02  linmin:  2.592e-05  t[s]:   5936.11
	FillingsUpdate:  mu: +0.129147163  nElectrons: 351.000000  magneticMoment: [ Abs: 37.60228  Tot: +0.00000 ]
	SubspaceRotationAdjust: set factor to 0.439
ElecMinimize: Iter:  53  F: -2055.424812311272035  |grad|_K:  2.037e-05  alpha:  6.681e-02  linmin: -5.603e-05  t[s]:   6013.83
	FillingsUpdate:  mu: +0.132467284  nElectrons: 351.000000  magneticMoment: [ Abs: 38.03327  Tot: +0.00000 ]
	SubspaceRotationAdjust: set factor to 0.613
ElecMinimize: Iter:  54  F: -2055.429589662055150  |grad|_K:  1.846e-05  alpha:  6.485e-02  linmin: -3.322e-05  t[s]:   6091.00
	FillingsUpdate:  mu: +0.132661290  nElectrons: 351.000000  magneticMoment: [ Abs: 38.38899  Tot: +0.00000 ]
	SubspaceRotationAdjust: set factor to 0.66
ElecMinimize: Iter:  55  F: -2055.433988842318740  |grad|_K:  1.891e-05  alpha:  7.249e-02  linmin: -9.239e-05  t[s]:   6169.20
	FillingsUpdate:  mu: +0.123105718  nElectrons: 351.000000  magneticMoment: [ Abs: 38.78693  Tot: -0.00000 ]
	SubspaceRotationAdjust: set factor to 0.79
ElecMinimize: Iter:  56  F: -2055.439342538878009  |grad|_K:  2.050e-05  alpha:  8.320e-02  linmin:  8.910e-05  t[s]:   6249.16
	FillingsUpdate:  mu: +0.118086517  nElectrons: 351.000000  magneticMoment: [ Abs: 39.03064  Tot: +0.00000 ]
	SubspaceRotationAdjust: set factor to 0.925
ElecMinimize: Iter:  57  F: -2055.443051159004426  |grad|_K:  2.047e-05  alpha:  5.014e-02  linmin: -4.246e-05  t[s]:   6327.07
	FillingsUpdate:  mu: +0.117517655  nElectrons: 351.000000  magneticMoment: [ Abs: 39.19098  Tot: +0.00000 ]
	SubspaceRotationAdjust: set factor to 0.933
ElecMinimize: Iter:  58  F: -2055.446266360169375  |grad|_K:  2.190e-05  alpha:  4.317e-02  linmin: -5.135e-06  t[s]:   6404.83
	FillingsUpdate:  mu: +0.118550132  nElectrons: 351.000000  magneticMoment: [ Abs: 39.34521  Tot: +0.00000 ]
	SubspaceRotationAdjust: set factor to 0.864
ElecMinimize: Iter:  59  F: -2055.449640142341650  |grad|_K:  2.346e-05  alpha:  4.009e-02  linmin:  1.186e-05  t[s]:   6483.77
	FillingsUpdate:  mu: +0.121006837  nElectrons: 351.000000  magneticMoment: [ Abs: 39.48299  Tot: +0.00000 ]
	SubspaceRotationAdjust: set factor to 0.891
ElecMinimize: Iter:  60  F: -2055.452603626754808  |grad|_K:  2.278e-05  alpha:  3.006e-02  linmin:  1.059e-05  t[s]:   6562.13
	FillingsUpdate:  mu: +0.122853339  nElectrons: 351.000000  magneticMoment: [ Abs: 39.57952  Tot: +0.00000 ]
	SubspaceRotationAdjust: set factor to 0.903
ElecMinimize: Iter:  61  F: -2055.454728803200851  |grad|_K:  2.329e-05  alpha:  2.292e-02  linmin:  3.606e-05  t[s]:   6641.40
	FillingsUpdate:  mu: +0.126752685  nElectrons: 351.000000  magneticMoment: [ Abs: 39.65212  Tot: +0.00000 ]
	SubspaceRotationAdjust: set factor to 0.825
ElecMinimize: Iter:  62  F: -2055.456554174732901  |grad|_K:  2.471e-05  alpha:  1.957e-02  linmin: -1.251e-05  t[s]:   6719.13
	FillingsUpdate:  mu: +0.128484222  nElectrons: 351.000000  magneticMoment: [ Abs: 39.71080  Tot: +0.00000 ]
	SubspaceRotationAdjust: set factor to 0.733
ElecMinimize: Iter:  63  F: -2055.458764263632020  |grad|_K:  2.489e-05  alpha:  2.056e-02  linmin: -6.681e-05  t[s]:   6797.04
	FillingsUpdate:  mu: +0.133441018  nElectrons: 351.000000  magneticMoment: [ Abs: 39.74593  Tot: -0.00000 ]
	SubspaceRotationAdjust: set factor to 0.692
ElecMinimize: Iter:  64  F: -2055.461193711583292  |grad|_K:  2.364e-05  alpha:  2.188e-02  linmin: -1.112e-06  t[s]:   6877.22
	FillingsUpdate:  mu: +0.134426648  nElectrons: 351.000000  magneticMoment: [ Abs: 39.76443  Tot: +0.00000 ]
	SubspaceRotationAdjust: set factor to 0.673
ElecMinimize: Iter:  65  F: -2055.463364926345093  |grad|_K:  2.323e-05  alpha:  2.221e-02  linmin:  2.320e-05  t[s]:   6955.89
	FillingsUpdate:  mu: +0.133756224  nElectrons: 351.000000  magneticMoment: [ Abs: 39.78120  Tot: -0.00000 ]
	SubspaceRotationAdjust: set factor to 0.631
ElecMinimize: Iter:  66  F: -2055.465552753340944  |grad|_K:  2.403e-05  alpha:  2.340e-02  linmin:  1.091e-05  t[s]:   7033.76
	FillingsUpdate:  mu: +0.136150149  nElectrons: 351.000000  magneticMoment: [ Abs: 39.80183  Tot: -0.00000 ]
	SubspaceRotationAdjust: set factor to 0.589
ElecMinimize: Iter:  67  F: -2055.468095576369251  |grad|_K:  2.495e-05  alpha:  2.529e-02  linmin: -1.549e-06  t[s]:   7112.50
	FillingsUpdate:  mu: +0.129175997  nElectrons: 351.000000  magneticMoment: [ Abs: 39.84129  Tot: +0.00000 ]
	SubspaceRotationAdjust: set factor to 0.588
ElecMinimize: Iter:  68  F: -2055.470899807247861  |grad|_K:  2.523e-05  alpha:  2.577e-02  linmin:  8.065e-05  t[s]:   7189.93
	FillingsUpdate:  mu: +0.119985611  nElectrons: 351.000000  magneticMoment: [ Abs: 39.89176  Tot: +0.00000 ]
	SubspaceRotationAdjust: set factor to 0.601
ElecMinimize: Iter:  69  F: -2055.473062168828164  |grad|_K:  2.569e-05  alpha:  2.001e-02  linmin:  1.202e-05  t[s]:   7269.02
	FillingsUpdate:  mu: +0.117727033  nElectrons: 351.000000  magneticMoment: [ Abs: 39.92497  Tot: +0.00000 ]
	SubspaceRotationAdjust: set factor to 0.573
ElecMinimize: Iter:  70  F: -2055.475508871873899  |grad|_K:  2.679e-05  alpha:  2.128e-02  linmin: -3.083e-05  t[s]:   7347.30
	FillingsUpdate:  mu: +0.118231168  nElectrons: 351.000000  magneticMoment: [ Abs: 39.92320  Tot: +0.00000 ]
	SubspaceRotationAdjust: set factor to 0.554
ElecMinimize: Iter:  71  F: -2055.478195540023535  |grad|_K:  2.631e-05  alpha:  2.111e-02  linmin:  5.928e-06  t[s]:   7424.90
	FillingsUpdate:  mu: +0.120980934  nElectrons: 351.000000  magneticMoment: [ Abs: 39.89936  Tot: +0.00000 ]
	SubspaceRotationAdjust: set factor to 0.621
ElecMinimize: Iter:  72  F: -2055.480523564699979  |grad|_K:  2.411e-05  alpha:  1.927e-02  linmin:  9.821e-07  t[s]:   7505.31
	FillingsUpdate:  mu: +0.127455001  nElectrons: 351.000000  magneticMoment: [ Abs: 39.86402  Tot: +0.00000 ]
	SubspaceRotationAdjust: set factor to 0.83
ElecMinimize: Iter:  73  F: -2055.482300483652125  |grad|_K:  2.215e-05  alpha:  1.739e-02  linmin:  3.864e-05  t[s]:   7583.73
	FillingsUpdate:  mu: +0.128027158  nElectrons: 351.000000  magneticMoment: [ Abs: 39.82748  Tot: +0.00000 ]
	SubspaceRotationAdjust: set factor to 1
	SubspaceRotationAdjust: resetting CG because factor has changed by 7.7244
ElecMinimize: 	State modified externally: resetting search direction.
ElecMinimize: Iter:  74  F: -2055.483529684893256  |grad|_K:  2.318e-05  alpha:  1.452e-02
ElecMinimize: 	Predicted alpha/alphaT>3.000000, increasing alphaT to 4.355009e-02.
ElecMinimize: 	Predicted alpha/alphaT>3.000000, increasing alphaT to 1.306503e-01.
	FillingsUpdate:  mu: +0.132348998  nElectrons: 351.000000  magneticMoment: [ Abs: 39.86911  Tot: +0.00000 ]
	SubspaceRotationAdjust: set factor to 0.712
ElecMinimize: Iter:  75  F: -2055.504841562082674  |grad|_K:  1.744e-05  alpha:  2.145e-01  linmin: -1.946e-03  t[s]:   7818.21
	FillingsUpdate:  mu: +0.129991286  nElectrons: 351.000000  magneticMoment: [ Abs: 39.88826  Tot: -0.00000 ]
	SubspaceRotationAdjust: set factor to 0.501
ElecMinimize: Iter:  76  F: -2055.514384510075615  |grad|_K:  1.455e-05  alpha:  1.582e-01  linmin: -6.882e-05  t[s]:   7896.24
	FillingsUpdate:  mu: +0.121351598  nElectrons: 351.000000  magneticMoment: [ Abs: 39.87823  Tot: -0.00000 ]
	SubspaceRotationAdjust: set factor to 0.292
ElecMinimize: Iter:  77  F: -2055.520499703055066  |grad|_K:  1.158e-05  alpha:  1.663e-01  linmin:  1.827e-03  t[s]:   7973.79
	FillingsUpdate:  mu: +0.124076003  nElectrons: 351.000000  magneticMoment: [ Abs: 39.91420  Tot: -0.00000 ]
	SubspaceRotationAdjust: set factor to 0.349
ElecMinimize: Iter:  78  F: -2055.525382737695509  |grad|_K:  6.471e-06  alpha:  2.348e-01  linmin: -6.488e-04  t[s]:   8051.77
	FillingsUpdate:  mu: +0.125489271  nElectrons: 351.000000  magneticMoment: [ Abs: 39.88424  Tot: -0.00000 ]
	SubspaceRotationAdjust: set factor to 0.405
ElecMinimize: Iter:  79  F: -2055.528473325763571  |grad|_K:  6.031e-06  alpha:  4.017e-01  linmin: -1.172e-04  t[s]:   8129.96
	FillingsUpdate:  mu: +0.126562620  nElectrons: 351.000000  magneticMoment: [ Abs: 39.86703  Tot: +0.00000 ]
	SubspaceRotationAdjust: set factor to 0.343
ElecMinimize: Iter:  80  F: -2055.530194818305972  |grad|_K:  5.332e-06  alpha:  2.519e-01  linmin: -3.328e-04  t[s]:   8207.82
	FillingsUpdate:  mu: +0.126876517  nElectrons: 351.000000  magneticMoment: [ Abs: 39.85008  Tot: +0.00000 ]
	SubspaceRotationAdjust: set factor to 0.265
ElecMinimize: Iter:  81  F: -2055.531051332394327  |grad|_K:  4.530e-06  alpha:  1.634e-01  linmin: -6.891e-05  t[s]:   8285.33
	FillingsUpdate:  mu: +0.126920627  nElectrons: 351.000000  magneticMoment: [ Abs: 39.87398  Tot: +0.00000 ]
	SubspaceRotationAdjust: set factor to 0.24
ElecMinimize: Iter:  82  F: -2055.532114104637003  |grad|_K:  4.511e-06  alpha:  3.128e-01  linmin:  1.055e-03  t[s]:   8363.22
	FillingsUpdate:  mu: +0.125309125  nElectrons: 351.000000  magneticMoment: [ Abs: 39.84490  Tot: -0.00000 ]
	SubspaceRotationAdjust: set factor to 0.252
ElecMinimize: Iter:  83  F: -2055.533246653862989  |grad|_K:  4.111e-06  alpha:  3.637e-01  linmin:  1.020e-05  t[s]:   8441.55
	FillingsUpdate:  mu: +0.124092252  nElectrons: 351.000000  magneticMoment: [ Abs: 39.85527  Tot: -0.00000 ]
	SubspaceRotationAdjust: set factor to 0.293
ElecMinimize: Iter:  84  F: -2055.534486339596242  |grad|_K:  4.453e-06  alpha:  4.210e-01  linmin:  7.705e-05  t[s]:   8520.03
	FillingsUpdate:  mu: +0.122722239  nElectrons: 351.000000  magneticMoment: [ Abs: 39.90025  Tot: -0.00000 ]
	SubspaceRotationAdjust: set factor to 0.327
ElecMinimize: Iter:  85  F: -2055.535713721545108  |grad|_K:  4.378e-06  alpha:  3.577e-01  linmin:  8.340e-06  t[s]:   8598.64
	FillingsUpdate:  mu: +0.123866865  nElectrons: 351.000000  magneticMoment: [ Abs: 39.91084  Tot: -0.00000 ]
	SubspaceRotationAdjust: set factor to 0.356
ElecMinimize: Iter:  86  F: -2055.536890810593832  |grad|_K:  4.453e-06  alpha:  3.513e-01  linmin:  1.288e-04  t[s]:   8677.04
	FillingsUpdate:  mu: +0.121594765  nElectrons: 351.000000  magneticMoment: [ Abs: 39.94416  Tot: +0.00000 ]
	SubspaceRotationAdjust: set factor to 0.382
ElecMinimize: Iter:  87  F: -2055.537907815287326  |grad|_K:  4.940e-06  alpha:  2.929e-01  linmin:  1.782e-04  t[s]:   8755.45
	FillingsUpdate:  mu: +0.121910624  nElectrons: 351.000000  magneticMoment: [ Abs: 39.96384  Tot: +0.00000 ]
	SubspaceRotationAdjust: set factor to 0.416
ElecMinimize: Iter:  88  F: -2055.538626626032055  |grad|_K:  4.184e-06  alpha:  1.861e-01  linmin: -5.881e-05  t[s]:   8834.20
	FillingsUpdate:  mu: +0.121604082  nElectrons: 351.000000  magneticMoment: [ Abs: 39.97422  Tot: +0.00000 ]
	SubspaceRotationAdjust: set factor to 0.453
ElecMinimize: Iter:  89  F: -2055.539243499249096  |grad|_K:  3.882e-06  alpha:  1.999e-01  linmin:  6.021e-05  t[s]:   8912.22
	FillingsUpdate:  mu: +0.120684838  nElectrons: 351.000000  magneticMoment: [ Abs: 39.97837  Tot: +0.00000 ]
	SubspaceRotationAdjust: set factor to 0.536
ElecMinimize: Iter:  90  F: -2055.539759871582646  |grad|_K:  3.287e-06  alpha:  1.978e-01  linmin: -5.850e-04  t[s]:   8990.33
	FillingsUpdate:  mu: +0.118643087  nElectrons: 351.000000  magneticMoment: [ Abs: 40.00218  Tot: -0.00000 ]
	SubspaceRotationAdjust: set factor to 0.577
ElecMinimize: Iter:  91  F: -2055.540253249282614  |grad|_K:  2.925e-06  alpha:  2.525e-01  linmin:  1.177e-03  t[s]:   9068.05
	FillingsUpdate:  mu: +0.118982650  nElectrons: 351.000000  magneticMoment: [ Abs: 40.02482  Tot: +0.00000 ]
	SubspaceRotationAdjust: set factor to 0.556
ElecMinimize: Iter:  92  F: -2055.540431996039388  |grad|_K:  3.115e-06  alpha:  1.347e-01  linmin: -1.649e-04  t[s]:   9145.85
	FillingsUpdate:  mu: +0.119537263  nElectrons: 351.000000  magneticMoment: [ Abs: 40.04045  Tot: +0.00000 ]
	SubspaceRotationAdjust: set factor to 0.652
ElecMinimize: Iter:  93  F: -2055.540711025071232  |grad|_K:  2.803e-06  alpha:  1.610e-01  linmin: -1.534e-06  t[s]:   9223.87
	FillingsUpdate:  mu: +0.120061655  nElectrons: 351.000000  magneticMoment: [ Abs: 40.03797  Tot: -0.00000 ]
	SubspaceRotationAdjust: set factor to 0.705
ElecMinimize: Iter:  94  F: -2055.540887323557854  |grad|_K:  2.565e-06  alpha:  1.283e-01  linmin:  1.300e-06  t[s]:   9301.65
	FillingsUpdate:  mu: +0.120880219  nElectrons: 351.000000  magneticMoment: [ Abs: 40.04548  Tot: -0.00000 ]
	SubspaceRotationAdjust: set factor to 0.759
ElecMinimize: Iter:  95  F: -2055.541065331697155  |grad|_K:  2.585e-06  alpha:  1.545e-01  linmin: -4.409e-05  t[s]:   9379.42
	FillingsUpdate:  mu: +0.120023613  nElectrons: 351.000000  magneticMoment: [ Abs: 40.06795  Tot: +0.00000 ]
	SubspaceRotationAdjust: set factor to 0.935
ElecMinimize: Iter:  96  F: -2055.541231758350477  |grad|_K:  2.497e-06  alpha:  1.416e-01  linmin: -1.941e-05  t[s]:   9457.90
	FillingsUpdate:  mu: +0.119465059  nElectrons: 351.000000  magneticMoment: [ Abs: 40.08593  Tot: -0.00000 ]
	SubspaceRotationAdjust: set factor to 1.05
ElecMinimize: Iter:  97  F: -2055.541380299185221  |grad|_K:  2.412e-06  alpha:  1.357e-01  linmin:  3.707e-05  t[s]:   9535.87
	FillingsUpdate:  mu: +0.119208086  nElectrons: 351.000000  magneticMoment: [ Abs: 40.08902  Tot: -0.00000 ]
	SubspaceRotationAdjust: set factor to 0.975
ElecMinimize: Iter:  98  F: -2055.541521685752741  |grad|_K:  2.592e-06  alpha:  1.398e-01  linmin:  1.079e-05  t[s]:   9613.51
	FillingsUpdate:  mu: +0.120266415  nElectrons: 351.000000  magneticMoment: [ Abs: 40.09354  Tot: -0.00000 ]
	SubspaceRotationAdjust: set factor to 1.01
ElecMinimize: Iter:  99  F: -2055.541630814584551  |grad|_K:  2.307e-06  alpha:  9.523e-02  linmin: -2.226e-05  t[s]:   9690.61
	FillingsUpdate:  mu: +0.120694201  nElectrons: 351.000000  magneticMoment: [ Abs: 40.10536  Tot: -0.00000 ]
	SubspaceRotationAdjust: set factor to 1.05
ElecMinimize: Iter: 100  F: -2055.541793072974087  |grad|_K:  2.300e-06  alpha:  1.713e-01  linmin: -1.512e-04  t[s]:   9769.03
	FillingsUpdate:  mu: +0.120229057  nElectrons: 351.000000  magneticMoment: [ Abs: 40.11054  Tot: -0.00000 ]
	SubspaceRotationAdjust: set factor to 1.03
ElecMinimize: Iter: 101  F: -2055.541871889887716  |grad|_K:  1.973e-06  alpha:  6.871e-02  linmin: -9.130e-04  t[s]:   9847.57
	FillingsUpdate:  mu: +0.119681200  nElectrons: 351.000000  magneticMoment: [ Abs: 40.12090  Tot: -0.00000 ]
	SubspaceRotationAdjust: set factor to 0.77
ElecMinimize: Iter: 102  F: -2055.541990004221589  |grad|_K:  2.641e-06  alpha:  1.545e-01  linmin:  3.250e-04  t[s]:   9926.32
	FillingsUpdate:  mu: +0.120633493  nElectrons: 351.000000  magneticMoment: [ Abs: 40.12644  Tot: -0.00000 ]
	SubspaceRotationAdjust: set factor to 0.952
ElecMinimize: Iter: 103  F: -2055.542048725925270  |grad|_K:  1.977e-06  alpha:  5.227e-02  linmin:  6.569e-05  t[s]:  10004.62
	FillingsUpdate:  mu: +0.121384676  nElectrons: 351.000000  magneticMoment: [ Abs: 40.12766  Tot: +0.00000 ]
	SubspaceRotationAdjust: set factor to 0.672
ElecMinimize: Iter: 104  F: -2055.542123986569550  |grad|_K:  2.696e-06  alpha:  1.105e-01  linmin: -1.056e-04  t[s]:  10082.75
	FillingsUpdate:  mu: +0.121100768  nElectrons: 351.000000  magneticMoment: [ Abs: 40.12425  Tot: -0.00000 ]
	SubspaceRotationAdjust: set factor to 1.01
ElecMinimize: Iter: 105  F: -2055.542208412792206  |grad|_K:  1.703e-06  alpha:  6.125e-02  linmin: -1.518e-04  t[s]:  10160.87
	FillingsUpdate:  mu: +0.120325777  nElectrons: 351.000000  magneticMoment: [ Abs: 40.11979  Tot: -0.00000 ]
	SubspaceRotationAdjust: set factor to 0.708
ElecMinimize: Iter: 106  F: -2055.542259595767518  |grad|_K:  2.562e-06  alpha:  1.014e-01  linmin:  4.488e-04  t[s]:  10238.40
	FillingsUpdate:  mu: +0.120784043  nElectrons: 351.000000  magneticMoment: [ Abs: 40.11516  Tot: -0.00000 ]
	SubspaceRotationAdjust: set factor to 0.691
ElecMinimize: Iter: 107  F: -2055.542316315471453  |grad|_K:  1.854e-06  alpha:  5.079e-02  linmin: -1.873e-04  t[s]:  10316.01
	FillingsUpdate:  mu: +0.121281582  nElectrons: 351.000000  magneticMoment: [ Abs: 40.11367  Tot: -0.00000 ]
	SubspaceRotationAdjust: set factor to 0.744
ElecMinimize: Iter: 108  F: -2055.542348337914063  |grad|_K:  1.672e-06  alpha:  5.153e-02  linmin: -3.315e-05  t[s]:  10393.44
	FillingsUpdate:  mu: +0.121538899  nElectrons: 351.000000  magneticMoment: [ Abs: 40.11201  Tot: -0.00000 ]
	SubspaceRotationAdjust: set factor to 0.502
ElecMinimize: Iter: 109  F: -2055.542401593010709  |grad|_K:  2.275e-06  alpha:  1.081e-01  linmin: -1.934e-05  t[s]:  10475.26
	FillingsUpdate:  mu: +0.120941416  nElectrons: 351.000000  magneticMoment: [ Abs: 40.10947  Tot: +0.00000 ]
	SubspaceRotationAdjust: set factor to 0.818
ElecMinimize: Iter: 110  F: -2055.542448561566289  |grad|_K:  1.510e-06  alpha:  5.080e-02  linmin: -7.151e-05  t[s]:  10557.65
	FillingsUpdate:  mu: +0.120286936  nElectrons: 351.000000  magneticMoment: [ Abs: 40.10681  Tot: +0.00000 ]
	SubspaceRotationAdjust: set factor to 0.667
ElecMinimize: Iter: 111  F: -2055.542480430899104  |grad|_K:  1.954e-06  alpha:  7.972e-02  linmin:  1.320e-04  t[s]:  10638.99
	FillingsUpdate:  mu: +0.120491319  nElectrons: 351.000000  magneticMoment: [ Abs: 40.10188  Tot: +0.00000 ]
	SubspaceRotationAdjust: set factor to 0.68
ElecMinimize: Iter: 112  F: -2055.542534584504210  |grad|_K:  1.726e-06  alpha:  8.262e-02  linmin: -3.377e-05  t[s]:  10716.29
	FillingsUpdate:  mu: +0.121115296  nElectrons: 351.000000  magneticMoment: [ Abs: 40.09829  Tot: -0.00000 ]
	SubspaceRotationAdjust: set factor to 0.66
ElecMinimize: Iter: 113  F: -2055.542566506141156  |grad|_K:  1.608e-06  alpha:  6.138e-02  linmin: -1.702e-05  t[s]:  10794.73
	FillingsUpdate:  mu: +0.121605448  nElectrons: 351.000000  magneticMoment: [ Abs: 40.08880  Tot: -0.00000 ]
	SubspaceRotationAdjust: set factor to 0.542
ElecMinimize: Iter: 114  F: -2055.542622424152796  |grad|_K:  1.939e-06  alpha:  1.239e-01  linmin:  5.911e-05  t[s]:  10873.14
	FillingsUpdate:  mu: +0.121299158  nElectrons: 351.000000  magneticMoment: [ Abs: 40.08174  Tot: +0.00000 ]
	SubspaceRotationAdjust: set factor to 0.693
ElecMinimize: Iter: 115  F: -2055.542659381877002  |grad|_K:  1.338e-06  alpha:  5.613e-02  linmin: -3.732e-05  t[s]:  10951.46
	FillingsUpdate:  mu: +0.120718739  nElectrons: 351.000000  magneticMoment: [ Abs: 40.07711  Tot: -0.00000 ]
	SubspaceRotationAdjust: set factor to 0.533
ElecMinimize: Iter: 116  F: -2055.542690512887475  |grad|_K:  1.787e-06  alpha:  9.902e-02  linmin:  4.073e-05  t[s]:  11030.43
	FillingsUpdate:  mu: +0.121017064  nElectrons: 351.000000  magneticMoment: [ Abs: 40.07275  Tot: +0.00000 ]
	SubspaceRotationAdjust: set factor to 0.846
ElecMinimize: Iter: 117  F: -2055.542733056849102  |grad|_K:  1.436e-06  alpha:  7.684e-02  linmin: -7.926e-06  t[s]:  11108.34
	FillingsUpdate:  mu: +0.121306932  nElectrons: 351.000000  magneticMoment: [ Abs: 40.07013  Tot: -0.00000 ]
	SubspaceRotationAdjust: set factor to 0.832
ElecMinimize: Iter: 118  F: -2055.542763328737692  |grad|_K:  1.595e-06  alpha:  8.357e-02  linmin: -1.332e-04  t[s]:  11186.91
	FillingsUpdate:  mu: +0.121020248  nElectrons: 351.000000  magneticMoment: [ Abs: 40.06366  Tot: +0.00000 ]
	SubspaceRotationAdjust: set factor to 1.19
ElecMinimize: Iter: 119  F: -2055.542814644475129  |grad|_K:  1.427e-06  alpha:  1.128e-01  linmin: -4.047e-06  t[s]:  11265.06
	FillingsUpdate:  mu: +0.120400468  nElectrons: 351.000000  magneticMoment: [ Abs: 40.05764  Tot: +0.00000 ]
	SubspaceRotationAdjust: set factor to 1.04
ElecMinimize: Iter: 120  F: -2055.542845522015341  |grad|_K:  1.762e-06  alpha:  8.648e-02  linmin:  5.791e-06  t[s]:  11343.75
	FillingsUpdate:  mu: +0.120501472  nElectrons: 351.000000  magneticMoment: [ Abs: 40.04897  Tot: +0.00000 ]
	SubspaceRotationAdjust: set factor to 1.34
ElecMinimize: Iter: 121  F: -2055.542891112392226  |grad|_K:  1.453e-06  alpha:  8.415e-02  linmin: -3.901e-05  t[s]:  11422.52
	FillingsUpdate:  mu: +0.120545411  nElectrons: 351.000000  magneticMoment: [ Abs: 40.04308  Tot: +0.00000 ]
	SubspaceRotationAdjust: set factor to 1.2
ElecMinimize: Iter: 122  F: -2055.542940066330175  |grad|_K:  1.868e-06  alpha:  1.305e-01  linmin: -1.025e-04  t[s]:  11500.23
	FillingsUpdate:  mu: +0.120233632  nElectrons: 351.000000  magneticMoment: [ Abs: 40.04102  Tot: +0.00000 ]
	SubspaceRotationAdjust: set factor to 1.12
ElecMinimize: Iter: 123  F: -2055.542976169492249  |grad|_K:  1.547e-06  alpha:  5.803e-02  linmin:  7.397e-07  t[s]:  11577.94
	FillingsUpdate:  mu: +0.120408771  nElectrons: 351.000000  magneticMoment: [ Abs: 40.04393  Tot: +0.00000 ]
	SubspaceRotationAdjust: set factor to 1.45
ElecMinimize: Iter: 124  F: -2055.543025440835663  |grad|_K:  1.445e-06  alpha:  1.170e-01  linmin: -5.678e-05  t[s]:  11656.38
	FillingsUpdate:  mu: +0.120760303  nElectrons: 351.000000  magneticMoment: [ Abs: 40.04762  Tot: -0.00000 ]
	SubspaceRotationAdjust: set factor to 1.35
ElecMinimize: Iter: 125  F: -2055.543061678412869  |grad|_K:  1.730e-06  alpha:  9.876e-02  linmin: -5.862e-05  t[s]:  11734.64
	FillingsUpdate:  mu: +0.120519456  nElectrons: 351.000000  magneticMoment: [ Abs: 40.04954  Tot: -0.00000 ]
	SubspaceRotationAdjust: set factor to 1.39
ElecMinimize: Iter: 126  F: -2055.543100411878640  |grad|_K:  1.395e-06  alpha:  7.309e-02  linmin:  2.924e-06  t[s]:  11813.12
	FillingsUpdate:  mu: +0.120323919  nElectrons: 351.000000  magneticMoment: [ Abs: 40.05234  Tot: +0.00000 ]
	SubspaceRotationAdjust: set factor to 1.74
ElecMinimize: Iter: 127  F: -2055.543144227190623  |grad|_K:  1.339e-06  alpha:  1.289e-01  linmin:  4.516e-06  t[s]:  11891.05
	FillingsUpdate:  mu: +0.120373053  nElectrons: 351.000000  magneticMoment: [ Abs: 40.05740  Tot: -0.00000 ]
	SubspaceRotationAdjust: set factor to 1.44
ElecMinimize: Iter: 128  F: -2055.543176007942748  |grad|_K:  1.649e-06  alpha:  1.015e-01  linmin: -5.278e-06  t[s]:  11969.18
	FillingsUpdate:  mu: +0.120112073  nElectrons: 351.000000  magneticMoment: [ Abs: 40.06247  Tot: +0.00000 ]
	SubspaceRotationAdjust: set factor to 1.39
ElecMinimize: Iter: 129  F: -2055.543203919612097  |grad|_K:  1.342e-06  alpha:  5.725e-02  linmin: -4.793e-05  t[s]:  12047.05
	FillingsUpdate:  mu: +0.120470255  nElectrons: 351.000000  magneticMoment: [ Abs: 40.07421  Tot: -0.00000 ]
	SubspaceRotationAdjust: set factor to 1.79
ElecMinimize: Iter: 130  F: -2055.543242748618923  |grad|_K:  1.242e-06  alpha:  1.217e-01  linmin: -3.037e-05  t[s]:  12126.14
	FillingsUpdate:  mu: +0.120932940  nElectrons: 351.000000  magneticMoment: [ Abs: 40.08342  Tot: +0.00000 ]
	SubspaceRotationAdjust: set factor to 1.4
ElecMinimize: Iter: 131  F: -2055.543271742127217  |grad|_K:  1.625e-06  alpha:  1.068e-01  linmin: -3.592e-06  t[s]:  12204.28
	FillingsUpdate:  mu: +0.120774657  nElectrons: 351.000000  magneticMoment: [ Abs: 40.08804  Tot: +0.00000 ]
	SubspaceRotationAdjust: set factor to 1.31
ElecMinimize: Iter: 132  F: -2055.543294011627040  |grad|_K:  1.219e-06  alpha:  4.623e-02  linmin: -1.321e-04  t[s]:  12281.88
	FillingsUpdate:  mu: +0.120506999  nElectrons: 351.000000  magneticMoment: [ Abs: 40.09404  Tot: +0.00000 ]
	SubspaceRotationAdjust: set factor to 1.78
ElecMinimize: Iter: 133  F: -2055.543327234815479  |grad|_K:  1.193e-06  alpha:  1.243e-01  linmin: -3.665e-06  t[s]:  12359.46
	FillingsUpdate:  mu: +0.120564770  nElectrons: 351.000000  magneticMoment: [ Abs: 40.09769  Tot: +0.00000 ]
	SubspaceRotationAdjust: set factor to 1.49
ElecMinimize: Iter: 134  F: -2055.543344221814550  |grad|_K:  1.435e-06  alpha:  6.851e-02  linmin:  7.561e-06  t[s]:  12437.30
	FillingsUpdate:  mu: +0.120187773  nElectrons: 351.000000  magneticMoment: [ Abs: 40.10135  Tot: +0.00000 ]
	SubspaceRotationAdjust: set factor to 1.49
ElecMinimize: Iter: 135  F: -2055.543367878668960  |grad|_K:  1.071e-06  alpha:  6.576e-02  linmin:  4.628e-05  t[s]:  12515.69
	FillingsUpdate:  mu: +0.120397123  nElectrons: 351.000000  magneticMoment: [ Abs: 40.10638  Tot: -0.00000 ]
	SubspaceRotationAdjust: set factor to 1.8
ElecMinimize: Iter: 136  F: -2055.543393794665008  |grad|_K:  9.865e-07  alpha:  1.304e-01  linmin: -6.336e-06  t[s]:  12593.32
	FillingsUpdate:  mu: +0.120753865  nElectrons: 351.000000  magneticMoment: [ Abs: 40.10953  Tot: +0.00000 ]
	SubspaceRotationAdjust: set factor to 2.08
ElecMinimize: Iter: 137  F: -2055.543418039207609  |grad|_K:  1.011e-06  alpha:  1.422e-01  linmin: -4.608e-06  t[s]:  12671.54
	FillingsUpdate:  mu: +0.120457205  nElectrons: 351.000000  magneticMoment: [ Abs: 40.10897  Tot: +0.00000 ]
	SubspaceRotationAdjust: set factor to 1.51
ElecMinimize: Iter: 138  F: -2055.543435011597467  |grad|_K:  1.400e-06  alpha:  9.456e-02  linmin: -2.824e-07  t[s]:  12749.44
	FillingsUpdate:  mu: +0.120617555  nElectrons: 351.000000  magneticMoment: [ Abs: 40.10881  Tot: -0.00000 ]
	SubspaceRotationAdjust: set factor to 1.2
ElecMinimize: Iter: 139  F: -2055.543447102125356  |grad|_K:  9.824e-07  alpha:  3.625e-02  linmin:  8.815e-05  t[s]:  12827.41
ElecMinimize: 	Predicted alpha/alphaT>3.000000, increasing alphaT to 1.087396e-01.
	FillingsUpdate:  mu: +0.120246469  nElectrons: 351.000000  magneticMoment: [ Abs: 40.10639  Tot: -0.00000 ]
	SubspaceRotationAdjust: set factor to 1.55
ElecMinimize: Iter: 140  F: -2055.543467984296967  |grad|_K:  9.201e-07  alpha:  1.261e-01  linmin:  7.006e-06  t[s]:  12927.41
	FillingsUpdate:  mu: +0.119882035  nElectrons: 351.000000  magneticMoment: [ Abs: 40.10455  Tot: -0.00000 ]
	SubspaceRotationAdjust: set factor to 1.25
ElecMinimize: Iter: 141  F: -2055.543483084216405  |grad|_K:  1.189e-06  alpha:  1.020e-01  linmin:  5.944e-06  t[s]:  13006.14
	FillingsUpdate:  mu: +0.120154309  nElectrons: 351.000000  magneticMoment: [ Abs: 40.10436  Tot: -0.00000 ]
	SubspaceRotationAdjust: set factor to 1.15
ElecMinimize: Iter: 142  F: -2055.543495797248852  |grad|_K:  8.742e-07  alpha:  5.238e-02  linmin:  3.646e-05  t[s]:  13085.32
	FillingsUpdate:  mu: +0.120306331  nElectrons: 351.000000  magneticMoment: [ Abs: 40.10387  Tot: -0.00000 ]
	SubspaceRotationAdjust: set factor to 1.46
ElecMinimize: Iter: 143  F: -2055.543513558215182  |grad|_K:  8.532e-07  alpha:  1.342e-01  linmin:  1.207e-05  t[s]:  13163.72
	FillingsUpdate:  mu: +0.120114383  nElectrons: 351.000000  magneticMoment: [ Abs: 40.10251  Tot: +0.00000 ]
	SubspaceRotationAdjust: set factor to 1.24
ElecMinimize: Iter: 144  F: -2055.543526368229777  |grad|_K:  1.062e-06  alpha:  1.007e-01  linmin:  4.455e-06  t[s]:  13241.99
	FillingsUpdate:  mu: +0.120265049  nElectrons: 351.000000  magneticMoment: [ Abs: 40.10158  Tot: +0.00000 ]
	SubspaceRotationAdjust: set factor to 1.24
ElecMinimize: Iter: 145  F: -2055.543538558845739  |grad|_K:  8.276e-07  alpha:  6.215e-02  linmin:  4.785e-06  t[s]:  13320.10
	FillingsUpdate:  mu: +0.120050896  nElectrons: 351.000000  magneticMoment: [ Abs: 40.09889  Tot: -0.00000 ]
	SubspaceRotationAdjust: set factor to 1.57
ElecMinimize: Iter: 146  F: -2055.543554713625781  |grad|_K:  8.284e-07  alpha:  1.355e-01  linmin:  3.037e-05  t[s]:  13397.23
	FillingsUpdate:  mu: +0.119725540  nElectrons: 351.000000  magneticMoment: [ Abs: 40.09674  Tot: +0.00000 ]
	SubspaceRotationAdjust: set factor to 1.37
ElecMinimize: Iter: 147  F: -2055.543567285243626  |grad|_K:  1.070e-06  alpha:  1.052e-01  linmin:  8.897e-06  t[s]:  13475.51
	FillingsUpdate:  mu: +0.119904127  nElectrons: 351.000000  magneticMoment: [ Abs: 40.09622  Tot: +0.00000 ]
	SubspaceRotationAdjust: set factor to 1.33
ElecMinimize: Iter: 148  F: -2055.543578907425854  |grad|_K:  8.733e-07  alpha:  5.832e-02  linmin:  4.671e-06  t[s]:  13553.57
	FillingsUpdate:  mu: +0.119980009  nElectrons: 351.000000  magneticMoment: [ Abs: 40.09550  Tot: +0.00000 ]
	SubspaceRotationAdjust: set factor to 1.76
ElecMinimize: Iter: 149  F: -2055.543595032674602  |grad|_K:  8.275e-07  alpha:  1.215e-01  linmin:  3.164e-05  t[s]:  13631.27
	FillingsUpdate:  mu: +0.119913629  nElectrons: 351.000000  magneticMoment: [ Abs: 40.09400  Tot: +0.00000 ]
	SubspaceRotationAdjust: set factor to 1.51
ElecMinimize: Iter: 150  F: -2055.543607658933979  |grad|_K:  1.102e-06  alpha:  1.060e-01  linmin:  2.039e-05  t[s]:  13709.64
	FillingsUpdate:  mu: +0.120227500  nElectrons: 351.000000  magneticMoment: [ Abs: 40.09286  Tot: +0.00000 ]
	SubspaceRotationAdjust: set factor to 1.37
ElecMinimize: Iter: 151  F: -2055.543617971340154  |grad|_K:  9.235e-07  alpha:  4.906e-02  linmin:  9.094e-06  t[s]:  13787.17
	FillingsUpdate:  mu: +0.120246335  nElectrons: 351.000000  magneticMoment: [ Abs: 40.08868  Tot: +0.00000 ]
	SubspaceRotationAdjust: set factor to 1.86
ElecMinimize: Iter: 152  F: -2055.543634710142214  |grad|_K:  8.506e-07  alpha:  1.129e-01  linmin:  2.625e-05  t[s]:  13864.83
	FillingsUpdate:  mu: +0.119966493  nElectrons: 351.000000  magneticMoment: [ Abs: 40.08532  Tot: +0.00000 ]
	SubspaceRotationAdjust: set factor to 1.56
ElecMinimize: Iter: 153  F: -2055.543646471548982  |grad|_K:  1.094e-06  alpha:  9.333e-02  linmin:  1.507e-05  t[s]:  13942.14
	FillingsUpdate:  mu: +0.120073069  nElectrons: 351.000000  magneticMoment: [ Abs: 40.08380  Tot: -0.00000 ]
	SubspaceRotationAdjust: set factor to 1.38
ElecMinimize: Iter: 154  F: -2055.543655227953877  |grad|_K:  8.399e-07  alpha:  4.223e-02  linmin:  1.307e-05  t[s]:  14019.99
	FillingsUpdate:  mu: +0.119944432  nElectrons: 351.000000  magneticMoment: [ Abs: 40.08119  Tot: +0.00000 ]
	SubspaceRotationAdjust: set factor to 1.82
ElecMinimize: Iter: 155  F: -2055.543668757979049  |grad|_K:  7.968e-07  alpha:  1.102e-01  linmin:  1.318e-05  t[s]:  14097.73
	FillingsUpdate:  mu: +0.119822526  nElectrons: 351.000000  magneticMoment: [ Abs: 40.07861  Tot: -0.00000 ]
	SubspaceRotationAdjust: set factor to 1.52
ElecMinimize: Iter: 156  F: -2055.543678031092441  |grad|_K:  1.008e-06  alpha:  8.354e-02  linmin:  6.755e-06  t[s]:  14175.05
	FillingsUpdate:  mu: +0.120153926  nElectrons: 351.000000  magneticMoment: [ Abs: 40.07673  Tot: -0.00000 ]
	SubspaceRotationAdjust: set factor to 1.39
ElecMinimize: Iter: 157  F: -2055.543685721898783  |grad|_K:  7.145e-07  alpha:  4.361e-02  linmin:  9.414e-06  t[s]:  14252.66
	FillingsUpdate:  mu: +0.120397239  nElectrons: 351.000000  magneticMoment: [ Abs: 40.07336  Tot: +0.00000 ]
	SubspaceRotationAdjust: set factor to 1.75
ElecMinimize: Iter: 158  F: -2055.543695117367406  |grad|_K:  6.573e-07  alpha:  1.054e-01  linmin: -5.869e-06  t[s]:  14330.39
	FillingsUpdate:  mu: +0.120309443  nElectrons: 351.000000  magneticMoment: [ Abs: 40.07114  Tot: +0.00000 ]
	SubspaceRotationAdjust: set factor to 1.44
ElecMinimize: Iter: 159  F: -2055.543701778887225  |grad|_K:  8.254e-07  alpha:  8.800e-02  linmin:  3.214e-06  t[s]:  14408.22
	FillingsUpdate:  mu: +0.120401948  nElectrons: 351.000000  magneticMoment: [ Abs: 40.07050  Tot: -0.00000 ]
	SubspaceRotationAdjust: set factor to 1.39
ElecMinimize: Iter: 160  F: -2055.543707270869618  |grad|_K:  6.062e-07  alpha:  4.645e-02  linmin:  1.337e-05  t[s]:  14485.68
	FillingsUpdate:  mu: +0.120207470  nElectrons: 351.000000  magneticMoment: [ Abs: 40.07046  Tot: -0.00000 ]
	SubspaceRotationAdjust: set factor to 1.78
ElecMinimize: Iter: 161  F: -2055.543713848427160  |grad|_K:  5.422e-07  alpha:  1.027e-01  linmin: -1.204e-06  t[s]:  14563.75
	FillingsUpdate:  mu: +0.120031501  nElectrons: 351.000000  magneticMoment: [ Abs: 40.07065  Tot: +0.00000 ]
	SubspaceRotationAdjust: set factor to 1.42
ElecMinimize: Iter: 162  F: -2055.543718462892230  |grad|_K:  6.934e-07  alpha:  8.972e-02  linmin:  2.913e-06  t[s]:  14641.77
	FillingsUpdate:  mu: +0.120190951  nElectrons: 351.000000  magneticMoment: [ Abs: 40.07145  Tot: +0.00000 ]
	SubspaceRotationAdjust: set factor to 1.43
ElecMinimize: Iter: 163  F: -2055.543722352906570  |grad|_K:  5.240e-07  alpha:  4.667e-02  linmin:  1.829e-05  t[s]:  14720.23
	FillingsUpdate:  mu: +0.120368567  nElectrons: 351.000000  magneticMoment: [ Abs: 40.07239  Tot: +0.00000 ]
	SubspaceRotationAdjust: set factor to 1.9
ElecMinimize: Iter: 164  F: -2055.543727438649967  |grad|_K:  4.839e-07  alpha:  1.063e-01  linmin:  1.703e-06  t[s]:  14799.83
	FillingsUpdate:  mu: +0.120364978  nElectrons: 351.000000  magneticMoment: [ Abs: 40.07348  Tot: -0.00000 ]
	SubspaceRotationAdjust: set factor to 1.44
ElecMinimize: Iter: 165  F: -2055.543730916048844  |grad|_K:  6.364e-07  alpha:  8.492e-02  linmin:  2.463e-06  t[s]:  14877.56
	FillingsUpdate:  mu: +0.120500655  nElectrons: 351.000000  magneticMoment: [ Abs: 40.07561  Tot: -0.00000 ]
	SubspaceRotationAdjust: set factor to 1.52
ElecMinimize: Iter: 166  F: -2055.543734187891459  |grad|_K:  4.772e-07  alpha:  4.642e-02  linmin:  8.998e-06  t[s]:  14957.95
	FillingsUpdate:  mu: +0.120395716  nElectrons: 351.000000  magneticMoment: [ Abs: 40.07930  Tot: -0.00000 ]
	SubspaceRotationAdjust: set factor to 2.02
ElecMinimize: Iter: 167  F: -2055.543738798041886  |grad|_K:  4.823e-07  alpha:  1.160e-01  linmin:  1.319e-06  t[s]:  15038.86
	FillingsUpdate:  mu: +0.120202730  nElectrons: 351.000000  magneticMoment: [ Abs: 40.08179  Tot: +0.00000 ]
	SubspaceRotationAdjust: set factor to 1.54
ElecMinimize: Iter: 168  F: -2055.543741959431372  |grad|_K:  6.446e-07  alpha:  7.759e-02  linmin:  2.204e-07  t[s]:  15117.02
	FillingsUpdate:  mu: +0.120263259  nElectrons: 351.000000  magneticMoment: [ Abs: 40.08495  Tot: +0.00000 ]
	SubspaceRotationAdjust: set factor to 1.6
ElecMinimize: Iter: 169  F: -2055.543745346234573  |grad|_K:  4.766e-07  alpha:  4.674e-02  linmin:  2.762e-06  t[s]:  15195.03
	FillingsUpdate:  mu: +0.120324661  nElectrons: 351.000000  magneticMoment: [ Abs: 40.08880  Tot: -0.00000 ]
	SubspaceRotationAdjust: set factor to 2.06
ElecMinimize: Iter: 170  F: -2055.543750063433436  |grad|_K:  4.936e-07  alpha:  1.188e-01  linmin: -1.257e-06  t[s]:  15274.23
	FillingsUpdate:  mu: +0.120290659  nElectrons: 351.000000  magneticMoment: [ Abs: 40.09149  Tot: +0.00000 ]
	SubspaceRotationAdjust: set factor to 1.62
ElecMinimize: Iter: 171  F: -2055.543753625623140  |grad|_K:  6.761e-07  alpha:  8.339e-02  linmin:  2.091e-06  t[s]:  15353.15
	FillingsUpdate:  mu: +0.120463187  nElectrons: 351.000000  magneticMoment: [ Abs: 40.09460  Tot: -0.00000 ]
	SubspaceRotationAdjust: set factor to 1.51
ElecMinimize: Iter: 172  F: -2055.543757036478382  |grad|_K:  4.960e-07  alpha:  4.280e-02  linmin:  5.733e-06  t[s]:  15431.31
	FillingsUpdate:  mu: +0.120467555  nElectrons: 351.000000  magneticMoment: [ Abs: 40.09819  Tot: -0.00000 ]
	SubspaceRotationAdjust: set factor to 1.9
ElecMinimize: Iter: 173  F: -2055.543761740143509  |grad|_K:  4.807e-07  alpha:  1.095e-01  linmin: -9.522e-07  t[s]:  15508.90
	FillingsUpdate:  mu: +0.120320847  nElectrons: 351.000000  magneticMoment: [ Abs: 40.09980  Tot: -0.00000 ]
	SubspaceRotationAdjust: set factor to 1.57
ElecMinimize: Iter: 174  F: -2055.543765269823325  |grad|_K:  6.496e-07  alpha:  8.720e-02  linmin:  5.911e-06  t[s]:  15586.12
	FillingsUpdate:  mu: +0.120389883  nElectrons: 351.000000  magneticMoment: [ Abs: 40.10123  Tot: -0.00000 ]
	SubspaceRotationAdjust: set factor to 1.44
ElecMinimize: Iter: 175  F: -2055.543768638245638  |grad|_K:  4.957e-07  alpha:  4.588e-02  linmin:  5.731e-06  t[s]:  15665.21
	FillingsUpdate:  mu: +0.120333860  nElectrons: 351.000000  magneticMoment: [ Abs: 40.10171  Tot: +0.00000 ]
	SubspaceRotationAdjust: set factor to 1.78
ElecMinimize: Iter: 176  F: -2055.543773317481737  |grad|_K:  4.711e-07  alpha:  1.091e-01  linmin:  1.365e-06  t[s]:  15742.93
	FillingsUpdate:  mu: +0.120223678  nElectrons: 351.000000  magneticMoment: [ Abs: 40.10145  Tot: -0.00000 ]
	SubspaceRotationAdjust: set factor to 1.54
ElecMinimize: Iter: 177  F: -2055.543776655298188  |grad|_K:  6.056e-07  alpha:  8.594e-02  linmin:  4.341e-06  t[s]:  15820.51
	FillingsUpdate:  mu: +0.120341766  nElectrons: 351.000000  magneticMoment: [ Abs: 40.10154  Tot: +0.00000 ]
	SubspaceRotationAdjust: set factor to 1.44
ElecMinimize: Iter: 178  F: -2055.543779797642856  |grad|_K:  4.752e-07  alpha:  4.916e-02  linmin:  3.179e-06  t[s]:  15902.26
	FillingsUpdate:  mu: +0.120398146  nElectrons: 351.000000  magneticMoment: [ Abs: 40.10094  Tot: +0.00000 ]
	SubspaceRotationAdjust: set factor to 1.79
ElecMinimize: Iter: 179  F: -2055.543784117075575  |grad|_K:  4.445e-07  alpha:  1.095e-01  linmin: -1.255e-06  t[s]:  15981.07
	FillingsUpdate:  mu: +0.120354231  nElectrons: 351.000000  magneticMoment: [ Abs: 40.09969  Tot: -0.00000 ]
	SubspaceRotationAdjust: set factor to 1.57
ElecMinimize: Iter: 180  F: -2055.543787264753519  |grad|_K:  5.578e-07  alpha:  9.101e-02  linmin:  2.949e-06  t[s]:  16058.31
	FillingsUpdate:  mu: +0.120464355  nElectrons: 351.000000  magneticMoment: [ Abs: 40.09872  Tot: -0.00000 ]
	SubspaceRotationAdjust: set factor to 1.42
ElecMinimize: Iter: 181  F: -2055.543789727965304  |grad|_K:  4.393e-07  alpha:  4.556e-02  linmin:  1.201e-05  t[s]:  16135.69
	FillingsUpdate:  mu: +0.120398468  nElectrons: 351.000000  magneticMoment: [ Abs: 40.09644  Tot: -0.00000 ]
	SubspaceRotationAdjust: set factor to 1.82
ElecMinimize: Iter: 182  F: -2055.543793136992463  |grad|_K:  3.860e-07  alpha:  1.012e-01  linmin: -3.166e-06  t[s]:  16214.98
	FillingsUpdate:  mu: +0.120262065  nElectrons: 351.000000  magneticMoment: [ Abs: 40.09456  Tot: +0.00000 ]
	SubspaceRotationAdjust: set factor to 1.69
ElecMinimize: Iter: 183  F: -2055.543795693644370  |grad|_K:  4.755e-07  alpha:  9.806e-02  linmin:  1.813e-06  t[s]:  16293.54
	FillingsUpdate:  mu: +0.120311339  nElectrons: 351.000000  magneticMoment: [ Abs: 40.09376  Tot: -0.00000 ]
	SubspaceRotationAdjust: set factor to 1.43
ElecMinimize: Iter: 184  F: -2055.543797379470561  |grad|_K:  3.880e-07  alpha:  4.295e-02  linmin:  1.884e-05  t[s]:  16375.16
	FillingsUpdate:  mu: +0.120293077  nElectrons: 351.000000  magneticMoment: [ Abs: 40.09259  Tot: +0.00000 ]
	SubspaceRotationAdjust: set factor to 1.85
ElecMinimize: Iter: 185  F: -2055.543799792795653  |grad|_K:  3.178e-07  alpha:  9.207e-02  linmin:  9.800e-07  t[s]:  16458.69
	FillingsUpdate:  mu: +0.120288955  nElectrons: 351.000000  magneticMoment: [ Abs: 40.09178  Tot: +0.00000 ]
	SubspaceRotationAdjust: set factor to 1.79
ElecMinimize: Iter: 186  F: -2055.543801649510897  |grad|_K:  3.802e-07  alpha:  1.051e-01  linmin:  9.438e-07  t[s]:  16538.23
	FillingsUpdate:  mu: +0.120377692  nElectrons: 351.000000  magneticMoment: [ Abs: 40.09159  Tot: +0.00000 ]
	SubspaceRotationAdjust: set factor to 1.5
ElecMinimize: Iter: 187  F: -2055.543802725804653  |grad|_K:  3.359e-07  alpha:  4.288e-02  linmin:  2.491e-05  t[s]:  16616.96
	FillingsUpdate:  mu: +0.120354395  nElectrons: 351.000000  magneticMoment: [ Abs: 40.09100  Tot: +0.00000 ]
	SubspaceRotationAdjust: set factor to 1.92
ElecMinimize: Iter: 188  F: -2055.543804371633996  |grad|_K:  2.636e-07  alpha:  8.383e-02  linmin:  1.377e-06  t[s]:  16695.33
[...]
	FillingsUpdate:  mu: +0.125087001  nElectrons: 351.000000  magneticMoment: [ Abs: 39.97494  Tot: -0.00000 ]
	SubspaceRotationAdjust: set factor to 0.587
ElecMinimize: Iter:  14  F: -2055.565390084379032  |grad|_K:  8.691e-08  alpha:  3.411e-01  linmin:  2.419e-06  t[s]:  55242.64
	FillingsUpdate:  mu: +0.125092197  nElectrons: 351.000000  magneticMoment: [ Abs: 39.97527  Tot: +0.00000 ]
	SubspaceRotationAdjust: set factor to 0.654
ElecMinimize: Iter:  15  F: -2055.565390571119678  |grad|_K:  8.079e-08  alpha:  3.686e-01  linmin:  1.057e-05  t[s]:  55320.62
	FillingsUpdate:  mu: +0.125097559  nElectrons: 351.000000  magneticMoment: [ Abs: 39.97524  Tot: -0.00000 ]
	SubspaceRotationAdjust: set factor to 0.78
ElecMinimize: Iter:  16  F: -2055.565391054974953  |grad|_K:  7.863e-08  alpha:  4.241e-01  linmin: -5.065e-06  t[s]:  55398.17
	FillingsUpdate:  mu: +0.125086480  nElectrons: 351.000000  magneticMoment: [ Abs: 39.97523  Tot: -0.00000 ]
	SubspaceRotationAdjust: set factor to 0.893
ElecMinimize: Iter:  17  F: -2055.565391568720770  |grad|_K:  9.292e-08  alpha:  4.752e-01  linmin:  1.816e-06  t[s]:  55475.70
ElecMinimize: Converged (|Delta F|<1.000000e-06 for 5 iters).
Setting wave functions to eigenvectors of Hamiltonian

# Ionic positions in lattice coordinates:
ion Ni   0.005162898653777   0.005194228140271   0.161649386089928 1
ion Ni  -0.247593877168625   0.252191884768888   0.048955702960864 1
ion Ni   0.000000000000000   0.000000000000000  -0.050000000000000 0
ion Ni   0.500000000000000   0.000000000000000  -0.050000000000000 0
ion Ni  -0.250000000000000   0.250000000000000  -0.150000000000000 0
ion V   0.512608173343630   0.005484189114490   0.153061507005413 1
ion V  -0.004611423864118   0.504894580381759   0.157204897226031 1
ion V   0.500465026382766   0.503653856367851   0.153239732034919 1
ion V   0.253316976312061   0.759918922187991   0.052456569311022 1
ion V   0.250000000000000   0.750000000000000  -0.150000000000000 0
ion Cr   0.250488047200118   0.249846268135989   0.051050878913588 1
ion Cr   0.000000000000000   0.500000000000000  -0.050000000000000 0
ion Cr  -0.250000000000000   0.750000000000000  -0.150000000000000 0
ion Co  -0.241239206394067   0.769403136522191   0.049161677374911 1
ion Co   0.500000000000000   0.500000000000000  -0.050000000000000 0
ion Co   0.250000000000000   0.250000000000000  -0.150000000000000 0
ion O   0.257672265634476   0.241700742010918   0.152304294605421 1
ion O   0.259561764851471   0.767793534230257   0.153674741579028 1
ion O  -0.258125874473189   0.243831364437704   0.150034465893494 1
ion O  -0.258703061964918   0.763868062326071   0.149843584585540 1
ion O   0.008154199071776   0.020365075319237   0.049619398853570 1
ion O   0.506432035355810   0.008590657585535   0.056599959211683 1
ion O  -0.000861501567299   0.503582848272579   0.049881480276863 1
ion O   0.493915719409739   0.488833862314011   0.053297325835031 1
ion O   0.250000000000000   0.250000000000000  -0.050000000000000 0
ion O   0.250000000000000   0.750000000000000  -0.050000000000000 0
ion O  -0.250000000000000   0.250000000000000  -0.050000000000000 0
ion O  -0.250000000000000   0.750000000000000  -0.050000000000000 0
ion O   0.000000000000000   0.000000000000000  -0.150000000000000 0
ion O   0.500000000000000   0.000000000000000  -0.150000000000000 0
ion O   0.000000000000000   0.500000000000000  -0.150000000000000 0
ion O   0.500000000000000   0.500000000000000  -0.150000000000000 0
ion O  -0.035672657112313  -0.008705243152378   0.249652109157969 1
ion H   0.082869580073323   0.062064661839700   0.271934325068196 1

# Forces in Lattice coordinates:
force Ni   0.004265933332940  -0.002548852956894  -0.019213421471267 1
force Ni  -0.002473997117079   0.004541573929774   0.009135230829597 1
force Ni  -0.058839203527828   0.073066937633581  -0.504833982343176 0
force Ni   0.081722938345618   0.074621894547913  -0.523588619144938 0
force Ni  -0.015127315383312  -0.059935100676186  -0.268766859111358 0
force V  -0.004603525362244   0.007819379499444   0.015464583542252 1
force V  -0.001187442811667  -0.004863802822235  -0.005711879404771 1
force V  -0.005508155002901  -0.000868490827258   0.010174698628774 1
force V   0.004063706614279  -0.001368347552141  -0.000475836885320 1
force V   0.060223930165714   0.073592898496056  -0.260859166322189 0
force Cr  -0.002165846424405   0.005039800556231   0.029234593126406 1
force Cr  -0.117340358670980  -0.079075538184524  -0.578595101130111 0
force Cr  -0.027375292826073   0.086533600987074  -1.479542382404813 0
force Co  -0.015559773479508  -0.022933496730366  -0.045986644318152 1
force Co   0.094204124967625  -0.076117002223813  -0.345262370840610 0
force Co   0.065141636675449  -0.077885896001231  -0.396671278827556 0
force O  -0.006750885766885   0.002763780068601  -0.000646836415121 1
force O  -0.007531501643209   0.003659572396057   0.003447826935162 1
force O   0.007492424100621   0.001596039164454  -0.021816061546926 1
force O   0.010215815713322   0.000008896590385   0.027861008960379 1
force O   0.007630223371664   0.004802383860559  -0.009307996461965 1
force O  -0.004218219050479   0.003211670984060  -0.006758281425050 1
force O   0.001587064158471   0.001662192292570  -0.008282051734903 1
force O  -0.000920621345162  -0.005794516171455  -0.020339794452179 1
force O  -0.152545936007723   0.055306208862295   0.473563339294287 0
force O  -0.150760514865400  -0.033559568499847   0.182265870112900 0
force O   0.141483475130279   0.037756516762808   0.931893607160980 0
force O   0.149699769467458  -0.055367271700247   1.215261305485849 0
force O  -0.039569261435409   0.019871964201295   0.395244880017255 0
force O  -0.022766840574835  -0.010638077353050   0.331575860330394 0
force O   0.007150916345154  -0.004631898201769   0.827405786320391 0
force O   0.004854950708836  -0.004839943960614   0.129487536616663 0
force O  -0.019751108852827  -0.010761444352931   0.059126234394397 1
force H   0.000031681021676  -0.007701789383835  -0.009757452284644 1

# Energy components:
   Eewald =     5614.6078831174754669
       EH =     7467.3536720540578244
     Eloc =   -15283.3349034159527946
      Enl =     -549.3216704753233444
   Epulay =       -0.0004842064044479
      Exc =     -249.8358789041503769
       KE =      943.6353769722520610
        U =        1.3311823948928685
-------------------------------------
     Etot =    -2055.5648224631536323
       TS =        0.0005691055673303
-------------------------------------
        F =    -2055.5653915687207700

IonicMinimize: Iter:  19  F: -2055.565391568720770  |grad|_K:  6.198e-04  alpha:  1.000e+00  linmin: -1.737e-02  t[s]:  55501.49

#--- Lowdin population analysis ---
# oxidation-state Ni +3.774 +3.515 +3.506 +3.428 +3.432
# magnetic-moments Ni -1.018 +0.952 -0.946 +0.875 -0.544
# oxidation-state V +1.329 +1.151 +1.075 +0.951 +1.072
# magnetic-moments V -2.125 +2.973 -2.901 +2.949 -2.872
# oxidation-state Cr +2.913 +2.917 +2.958
# magnetic-moments Cr +3.547 -1.355 +3.884
# oxidation-state Co +1.249 +1.241 +1.315
# magnetic-moments Co -2.739 +2.720 -2.815
# oxidation-state O -0.867 -0.890 -0.834 -0.912 -0.818 -0.829 -0.870 -0.899 -0.848 -0.831 -0.737 -0.870 -0.845 -0.852 -0.854 -0.948 -0.790
# magnetic-moments O -0.129 -0.098 +0.046 -0.086 -0.094 +0.065 +0.031 +0.054 -0.045 +0.049 +0.244 +0.013 -0.277 +0.072 -0.022 -0.057 -0.259
# oxidation-state H +0.371
# magnetic-moments H +0.005


-------- Electronic minimization -----------
	FillingsUpdate:  mu: +0.156556067  nElectrons: 351.000000  magneticMoment: [ Abs: 39.97679  Tot: +0.00000 ]
ElecMinimize: Iter:   0  F: -2055.050946570631822  |grad|_K:  1.185e-04  alpha:  1.000e+00
	FillingsUpdate:  mu: +0.127195225  nElectrons: 351.000000  magneticMoment: [ Abs: 40.01090  Tot: -0.00000 ]
	SubspaceRotationAdjust: set factor to 0.94
ElecMinimize: Iter:   1  F: -2055.523759299379435  |grad|_K:  2.615e-05  alpha:  1.883e-01  linmin: -2.147e-03  t[s]:  55634.94
	FillingsUpdate:  mu: +0.134491349  nElectrons: 351.000000  magneticMoment: [ Abs: 39.89923  Tot: +0.00000 ]
	SubspaceRotationAdjust: set factor to 0.663
ElecMinimize: Iter:   2  F: -2055.552554495854565  |grad|_K:  1.840e-05  alpha:  2.389e-01  linmin:  1.852e-03  t[s]:  55712.26
	FillingsUpdate:  mu: +0.127317411  nElectrons: 351.000000  magneticMoment: [ Abs: 39.98204  Tot: +0.00000 ]
	SubspaceRotationAdjust: set factor to 0.43
ElecMinimize: Iter:   3  F: -2055.558718278328797  |grad|_K:  9.266e-06  alpha:  1.262e-01  linmin:  7.029e-04  t[s]:  55789.93
	FillingsUpdate:  mu: +0.125670238  nElectrons: 351.000000  magneticMoment: [ Abs: 39.98605  Tot: +0.00000 ]
	SubspaceRotationAdjust: set factor to 0.615
ElecMinimize: Iter:   4  F: -2055.563044526201793  |grad|_K:  5.140e-06  alpha:  3.016e-01  linmin:  1.007e-06  t[s]:  55867.96
	FillingsUpdate:  mu: +0.124724536  nElectrons: 351.000000  magneticMoment: [ Abs: 39.96752  Tot: +0.00000 ]
	SubspaceRotationAdjust: set factor to 0.569
ElecMinimize: Iter:   5  F: -2055.564412143259233  |grad|_K:  3.383e-06  alpha:  2.959e-01  linmin:  1.304e-04  t[s]:  55945.94
	FillingsUpdate:  mu: +0.124765343  nElectrons: 351.000000  magneticMoment: [ Abs: 39.98136  Tot: -0.00000 ]
	SubspaceRotationAdjust: set factor to 0.439
ElecMinimize: Iter:   6  F: -2055.564925464999305  |grad|_K:  2.475e-06  alpha:  2.592e-01  linmin: -6.630e-05  t[s]:  56023.28
	FillingsUpdate:  mu: +0.124777290  nElectrons: 351.000000  magneticMoment: [ Abs: 39.97606  Tot: +0.00000 ]
	SubspaceRotationAdjust: set factor to 0.509
ElecMinimize: Iter:   7  F: -2055.565250192614258  |grad|_K:  1.319e-06  alpha:  3.011e-01  linmin:  1.122e-05  t[s]:  56101.72
	FillingsUpdate:  mu: +0.124784706  nElectrons: 351.000000  magneticMoment: [ Abs: 39.97468  Tot: +0.00000 ]
	SubspaceRotationAdjust: set factor to 0.543
ElecMinimize: Iter:   8  F: -2055.565368730747650  |grad|_K:  9.472e-07  alpha:  3.900e-01  linmin:  8.618e-07  t[s]:  56180.26
	FillingsUpdate:  mu: +0.124808912  nElectrons: 351.000000  magneticMoment: [ Abs: 39.97844  Tot: +0.00000 ]
	SubspaceRotationAdjust: set factor to 0.437
ElecMinimize: Iter:   9  F: -2055.565411252678587  |grad|_K:  6.248e-07  alpha:  2.714e-01  linmin: -1.967e-06  t[s]:  56258.13
	FillingsUpdate:  mu: +0.124832317  nElectrons: 351.000000  magneticMoment: [ Abs: 39.97601  Tot: -0.00000 ]
	SubspaceRotationAdjust: set factor to 0.381
ElecMinimize: Iter:  10  F: -2055.565432615011559  |grad|_K:  4.172e-07  alpha:  3.130e-01  linmin:  1.147e-05  t[s]:  56335.55
	FillingsUpdate:  mu: +0.124840924  nElectrons: 351.000000  magneticMoment: [ Abs: 39.97651  Tot: +0.00000 ]
	SubspaceRotationAdjust: set factor to 0.427
ElecMinimize: Iter:  11  F: -2055.565442940233879  |grad|_K:  2.816e-07  alpha:  3.397e-01  linmin:  1.965e-07  t[s]:  56413.25
	FillingsUpdate:  mu: +0.124830056  nElectrons: 351.000000  magneticMoment: [ Abs: 39.97732  Tot: +0.00000 ]
	SubspaceRotationAdjust: set factor to 0.45
ElecMinimize: Iter:  12  F: -2055.565447659628262  |grad|_K:  2.106e-07  alpha:  3.402e-01  linmin: -4.510e-07  t[s]:  56491.04
	FillingsUpdate:  mu: +0.124822245  nElectrons: 351.000000  magneticMoment: [ Abs: 39.97697  Tot: +0.00000 ]
	SubspaceRotationAdjust: set factor to 0.476
ElecMinimize: Iter:  13  F: -2055.565450321000299  |grad|_K:  1.557e-07  alpha:  3.431e-01  linmin:  1.001e-06  t[s]:  56568.28
	FillingsUpdate:  mu: +0.124822948  nElectrons: 351.000000  magneticMoment: [ Abs: 39.97725  Tot: +0.00000 ]
	SubspaceRotationAdjust: set factor to 0.547
ElecMinimize: Iter:  14  F: -2055.565451981001843  |grad|_K:  1.279e-07  alpha:  3.917e-01  linmin:  4.173e-06  t[s]:  56648.44
	FillingsUpdate:  mu: +0.124824990  nElectrons: 351.000000  magneticMoment: [ Abs: 39.97747  Tot: -0.00000 ]
	SubspaceRotationAdjust: set factor to 0.66
ElecMinimize: Iter:  15  F: -2055.565453097113732  |grad|_K:  1.065e-07  alpha:  3.903e-01  linmin:  1.331e-07  t[s]:  56728.14
	FillingsUpdate:  mu: +0.124824290  nElectrons: 351.000000  magneticMoment: [ Abs: 39.97743  Tot: +0.00000 ]
	SubspaceRotationAdjust: set factor to 0.76
ElecMinimize: Iter:  16  F: -2055.565453900095690  |grad|_K:  1.004e-07  alpha:  4.051e-01  linmin:  2.959e-06  t[s]:  56807.07
	FillingsUpdate:  mu: +0.124824626  nElectrons: 351.000000  magneticMoment: [ Abs: 39.97789  Tot: +0.00000 ]
	SubspaceRotationAdjust: set factor to 0.787
ElecMinimize: Iter:  17  F: -2055.565454563813546  |grad|_K:  1.010e-07  alpha:  3.763e-01  linmin: -6.982e-07  t[s]:  56884.94
	FillingsUpdate:  mu: +0.124822106  nElectrons: 351.000000  magneticMoment: [ Abs: 39.97753  Tot: -0.00000 ]
	SubspaceRotationAdjust: set factor to 0.727
ElecMinimize: Iter:  18  F: -2055.565455159667636  |grad|_K:  1.059e-07  alpha:  3.338e-01  linmin:  3.369e-06  t[s]:  56962.66
	FillingsUpdate:  mu: +0.124823487  nElectrons: 351.000000  magneticMoment: [ Abs: 39.97810  Tot: +0.00000 ]
	SubspaceRotationAdjust: set factor to 0.702
ElecMinimize: Iter:  19  F: -2055.565455848866804  |grad|_K:  1.054e-07  alpha:  3.514e-01  linmin:  2.421e-06  t[s]:  57040.11
	FillingsUpdate:  mu: +0.124823851  nElectrons: 351.000000  magneticMoment: [ Abs: 39.97781  Tot: +0.00000 ]
	SubspaceRotationAdjust: set factor to 0.747
ElecMinimize: Iter:  20  F: -2055.565456731195354  |grad|_K:  1.160e-07  alpha:  4.547e-01  linmin:  2.625e-06  t[s]:  57118.62
ElecMinimize: Converged (|Delta F|<1.000000e-06 for 5 iters).
Setting wave functions to eigenvectors of Hamiltonian

# Ionic positions in lattice coordinates:
ion Ni   0.006419567611239   0.005164119979616   0.162439750713177 1
ion Ni  -0.247373214850233   0.253140281262423   0.049169817904504 1
ion Ni   0.000000000000000   0.000000000000000  -0.050000000000000 0
ion Ni   0.500000000000000   0.000000000000000  -0.050000000000000 0
ion Ni  -0.250000000000000   0.250000000000000  -0.150000000000000 0
ion V   0.512686084009674   0.006436763889049   0.153315931824282 1
ion V  -0.004849978010678   0.505350283476783   0.157107936876188 1
ion V   0.500100563687775   0.504045575244086   0.153538981593994 1
ion V   0.253269179209907   0.760746043973656   0.052657884940898 1
ion V   0.250000000000000   0.750000000000000  -0.150000000000000 0
ion Cr   0.250659758466787   0.250595793498145   0.051227193269634 1
ion Cr   0.000000000000000   0.500000000000000  -0.050000000000000 0
ion Cr  -0.250000000000000   0.750000000000000  -0.150000000000000 0
ion Co  -0.241340932185186   0.769368297346552   0.049038504864770 1
ion Co   0.500000000000000   0.500000000000000  -0.050000000000000 0
ion Co   0.250000000000000   0.250000000000000  -0.150000000000000 0
ion O   0.257315248330611   0.242005513666353   0.152741429483380 1
ion O   0.259429566060215   0.769554980986068   0.154242554153661 1
ion O  -0.257591832103853   0.244381185167678   0.150235878415449 1
ion O  -0.258257961290094   0.764479215597221   0.149933106976110 1
ion O   0.008929260253977   0.021444979515145   0.049186369308264 1
ion O   0.506094289977959   0.009391372330900   0.056798324764956 1
ion O  -0.000718810835572   0.504264167000312   0.050084237396952 1
ion O   0.494187595414919   0.489430923653139   0.053341190232428 1
ion O   0.250000000000000   0.250000000000000  -0.050000000000000 0
ion O   0.250000000000000   0.750000000000000  -0.050000000000000 0
ion O  -0.250000000000000   0.250000000000000  -0.050000000000000 0
ion O  -0.250000000000000   0.750000000000000  -0.050000000000000 0
ion O   0.000000000000000   0.000000000000000  -0.150000000000000 0
ion O   0.500000000000000   0.000000000000000  -0.150000000000000 0
ion O   0.000000000000000   0.500000000000000  -0.150000000000000 0
ion O   0.500000000000000   0.500000000000000  -0.150000000000000 0
ion O  -0.040038306402414  -0.010884061014116   0.250645216549949 1
ion H   0.080293325143084   0.056206786845766   0.273595865907569 1

# Forces in Lattice coordinates:
force Ni  -0.010882497291739  -0.004001321872829   0.041117991183752 1
force Ni  -0.001782832670331  -0.003799273167694  -0.014510670213176 1
force Ni  -0.058161413736529   0.078821509074951  -0.474216056137056 0
force Ni   0.082727873594727   0.078299271857766  -0.498115404050601 0
force Ni  -0.015680294174575  -0.059178612158943  -0.235020169971949 0
force V   0.009053529222362   0.008453746161294   0.009425571936808 1
force V  -0.001730825849746  -0.002019341313105   0.017242355515564 1
force V  -0.000649998648047   0.006613015425495   0.003037302552913 1
force V   0.002984416264364   0.002411461077076   0.005877866766464 1
force V   0.059827078441155   0.074507273264234  -0.257473172728591 0
force Cr  -0.000737471652258   0.005428185362016   0.012249304056091 1
force Cr  -0.115336361185761  -0.080389991225082  -0.570775053440383 0
force Cr  -0.027420966561115   0.086422672723999  -1.478253051417614 0
force Co  -0.011153677957095  -0.006559191521001  -0.014339409258040 1
force Co   0.093266469109704  -0.077564624731870  -0.329723987291000 0
force Co   0.064816097408579  -0.077797500817714  -0.378700456842240 0
force O  -0.003534762431438   0.005439473457210   0.028334602992594 1
force O  -0.000698322531857  -0.003341502480276  -0.032427765607185 1
force O   0.001572308570859   0.001568014749864  -0.019313401120572 1
force O  -0.000584450507410   0.001628771443430   0.000888413362969 1
force O  -0.002625469835093  -0.001668705645479  -0.007875320629534 1
force O  -0.000811238366723   0.001118398373966   0.002875882146003 1
force O   0.006948247180480   0.000672992911426  -0.032042347095416 1
force O  -0.003094490497468  -0.001284680986419   0.012793745111974 1
force O  -0.149860874660707   0.056777685178433   0.466523962499701 0
force O  -0.147884385126648  -0.033895531406530   0.197241769830156 0
force O   0.139789681823099   0.038409358287720   0.926785787656352 0
force O   0.148238061891023  -0.054516402716292   1.215491995609793 0
force O  -0.039154654962346   0.019053760223801   0.394655476079780 0
force O  -0.022398376731307  -0.010796545860857   0.330798018581834 0
force O   0.006763745487429  -0.004484167741046   0.828731174530052 0
force O   0.005103204296421  -0.004890554857964   0.128164521488852 0
force O   0.022775302914493   0.020585423826799   0.077727474582623 1
force H  -0.045655147851326  -0.031195746936339  -0.113859976257339 1

# Energy components:
   Eewald =     5603.2213806293075322
       EH =     7455.9414416192294084
     Eloc =   -15260.5147929486756766
      Enl =     -549.3126884210294065
   Epulay =       -0.0004842064044479
      Exc =     -249.8248865623000938
       KE =      943.5941588728812803
        U =        1.3309920585009594
-------------------------------------
     Etot =    -2055.5648789584897713
       TS =        0.0005777727056750
-------------------------------------
        F =    -2055.5654567311953542

IonicMinimize: Iter:  20  F: -2055.565456731195354  |grad|_K:  9.688e-04  alpha:  8.026e-01  linmin: -6.295e-03  t[s]:  57144.14
IonicMinimize: Converged (|Delta F|<1.000000e-04 for 3 iters).

#--- Lowdin population analysis ---
# oxidation-state Ni +3.776 +3.515 +3.508 +3.429 +3.433
# magnetic-moments Ni -1.016 +0.950 -0.947 +0.876 -0.540
# oxidation-state V +1.330 +1.149 +1.077 +0.953 +1.072
# magnetic-moments V -2.123 +2.973 -2.903 +2.949 -2.870
# oxidation-state Cr +2.913 +2.917 +2.958
# magnetic-moments Cr +3.548 -1.360 +3.884
# oxidation-state Co +1.250 +1.241 +1.315
# magnetic-moments Co -2.740 +2.720 -2.815
# oxidation-state O -0.868 -0.890 -0.835 -0.913 -0.817 -0.829 -0.871 -0.900 -0.848 -0.831 -0.737 -0.871 -0.846 -0.852 -0.854 -0.948 -0.788
# magnetic-moments O -0.129 -0.100 +0.048 -0.085 -0.096 +0.065 +0.030 +0.054 -0.045 +0.049 +0.246 +0.014 -0.274 +0.073 -0.021 -0.057 -0.264
# oxidation-state H +0.370
# magnetic-moments H +0.005


Dumping 'run.ionpos' ... done
Dumping 'run.lattice' ... done
Dumping 'run.Ecomponents' ... done
End date and time: Wed May  7 06:48:08 2025  (Duration: 0-15:52:31.14)
Done!
