/var/spool/slurmd/job44103/slurm_script: line 9: module: command not found
/var/spool/slurmd/job44103/slurm_script: line 10: module: command not found

*************** JDFTx 1.7.0  ***************

Start date and time: Wed May  7 08:20:40 2025
Executable /data2/jt577/jdftx_eat_withLibXC/build/jdftx with command-line: -i /data2/jt577/May_2025/Relax_Mag/rel10+1_6/OH/runs/calc_/run.in
Running on hosts (process indices):  node3224 (0-8)
Divided in process groups (process indices):  0 (0)  1 (1)  2 (2)  3 (3)  4 (4)  5 (5)  6 (6)  7 (7)  8 (8)
Resource initialization completed at t[s]:      0.00
Run totals: 9 processes, 36 threads, 0 GPUs


Input parsed successfully to the following command list (including defaults):

add-mix 
add-U 	Ni d 0.22 \
	V d 0.12 \
	Co d 0.2 \
	Cr d 0.16
basis kpoint-dependent
coords-type Lattice
core-overlap-check vector
coulomb-interaction Periodic
davidson-band-ratio 1.1
dump End IonicPositions Lattice Ecomponents
dump-name run.$VAR
elec-cutoff 30
elec-eigen-algo Davidson
elec-ex-corr gga-x-rpbe gga-c-pbe
elec-smearing Fermi 0.001
electronic-minimize  \
	dirUpdateScheme      FletcherReeves \
	linminMethod         DirUpdateRecommended \
	nIterations          1000 \
	history              15 \
	knormThreshold       0 \
	energyDiffThreshold  1e-06 \
	nEnergyDiff          5 \
	alphaTstart          1 \
	alphaTmin            1e-10 \
	updateTestStepSize   yes \
	alphaTreduceFactor   0.1 \
	alphaTincreaseFactor 3 \
	nAlphaAdjustMax      3 \
	wolfeEnergy          0.0001 \
	wolfeGradient        0.9 \
	fdTest               no
exchange-regularization WignerSeitzTruncated
fluid None
fluid-ex-corr (null) lda-PZ
fluid-gummel-loop 10 1.000000e-05
fluid-minimize  \
	dirUpdateScheme      PolakRibiere \
	linminMethod         DirUpdateRecommended \
	nIterations          100 \
	history              15 \
	knormThreshold       0 \
	energyDiffThreshold  0 \
	nEnergyDiff          2 \
	alphaTstart          1 \
	alphaTmin            1e-10 \
	updateTestStepSize   yes \
	alphaTreduceFactor   0.1 \
	alphaTincreaseFactor 3 \
	nAlphaAdjustMax      3 \
	wolfeEnergy          0.0001 \
	wolfeGradient        0.9 \
	fdTest               no
fluid-solvent H2O 55.338 ScalarEOS \
	epsBulk 78.4 \
	pMol 0.92466 \
	epsInf 1.77 \
	Pvap 1.06736e-10 \
	sigmaBulk 4.62e-05 \
	Rvdw 2.61727 \
	Res 1.42 \
	tauNuc 343133 \
	poleEl 15 7 1
forces-output-coords Positions
initial-magnetic-moments  \
	Ni 1 -1 1 1 -1 -1 1 \
	V -1 1 1 -1 1 \
	Co -1 -1 1 \
	Cr -1
initial-state run.$VAR
ion Ni  0.000000000000000   0.000000000000000   0.150000000000000 1
ion Ni  0.500000000000000   0.500000000000000   0.150000000000000 1
ion Ni  0.250000000000000   0.250000000000000   0.050000000000000 1
ion Ni  0.250000000000000   0.750000000000000   0.050000000000000 1
ion Ni -0.250000000000000   0.750000000000000   0.050000000000000 1
ion Ni  0.250000000000000   0.750000000000000  -0.150000000000000 0
ion Ni -0.250000000000000   0.250000000000000  -0.150000000000000 0
ion V  0.500000000000000   0.000000000000000   0.150000000000000 1
ion V  0.000000000000000   0.500000000000000   0.150000000000000 1
ion V  0.500000000000000   0.000000000000000  -0.050000000000000 0
ion V  0.000000000000000   0.500000000000000  -0.050000000000000 0
ion V  0.500000000000000   0.500000000000000  -0.050000000000000 0
ion Co -0.250000000000000   0.250000000000000   0.050000000000000 1
ion Co  0.000000000000000   0.000000000000000  -0.050000000000000 0
ion Co -0.250000000000000   0.750000000000000  -0.150000000000000 0
ion Cr  0.250000000000000   0.250000000000000  -0.150000000000000 0
ion O  0.250000000000000   0.250000000000000   0.150000000000000 1
ion O  0.250000000000000   0.750000000000000   0.150000000000000 1
ion O -0.250000000000000   0.250000000000000   0.150000000000000 1
ion O -0.250000000000000   0.750000000000000   0.150000000000000 1
ion O  0.000000000000000   0.000000000000000   0.050000000000000 1
ion O  0.500000000000000   0.000000000000000   0.050000000000000 1
ion O  0.000000000000000   0.500000000000000   0.050000000000000 1
ion O  0.500000000000000   0.500000000000000   0.050000000000000 1
ion O  0.250000000000000   0.250000000000000  -0.050000000000000 0
ion O  0.250000000000000   0.750000000000000  -0.050000000000000 0
ion O -0.250000000000000   0.250000000000000  -0.050000000000000 0
ion O -0.250000000000000   0.750000000000000  -0.050000000000000 0
ion O  0.000000000000000   0.000000000000000  -0.150000000000000 0
ion O  0.500000000000000   0.000000000000000  -0.150000000000000 0
ion O  0.000000000000000   0.500000000000000  -0.150000000000000 0
ion O  0.500000000000000   0.500000000000000  -0.150000000000000 0
ion O -0.008040138212305  -0.008269777577920   0.235000196603227 1
ion H  0.095742872057713   0.094897636790041   0.252810710255288 1
ion-species SG15/$ID_ONCV_PBE.upf
ion-width 0
ionic-minimize  \
	dirUpdateScheme      L-BFGS \
	linminMethod         DirUpdateRecommended \
	nIterations          1000 \
	history              15 \
	knormThreshold       0.0001 \
	energyDiffThreshold  0.0001 \
	nEnergyDiff          3 \
	alphaTstart          1 \
	alphaTmin            1e-10 \
	updateTestStepSize   yes \
	alphaTreduceFactor   0.1 \
	alphaTincreaseFactor 3 \
	nAlphaAdjustMax      3 \
	wolfeEnergy          0.0001 \
	wolfeGradient        0.9 \
	fdTest               no
kpoint   0.500000000000   0.500000000000   0.500000000000  1.00000000000000
kpoint-folding 3 3 1 
latt-move-scale 1 1 1
latt-scale 1 1 1 
lattice  \
	   8.140000000000001    8.140000000000001    0.000000000000000  \
	   8.140000000000001   -8.140000000000001    0.000000000000000  \
	   0.000000000000000    0.000000000000000   40.700000000000003 
lattice-minimize  \
	dirUpdateScheme      L-BFGS \
	linminMethod         DirUpdateRecommended \
	nIterations          0 \
	history              15 \
	knormThreshold       0 \
	energyDiffThreshold  1e-06 \
	nEnergyDiff          2 \
	alphaTstart          1 \
	alphaTmin            1e-10 \
	updateTestStepSize   yes \
	alphaTreduceFactor   0.1 \
	alphaTincreaseFactor 3 \
	nAlphaAdjustMax      3 \
	wolfeEnergy          0.0001 \
	wolfeGradient        0.9 \
	fdTest               no
lcao-params -1 1e-06 0.001
pcm-variant GLSSA13
spintype z-spin
subspace-rotation-factor 1 yes
symmetries none
symmetry-threshold 0.0001


Applied RMS atom displacement 0 bohrs to make symmetries exact.

---------- Initializing the Grid ----------
R = 
[         8.14         8.14            0  ]
[         8.14        -8.14            0  ]
[            0            0         40.7  ]
unit cell volume = 5393.53
G =
[   0.385945   0.385945         -0  ]
[   0.385945  -0.385945         -0  ]
[         -0         -0   0.154378  ]
Minimum fftbox size, Smin = [  60  60  204  ]
Chosen fftbox size, S = [  60  60  210  ]

---------- Exchange Correlation functional ----------
Initialized LibXC exchange functional 'Hammer, Hansen, and Norskov'
Initialized LibXC correlation functional 'Perdew, Burke & Ernzerhof'

---------- Setting up pseudopotentials ----------
Width of ionic core gaussian charges (only for fluid interactions / plotting) set to 0

Reading pseudopotential file '/data2/jt577/jdftx_eat_withLibXC/build/pseudopotentials/SG15/Ni_ONCV_PBE.upf':
  'Ni' pseudopotential, 'PBE' functional
  Generated using ONCVPSP code by D. R. Hamann
  Author: Martin Schlipf and Francois Gygi  Date: 150915.
  18 valence electrons, 4 orbitals, 6 projectors, 1292 radial grid points, with lMax = 2
  Transforming local potential to a uniform radial grid of dG=0.02 with 1419 points.
  Transforming nonlocal projectors to a uniform radial grid of dG=0.02 with 528 points.
    3S    l: 0   occupation:  2.0   eigenvalue: -4.081355
    3P    l: 1   occupation:  6.0   eigenvalue: -2.623460
    4S    l: 0   occupation:  2.0   eigenvalue: -0.207378
    3D    l: 2   occupation:  8.0   eigenvalue: -0.326118
  Transforming atomic orbitals to a uniform radial grid of dG=0.02 with 528 points.
  WARNING: large normalization error in atomic orbital 1s (integral: 0.000006).
  Core radius for overlap checks: 1.99 bohrs.
  Reading pulay file /data2/jt577/jdftx_eat_withLibXC/build/pseudopotentials/SG15/Ni_ONCV_PBE.pulay ... using dE_dnG = -7.250568e-04 computed for Ecut = 30.

Reading pseudopotential file '/data2/jt577/jdftx_eat_withLibXC/build/pseudopotentials/SG15/V_ONCV_PBE.upf':
  'V' pseudopotential, 'PBE' functional
  Generated using ONCVPSP code by D. R. Hamann
  Author: Martin Schlipf and Francois Gygi  Date: 150915.
  13 valence electrons, 4 orbitals, 6 projectors, 1536 radial grid points, with lMax = 2
  Transforming local potential to a uniform radial grid of dG=0.02 with 1419 points.
  Transforming nonlocal projectors to a uniform radial grid of dG=0.02 with 528 points.
    3S    l: 0   occupation:  2.0   eigenvalue: -2.581105
    3P    l: 1   occupation:  6.0   eigenvalue: -1.618486
    4S    l: 0   occupation:  2.0   eigenvalue: -0.172804
    3D    l: 2   occupation:  3.0   eigenvalue: -0.189795
  Transforming atomic orbitals to a uniform radial grid of dG=0.02 with 528 points.
  Core radius for overlap checks: 1.80 bohrs.
  Reading pulay file /data2/jt577/jdftx_eat_withLibXC/build/pseudopotentials/SG15/V_ONCV_PBE.pulay ... using dE_dnG = -1.698632e-04 computed for Ecut = 30.

Reading pseudopotential file '/data2/jt577/jdftx_eat_withLibXC/build/pseudopotentials/SG15/Co_ONCV_PBE.upf':
  'Co' pseudopotential, 'PBE' functional
  Generated using ONCVPSP code by D. R. Hamann
  Author: Martin Schlipf and Francois Gygi  Date: 150915.
  17 valence electrons, 4 orbitals, 6 projectors, 1388 radial grid points, with lMax = 2
  Transforming local potential to a uniform radial grid of dG=0.02 with 1419 points.
  Transforming nonlocal projectors to a uniform radial grid of dG=0.02 with 528 points.
    3S    l: 0   occupation:  2.0   eigenvalue: -3.763303
    3P    l: 1   occupation:  6.0   eigenvalue: -2.412101
    4S    l: 0   occupation:  2.0   eigenvalue: -0.201022
    3D    l: 2   occupation:  7.0   eigenvalue: -0.301498
  Transforming atomic orbitals to a uniform radial grid of dG=0.02 with 528 points.
  Core radius for overlap checks: 1.94 bohrs.
  Reading pulay file /data2/jt577/jdftx_eat_withLibXC/build/pseudopotentials/SG15/Co_ONCV_PBE.pulay ... using dE_dnG = -9.787391e-05 computed for Ecut = 30.

Reading pseudopotential file '/data2/jt577/jdftx_eat_withLibXC/build/pseudopotentials/SG15/Cr_ONCV_PBE.upf':
  'Cr' pseudopotential, 'PBE' functional
  Generated using ONCVPSP code by D. R. Hamann
  Author: Martin Schlipf and Francois Gygi  Date: 150915.
  14 valence electrons, 4 orbitals, 6 projectors, 1160 radial grid points, with lMax = 2
  Transforming local potential to a uniform radial grid of dG=0.02 with 1419 points.
  Transforming nonlocal projectors to a uniform radial grid of dG=0.02 with 528 points.
    3S    l: 0   occupation:  2.0   eigenvalue: -2.865131
    3P    l: 1   occupation:  6.0   eigenvalue: -1.810600
    4S    l: 0   occupation:  2.0   eigenvalue: -0.180525
    3D    l: 2   occupation:  4.0   eigenvalue: -0.220312
  Transforming atomic orbitals to a uniform radial grid of dG=0.02 with 528 points.
  WARNING: large normalization error in atomic orbital 1s (integral: 0.000001).
  Core radius for overlap checks: 2.10 bohrs.
  Reading pulay file /data2/jt577/jdftx_eat_withLibXC/build/pseudopotentials/SG15/Cr_ONCV_PBE.pulay ... using dE_dnG = -9.817895e-06 computed for Ecut = 30.

Reading pseudopotential file '/data2/jt577/jdftx_eat_withLibXC/build/pseudopotentials/SG15/O_ONCV_PBE.upf':
  'O' pseudopotential, 'PBE' functional
  Generated using ONCVPSP code by D. R. Hamann
  Author: Martin Schlipf and Francois Gygi  Date: 150915.
  6 valence electrons, 2 orbitals, 4 projectors, 936 radial grid points, with lMax = 1
  Transforming local potential to a uniform radial grid of dG=0.02 with 1419 points.
  Transforming nonlocal projectors to a uniform radial grid of dG=0.02 with 528 points.
    2S    l: 0   occupation:  2.0   eigenvalue: -0.880572
    2P    l: 1   occupation:  4.0   eigenvalue: -0.331869
  Transforming atomic orbitals to a uniform radial grid of dG=0.02 with 528 points.
  Core radius for overlap checks: 1.29 bohrs.
  Reading pulay file /data2/jt577/jdftx_eat_withLibXC/build/pseudopotentials/SG15/O_ONCV_PBE.pulay ... using dE_dnG = -8.209514e-03 computed for Ecut = 30.

Reading pseudopotential file '/data2/jt577/jdftx_eat_withLibXC/build/pseudopotentials/SG15/H_ONCV_PBE.upf':
  'H' pseudopotential, 'PBE' functional
  Generated using ONCVPSP code by D. R. Hamann
  Author: Martin Schlipf and Francois Gygi  Date: 150915.
  1 valence electrons, 1 orbitals, 2 projectors, 1166 radial grid points, with lMax = 0
  Transforming local potential to a uniform radial grid of dG=0.02 with 1419 points.
  Transforming nonlocal projectors to a uniform radial grid of dG=0.02 with 528 points.
    1S    l: 0   occupation:  1.0   eigenvalue: -0.238602
  Transforming atomic orbitals to a uniform radial grid of dG=0.02 with 528 points.
  Core radius for overlap checks: 1.01 bohrs.
  Reading pulay file /data2/jt577/jdftx_eat_withLibXC/build/pseudopotentials/SG15/H_ONCV_PBE.pulay ... using dE_dnG = -8.245991e-05 computed for Ecut = 30.

Initialized 6 species with 34 total atoms.

Folded 1 k-points by 3x3x1 to 9 k-points.

---------- Setting up k-points, bands, fillings ----------
No reducable k-points. 
Computing the number of bands and number of electrons
Calculating initial fillings.
nElectrons: 359.000000   nBands: 229   nStates: 18

----- Setting up reduced wavefunction bases (one per k-point) -----
average nbasis = 42312.000 , ideal nbasis = 42330.081

---------- Setting up ewald sum ----------
Optimum gaussian width for ewald sums = 3.887061 bohr.
Real space sum over 605 unit cells with max indices [  5  5  2  ]
Reciprocal space sum over 5915 terms with max indices [  6  6  17  ]

---------- Allocating electronic variables ----------
Initializing wave functions:  linear combination of atomic orbitals
Ni (M=1) pseudo-atom majority spin occupations:   s ( 1 0.5 )  p ( 3 )  d ( 5 )
Ni (M=1) pseudo-atom minority spin occupations:   s ( 1 0 )  p ( 3 )  d ( 4.5 )
V (M=1) pseudo-atom majority spin occupations:   s ( 1 0 )  p ( 3 )  d ( 3 )
V (M=1) pseudo-atom minority spin occupations:   s ( 1 0 )  p ( 3 )  d ( 2 )
Co (M=1) pseudo-atom majority spin occupations:   s ( 1 0 )  p ( 3 )  d ( 5 )
Co (M=1) pseudo-atom minority spin occupations:   s ( 1 0 )  p ( 3 )  d ( 4 )
Cr (M=1) pseudo-atom majority spin occupations:   s ( 1 0 )  p ( 3 )  d ( 3.5 )
Cr (M=1) pseudo-atom minority spin occupations:   s ( 1 0 )  p ( 3 )  d ( 2.5 )
O pseudo-atom occupations:   s ( 2 )  p ( 4 )
H pseudo-atom occupations:   s ( 1 )
	FillingsUpdate:  mu: -0.291329879  nElectrons: 359.000000  magneticMoment: [ Abs: 0.49397  Tot: -0.00000 ]
LCAOMinimize: Iter:   0  F: -2020.2984958216566156  |grad|_K:  1.150e-02  alpha:  1.000e+00
	FillingsUpdate:  mu: +2.703025013  nElectrons: 359.000000  magneticMoment: [ Abs: 1.71339  Tot: +0.00000 ]
LCAOMinimize: Iter:   1  F: -2025.3557635486163235  |grad|_K:  7.980e-02  alpha:  1.449e-01  linmin:  6.120e-02  cgtest: -1.146e-01  t[s]:    106.91
LCAOMinimize: 	Bad step direction: g.d > 0.
LCAOMinimize: 	Undoing step.
LCAOMinimize: 	Step failed: resetting search direction.
	FillingsUpdate:  mu: +2.703025013  nElectrons: 359.000000  magneticMoment: [ Abs: 1.71339  Tot: +0.00000 ]
LCAOMinimize: Iter:   2  F: -2025.3557635486126856  |grad|_K:  7.980e-02  alpha:  0.000e+00
	FillingsUpdate:  mu: +1.133762681  nElectrons: 359.000000  magneticMoment: [ Abs: 1.22069  Tot: +0.00000 ]
LCAOMinimize: Iter:   3  F: -2055.7185477350849396  |grad|_K:  1.959e-02  alpha:  5.371e-02  linmin:  3.348e-02  cgtest: -2.616e+00  t[s]:    174.29
	FillingsUpdate:  mu: +1.153075928  nElectrons: 359.000000  magneticMoment: [ Abs: 1.76153  Tot: +0.00000 ]
LCAOMinimize: Iter:   4  F: -2057.7089288408983521  |grad|_K:  2.059e-02  alpha:  9.964e-03  linmin: -3.273e-02  cgtest:  8.830e-01  t[s]:    214.84
LCAOMinimize: 	Wrong curvature in test step, increasing alphaT to 2.989171e-02.
	FillingsUpdate:  mu: +0.978268291  nElectrons: 359.000000  magneticMoment: [ Abs: 2.49633  Tot: +0.00000 ]
LCAOMinimize: Iter:   5  F: -2064.0124047330750727  |grad|_K:  3.125e-02  alpha: -1.118e-02  linmin: -1.254e-01  cgtest:  5.587e-01  t[s]:    249.51
LCAOMinimize: 	Step increased F by 4.431452e+02, reducing alpha to 4.216743e-02.
LCAOMinimize: 	Step increased F by 2.116383e+01, reducing alpha to 4.216743e-03.
	FillingsUpdate:  mu: -0.080250123  nElectrons: 359.000000  magneticMoment: [ Abs: 4.42897  Tot: -0.00000 ]
LCAOMinimize: Iter:   6  F: -2078.8139355306334437  |grad|_K:  1.251e-02  alpha:  4.217e-03  linmin:  3.249e-02  cgtest:  1.926e-01  t[s]:    340.59
LCAOMinimize: 	Predicted alpha/alphaT>3.000000, increasing alphaT to 1.265023e-02.
	FillingsUpdate:  mu: +0.007191200  nElectrons: 359.000000  magneticMoment: [ Abs: 3.85279  Tot: -0.00000 ]
LCAOMinimize: Iter:   7  F: -2079.9372168832787793  |grad|_K:  1.088e-02  alpha:  1.808e-02  linmin: -1.207e-02  cgtest:  8.537e-01  t[s]:    388.30
	FillingsUpdate:  mu: -0.049801841  nElectrons: 359.000000  magneticMoment: [ Abs: 4.55646  Tot: -0.00000 ]
LCAOMinimize: Iter:   8  F: -2081.6442992385996149  |grad|_K:  8.603e-03  alpha:  2.837e-02  linmin:  2.199e-03  cgtest:  1.575e-01  t[s]:    426.34
LCAOMinimize: 	Wrong curvature in test step, increasing alphaT to 8.511135e-02.
	FillingsUpdate:  mu: -0.038486924  nElectrons: 359.000000  magneticMoment: [ Abs: 4.81727  Tot: +0.00000 ]
LCAOMinimize: Iter:   9  F: -2083.8237351987459078  |grad|_K:  7.238e-03  alpha: -1.252e-01  linmin: -8.081e-02  cgtest:  8.835e-01  t[s]:    462.71
LCAOMinimize: Encountered beta<0, resetting CG.
	FillingsUpdate:  mu: +0.393185417  nElectrons: 359.000000  magneticMoment: [ Abs: 5.86324  Tot: +0.00000 ]
LCAOMinimize: Iter:  10  F: -2085.8588147703953837  |grad|_K:  7.068e-03  alpha:  6.207e-02  linmin: -5.213e-03  cgtest:  6.673e-03  t[s]:    500.99
	FillingsUpdate:  mu: +0.415587736  nElectrons: 359.000000  magneticMoment: [ Abs: 6.67011  Tot: +0.00000 ]
LCAOMinimize: Iter:  11  F: -2086.4671088413706457  |grad|_K:  7.122e-03  alpha:  1.372e-02  linmin: -4.612e-02  cgtest:  8.591e-01  t[s]:    539.57
LCAOMinimize: 	Wrong curvature in test step, increasing alphaT to 4.117427e-02.
	FillingsUpdate:  mu: +0.124421370  nElectrons: 359.000000  magneticMoment: [ Abs: 7.14483  Tot: -0.00000 ]
LCAOMinimize: Iter:  12  F: -2087.5596768290834007  |grad|_K:  7.074e-03  alpha: -1.448e-02  linmin:  5.090e-02  cgtest:  2.305e-01  t[s]:    574.97
	FillingsUpdate:  mu: -0.075567713  nElectrons: 359.000000  magneticMoment: [ Abs: 6.68328  Tot: +0.00000 ]
LCAOMinimize: Iter:  13  F: -2089.1245996124957855  |grad|_K:  2.847e-03  alpha:  5.356e-02  linmin: -3.059e-02  cgtest:  1.970e+00  t[s]:    613.52
LCAOMinimize: Encountered beta<0, resetting CG.
	FillingsUpdate:  mu: -0.048126395  nElectrons: 359.000000  magneticMoment: [ Abs: 6.94197  Tot: -0.00000 ]
LCAOMinimize: Iter:  14  F: -2089.3405319954749757  |grad|_K:  2.458e-03  alpha:  2.903e-02  linmin: -9.866e-02  cgtest:  7.244e-01  t[s]:    653.94
	FillingsUpdate:  mu: -0.028752424  nElectrons: 359.000000  magneticMoment: [ Abs: 6.97561  Tot: -0.00000 ]
LCAOMinimize: Iter:  15  F: -2089.4417680375959208  |grad|_K:  2.946e-03  alpha:  1.078e-02  linmin: -8.651e-02  cgtest:  6.309e-01  t[s]:    692.71
	FillingsUpdate:  mu: +0.038111406  nElectrons: 359.000000  magneticMoment: [ Abs: 7.11328  Tot: -0.00000 ]
LCAOMinimize: Iter:  16  F: -2089.5297222852468622  |grad|_K:  2.010e-03  alpha:  6.293e-03  linmin: -3.081e-02  cgtest:  3.646e-01  t[s]:    730.28
LCAOMinimize: 	Predicted alpha/alphaT>3.000000, increasing alphaT to 1.888018e-02.
	FillingsUpdate:  mu: +0.075934433  nElectrons: 359.000000  magneticMoment: [ Abs: 7.29391  Tot: -0.00000 ]
LCAOMinimize: Iter:  17  F: -2089.5718503195812445  |grad|_K:  3.303e-03  alpha:  1.864e-02  linmin:  1.524e-03  cgtest:  5.590e-01  t[s]:    778.75
	FillingsUpdate:  mu: +0.062607672  nElectrons: 359.000000  magneticMoment: [ Abs: 7.41686  Tot: +0.00000 ]
LCAOMinimize: Iter:  18  F: -2089.6061436105514986  |grad|_K:  2.721e-03  alpha:  4.308e-03  linmin: -1.334e-02  cgtest:  9.650e-01  t[s]:    816.80
LCAOMinimize: Encountered beta<0, resetting CG.
	FillingsUpdate:  mu: +0.033110566  nElectrons: 359.000000  magneticMoment: [ Abs: 7.45274  Tot: +0.00000 ]
LCAOMinimize: Iter:  19  F: -2089.6409426835416525  |grad|_K:  1.208e-03  alpha:  1.010e-02  linmin:  5.250e-03  cgtest: -7.234e-02  t[s]:    854.42
LCAOMinimize: 	Predicted alpha/alphaT>3.000000, increasing alphaT to 3.030290e-02.
	FillingsUpdate:  mu: +0.010631306  nElectrons: 359.000000  magneticMoment: [ Abs: 7.56912  Tot: +0.00000 ]
LCAOMinimize: Iter:  20  F: -2089.6839511621565180  |grad|_K:  1.349e-03  alpha:  6.181e-02  linmin: -1.842e-03  cgtest:  1.559e-01  t[s]:    901.19
	FillingsUpdate:  mu: +0.030604484  nElectrons: 359.000000  magneticMoment: [ Abs: 8.16878  Tot: -0.00000 ]
LCAOMinimize: Iter:  21  F: -2089.7326248292602031  |grad|_K:  1.059e-03  alpha:  5.374e-02  linmin: -1.334e-03  cgtest:  3.058e-02  t[s]:    937.89
	FillingsUpdate:  mu: +0.034678239  nElectrons: 359.000000  magneticMoment: [ Abs: 8.48559  Tot: +0.00000 ]
LCAOMinimize: Iter:  22  F: -2089.7570728467026129  |grad|_K:  8.223e-04  alpha:  4.617e-02  linmin: -2.895e-03  cgtest:  4.749e-01  t[s]:    974.98
	FillingsUpdate:  mu: +0.031644852  nElectrons: 359.000000  magneticMoment: [ Abs: 8.56504  Tot: +0.00000 ]
LCAOMinimize: Iter:  23  F: -2089.7668894570765588  |grad|_K:  7.593e-04  alpha:  3.035e-02  linmin: -3.980e-05  cgtest: -1.142e-01  t[s]:   1012.93
	FillingsUpdate:  mu: +0.030480645  nElectrons: 359.000000  magneticMoment: [ Abs: 9.08063  Tot: +0.00000 ]
LCAOMinimize: Iter:  24  F: -2089.7959458228988296  |grad|_K:  6.456e-04  alpha:  8.812e-02  linmin: -4.820e-03  cgtest:  7.279e-01  t[s]:   1050.98
	FillingsUpdate:  mu: +0.032569083  nElectrons: 359.000000  magneticMoment: [ Abs: 9.33094  Tot: -0.00000 ]
LCAOMinimize: Iter:  25  F: -2089.8036762860956514  |grad|_K:  5.610e-04  alpha:  3.396e-02  linmin: -2.433e-03  cgtest:  4.612e-02  t[s]:   1087.70
	FillingsUpdate:  mu: +0.037719874  nElectrons: 359.000000  magneticMoment: [ Abs: 9.90034  Tot: -0.00000 ]
LCAOMinimize: Iter:  26  F: -2089.8146184917741266  |grad|_K:  6.812e-04  alpha:  6.815e-02  linmin: -4.898e-04  cgtest:  3.366e-02  t[s]:   1124.44
	FillingsUpdate:  mu: +0.031608200  nElectrons: 359.000000  magneticMoment: [ Abs: 10.70856  Tot: +0.00000 ]
LCAOMinimize: Iter:  27  F: -2089.8371300604667340  |grad|_K:  6.669e-04  alpha:  1.007e-01  linmin:  9.325e-04  cgtest:  8.226e-02  t[s]:   1161.41
	FillingsUpdate:  mu: +0.033681467  nElectrons: 359.000000  magneticMoment: [ Abs: 11.40969  Tot: +0.00000 ]
LCAOMinimize: Iter:  28  F: -2089.8587851816232615  |grad|_K:  6.010e-04  alpha:  1.070e-01  linmin: -2.413e-03  cgtest:  4.801e-01  t[s]:   1196.51
	FillingsUpdate:  mu: +0.039606844  nElectrons: 359.000000  magneticMoment: [ Abs: 11.69279  Tot: +0.00000 ]
LCAOMinimize: Iter:  29  F: -2089.8686168249791990  |grad|_K:  4.937e-04  alpha:  5.401e-02  linmin: -4.634e-04  cgtest: -1.078e-02  t[s]:   1233.48
	FillingsUpdate:  mu: +0.041021327  nElectrons: 359.000000  magneticMoment: [ Abs: 11.95925  Tot: +0.00000 ]
LCAOMinimize: Iter:  30  F: -2089.8752136157804671  |grad|_K:  3.020e-04  alpha:  5.592e-02  linmin: -3.383e-03  cgtest:  1.176e-01  t[s]:   1270.34
LCAOMinimize: None of the convergence criteria satisfied after 30 iterations.


---- Citations for features of the code used in this run ----

   Software package:
      R. Sundararaman, K. Letchworth-Weaver, K.A. Schwarz, D. Gunceler, Y. Ozhabes and T.A. Arias, 'JDFTx: software for joint density-functional theory', SoftwareX 6, 278 (2017)

   Simplified rotationally-invariant DFT+U:
      S. L. Dudarev et al., Phys. Rev. B 57, 1505 (1998)

   LibXC library of exchange-correlation functions:
      M. A. L. Marques, M. J. T. Oliveira and T. Burnus, Comput. Phys. Commun. 183, 2272 (2012)

   Hammer, Hansen, and Norskov exchange functional:
      B. Hammer, L. B. Hansen, and J. K. Nørskov, Phys. Rev. B 59, 7413 (1999)

   Perdew, Burke & Ernzerhof correlation functional:
      J. P. Perdew, K. Burke, and M. Ernzerhof, Phys. Rev. Lett. 77, 3865 (1996)

   Pseudopotentials:
      M Schlipf and F Gygi, Comput. Phys. Commun. 196, 36 (2015)

   Total energy minimization with Auxiliary Hamiltonian:
      C. Freysoldt, S. Boeck, and J. Neugebauer, Phys. Rev. B 79, 241103(R) (2009)

This list may not be complete. Please suggest additional citations or
report any other bugs at https://github.com/shankar1729/jdftx/issues

Initialization completed successfully at t[s]:   1282.66


-------- Electronic minimization -----------
	FillingsUpdate:  mu: +0.041021327  nElectrons: 359.000000  magneticMoment: [ Abs: 11.95925  Tot: +0.00000 ]
ElecMinimize: Iter:   0  F: -2089.875213615780467  |grad|_K:  1.127e-03  alpha:  1.000e+00
	FillingsUpdate:  mu: +0.351843954  nElectrons: 359.000000  magneticMoment: [ Abs: 12.59138  Tot: +0.00000 ]
	SubspaceRotationAdjust: set factor to 1
ElecMinimize: Iter:   1  F: -2148.479918496151640  |grad|_K:  1.311e-03  alpha:  4.797e-01  linmin:  9.473e-03  t[s]:   1402.21
	FillingsUpdate:  mu: +0.441153883  nElectrons: 359.000000  magneticMoment: [ Abs: 13.17335  Tot: -0.00000 ]
	SubspaceRotationAdjust: set factor to 1.02
ElecMinimize: Iter:   2  F: -2156.063274168586759  |grad|_K:  8.892e-04  alpha:  2.008e-01  linmin:  2.093e-03  t[s]:   1482.19
	FillingsUpdate:  mu: +0.891381410  nElectrons: 359.000000  magneticMoment: [ Abs: 13.77686  Tot: -0.00000 ]
	SubspaceRotationAdjust: set factor to 0.63
ElecMinimize: Iter:   3  F: -2164.695618010898215  |grad|_K:  1.369e-03  alpha:  7.692e-02  linmin: -8.659e-04  t[s]:   1563.10
	FillingsUpdate:  mu: +0.646816450  nElectrons: 359.000000  magneticMoment: [ Abs: 14.16029  Tot: -0.00000 ]
	SubspaceRotationAdjust: set factor to 0.578
ElecMinimize: Iter:   4  F: -2171.205022905006899  |grad|_K:  7.970e-04  alpha:  9.212e-03  linmin: -4.618e-03  t[s]:   1643.75
	FillingsUpdate:  mu: +0.549452720  nElectrons: 359.000000  magneticMoment: [ Abs: 14.99204  Tot: +0.00000 ]
	SubspaceRotationAdjust: set factor to 0.37
ElecMinimize: Iter:   5  F: -2174.947496322931784  |grad|_K:  1.024e-03  alpha:  2.304e-02  linmin:  2.006e-03  t[s]:   1724.40
	FillingsUpdate:  mu: +0.915602527  nElectrons: 359.000000  magneticMoment: [ Abs: 15.83404  Tot: -0.00000 ]
	SubspaceRotationAdjust: set factor to 0.245
ElecMinimize: Iter:   6  F: -2176.442449148617470  |grad|_K:  8.885e-04  alpha:  1.282e-02  linmin: -6.048e-04  t[s]:   1804.24
ElecMinimize: 	Predicted alpha/alphaT>3.000000, increasing alphaT to 3.846854e-02.
	FillingsUpdate:  mu: +0.929782871  nElectrons: 359.000000  magneticMoment: [ Abs: 17.58434  Tot: +0.00000 ]
	SubspaceRotationAdjust: set factor to 0.164
ElecMinimize: Iter:   7  F: -2180.228940549476192  |grad|_K:  7.996e-04  alpha:  1.443e-02  linmin: -3.056e-03  t[s]:   1906.65
	FillingsUpdate:  mu: +0.387377880  nElectrons: 359.000000  magneticMoment: [ Abs: 18.54077  Tot: +0.00000 ]
	SubspaceRotationAdjust: set factor to 0.177
ElecMinimize: Iter:   8  F: -2183.128151731242724  |grad|_K:  5.213e-04  alpha:  1.436e-02  linmin:  3.557e-03  t[s]:   1986.95
	FillingsUpdate:  mu: +0.379979907  nElectrons: 359.000000  magneticMoment: [ Abs: 18.54061  Tot: -0.00000 ]
	SubspaceRotationAdjust: set factor to 0.182
ElecMinimize: Iter:   9  F: -2183.129989055689748  |grad|_K:  5.318e-04  alpha:  6.932e-04  linmin:  3.775e-05  t[s]:   2068.11
ElecMinimize: 	Predicted alpha/alphaT>3.000000, increasing alphaT to 2.079659e-03.
ElecMinimize: 	Predicted alpha/alphaT>3.000000, increasing alphaT to 6.238977e-03.
	FillingsUpdate:  mu: +0.387356457  nElectrons: 359.000000  magneticMoment: [ Abs: 18.53195  Tot: -0.00000 ]
	SubspaceRotationAdjust: set factor to 0.161
ElecMinimize: Iter:  10  F: -2183.609200951922048  |grad|_K:  5.403e-04  alpha:  9.612e-03  linmin: -8.948e-05  t[s]:   2192.78
	FillingsUpdate:  mu: +0.402530901  nElectrons: 359.000000  magneticMoment: [ Abs: 18.50272  Tot: +0.00000 ]
	SubspaceRotationAdjust: set factor to 0.128
	SubspaceRotationAdjust: resetting CG because factor has changed by 0.128241
ElecMinimize: 	State modified externally: resetting search direction.
ElecMinimize: Iter:  11  F: -2184.042539790579212  |grad|_K:  4.981e-04  alpha:  8.175e-03
ElecMinimize: 	Predicted alpha/alphaT>3.000000, increasing alphaT to 2.452599e-02.
ElecMinimize: 	Predicted alpha/alphaT>3.000000, increasing alphaT to 7.357798e-02.
	FillingsUpdate:  mu: +0.497029020  nElectrons: 359.000000  magneticMoment: [ Abs: 18.01221  Tot: -0.00000 ]
	SubspaceRotationAdjust: set factor to 0.0786
ElecMinimize: Iter:  12  F: -2190.601264104411712  |grad|_K:  3.304e-04  alpha:  1.573e-01  linmin:  7.160e-03  t[s]:   2435.24
	FillingsUpdate:  mu: +0.265607514  nElectrons: 359.000000  magneticMoment: [ Abs: 18.38653  Tot: -0.00000 ]
	SubspaceRotationAdjust: set factor to 0.0847
ElecMinimize: Iter:  13  F: -2192.579948487306865  |grad|_K:  1.371e-04  alpha:  1.141e-01  linmin: -1.719e-03  t[s]:   2514.17
	FillingsUpdate:  mu: +0.233118500  nElectrons: 359.000000  magneticMoment: [ Abs: 18.32330  Tot: -0.00000 ]
	SubspaceRotationAdjust: set factor to 0.0591
ElecMinimize: Iter:  14  F: -2193.480177713842295  |grad|_K:  1.329e-04  alpha:  2.656e-01  linmin: -3.074e-04  t[s]:   2593.17
	FillingsUpdate:  mu: +0.121895722  nElectrons: 359.000000  magneticMoment: [ Abs: 17.90339  Tot: -0.00000 ]
	SubspaceRotationAdjust: set factor to 0.059
ElecMinimize: Iter:  15  F: -2193.944436421737009  |grad|_K:  7.774e-05  alpha:  1.412e-01  linmin: -5.407e-04  t[s]:   2674.43
	FillingsUpdate:  mu: +0.155508134  nElectrons: 359.000000  magneticMoment: [ Abs: 17.59151  Tot: -0.00000 ]
	SubspaceRotationAdjust: set factor to 0.0485
ElecMinimize: Iter:  16  F: -2194.256360928751292  |grad|_K:  7.798e-05  alpha:  2.788e-01  linmin: -1.838e-04  t[s]:   2756.05
	FillingsUpdate:  mu: +0.094088404  nElectrons: 359.000000  magneticMoment: [ Abs: 17.59503  Tot: -0.00000 ]
	SubspaceRotationAdjust: set factor to 0.052
ElecMinimize: Iter:  17  F: -2194.489286755962439  |grad|_K:  5.968e-05  alpha:  2.176e-01  linmin: -1.021e-04  t[s]:   2836.72
	FillingsUpdate:  mu: +0.117513612  nElectrons: 359.000000  magneticMoment: [ Abs: 17.59687  Tot: -0.00000 ]
	SubspaceRotationAdjust: set factor to 0.0583
ElecMinimize: Iter:  18  F: -2194.645524536514131  |grad|_K:  4.810e-05  alpha:  2.459e-01  linmin: -5.184e-05  t[s]:   2917.77
	FillingsUpdate:  mu: +0.092910446  nElectrons: 359.000000  magneticMoment: [ Abs: 17.64587  Tot: +0.00000 ]
	SubspaceRotationAdjust: set factor to 0.0649
ElecMinimize: Iter:  19  F: -2194.763211637416589  |grad|_K:  4.560e-05  alpha:  2.866e-01  linmin: -7.767e-05  t[s]:   2997.43
	FillingsUpdate:  mu: +0.101200707  nElectrons: 359.000000  magneticMoment: [ Abs: 17.80017  Tot: -0.00000 ]
	SubspaceRotationAdjust: set factor to 0.0731
ElecMinimize: Iter:  20  F: -2194.872128735790284  |grad|_K:  4.227e-05  alpha:  2.926e-01  linmin: -1.277e-04  t[s]:   3077.61
	FillingsUpdate:  mu: +0.098884046  nElectrons: 359.000000  magneticMoment: [ Abs: 18.01116  Tot: -0.00000 ]
	SubspaceRotationAdjust: set factor to 0.086
ElecMinimize: Iter:  21  F: -2194.958907663530226  |grad|_K:  3.772e-05  alpha:  2.674e-01  linmin: -1.632e-04  t[s]:   3156.79
	FillingsUpdate:  mu: +0.115082098  nElectrons: 359.000000  magneticMoment: [ Abs: 18.35256  Tot: -0.00000 ]
	SubspaceRotationAdjust: set factor to 0.0991
ElecMinimize: Iter:  22  F: -2195.044145851307803  |grad|_K:  3.782e-05  alpha:  3.175e-01  linmin: -1.219e-04  t[s]:   3234.70
	FillingsUpdate:  mu: +0.114942414  nElectrons: 359.000000  magneticMoment: [ Abs: 18.93955  Tot: -0.00000 ]
	SubspaceRotationAdjust: set factor to 0.106
ElecMinimize: Iter:  23  F: -2195.140658408606669  |grad|_K:  4.346e-05  alpha:  3.614e-01  linmin: -5.378e-05  t[s]:   3313.07
	FillingsUpdate:  mu: +0.114602653  nElectrons: 359.000000  magneticMoment: [ Abs: 19.96068  Tot: -0.00000 ]
	SubspaceRotationAdjust: set factor to 0.117
ElecMinimize: Iter:  24  F: -2195.284539958187906  |grad|_K:  5.144e-05  alpha:  4.177e-01  linmin: -1.664e-05  t[s]:   3393.21
	FillingsUpdate:  mu: +0.124986246  nElectrons: 359.000000  magneticMoment: [ Abs: 20.82654  Tot: +0.00000 ]
	SubspaceRotationAdjust: set factor to 0.128
ElecMinimize: Iter:  25  F: -2195.432908616717668  |grad|_K:  5.532e-05  alpha:  3.119e-01  linmin: -4.406e-05  t[s]:   3470.54
	FillingsUpdate:  mu: +0.117451252  nElectrons: 359.000000  magneticMoment: [ Abs: 21.21664  Tot: -0.00000 ]
	SubspaceRotationAdjust: set factor to 0.151
ElecMinimize: Iter:  26  F: -2195.513846707556240  |grad|_K:  4.852e-05  alpha:  1.038e-01  linmin: -4.197e-04  t[s]:   3548.88
	FillingsUpdate:  mu: +0.114736131  nElectrons: 359.000000  magneticMoment: [ Abs: 21.82319  Tot: -0.00000 ]
	SubspaceRotationAdjust: set factor to 0.158
ElecMinimize: Iter:  27  F: -2195.618914482082801  |grad|_K:  5.735e-05  alpha:  1.836e-01  linmin:  3.168e-04  t[s]:   3627.87
ElecMinimize: 	Step increased F by 6.769030e-05, reducing alpha to 1.211161e-04.
ElecMinimize: 	Step increased F by 8.754957e-04, reducing alpha to 1.211161e-05.
ElecMinimize: 	Step increased F by 9.579121e-04, reducing alpha to 1.211161e-06.
ElecMinimize: 	Step failed to reduce F after 3 attempts. Quitting step.
ElecMinimize: 	Undoing step.
ElecMinimize: 	Step failed: resetting search direction.
	FillingsUpdate:  mu: +0.114506512  nElectrons: 359.000000  magneticMoment: [ Abs: 21.82200  Tot: +0.00000 ]
	SubspaceRotationAdjust: set factor to 0.173
ElecMinimize: Iter:  28  F: -2195.617955652818637  |grad|_K:  5.793e-05  alpha:  1.211e-06
	FillingsUpdate:  mu: +0.123604220  nElectrons: 359.000000  magneticMoment: [ Abs: 21.61348  Tot: +0.00000 ]
	SubspaceRotationAdjust: set factor to 0.12
ElecMinimize: Iter:  29  F: -2195.707598540478102  |grad|_K:  4.278e-05  alpha:  1.520e-01  linmin:  4.841e-04  t[s]:   3936.63
	FillingsUpdate:  mu: +0.111689563  nElectrons: 359.000000  magneticMoment: [ Abs: 21.45636  Tot: -0.00000 ]
	SubspaceRotationAdjust: set factor to 0.0833
ElecMinimize: Iter:  30  F: -2195.760200063571574  |grad|_K:  3.104e-05  alpha:  1.644e-01  linmin: -2.346e-03  t[s]:   4015.41
	FillingsUpdate:  mu: +0.119435148  nElectrons: 359.000000  magneticMoment: [ Abs: 21.67225  Tot: +0.00000 ]
	SubspaceRotationAdjust: set factor to 0.0967
ElecMinimize: Iter:  31  F: -2195.836360718198648  |grad|_K:  2.395e-05  alpha:  4.408e-01  linmin:  6.457e-04  t[s]:   4094.14
	FillingsUpdate:  mu: +0.117585505  nElectrons: 359.000000  magneticMoment: [ Abs: 21.95406  Tot: +0.00000 ]
	SubspaceRotationAdjust: set factor to 0.109
ElecMinimize: Iter:  32  F: -2195.874585921763355  |grad|_K:  1.919e-05  alpha:  3.844e-01  linmin:  2.628e-04  t[s]:   4172.36
	FillingsUpdate:  mu: +0.101647749  nElectrons: 359.000000  magneticMoment: [ Abs: 22.22639  Tot: +0.00000 ]
	SubspaceRotationAdjust: set factor to 0.0943
ElecMinimize: Iter:  33  F: -2195.893353398171257  |grad|_K:  1.689e-05  alpha:  2.931e-01  linmin:  9.081e-06  t[s]:   4250.86
	FillingsUpdate:  mu: +0.102447325  nElectrons: 359.000000  magneticMoment: [ Abs: 22.52733  Tot: +0.00000 ]
	SubspaceRotationAdjust: set factor to 0.0763
ElecMinimize: Iter:  34  F: -2195.907803275556489  |grad|_K:  1.393e-05  alpha:  2.896e-01  linmin:  1.341e-04  t[s]:   4329.46
	FillingsUpdate:  mu: +0.103599832  nElectrons: 359.000000  magneticMoment: [ Abs: 22.86081  Tot: -0.00000 ]
	SubspaceRotationAdjust: set factor to 0.0766
ElecMinimize: Iter:  35  F: -2195.920952994974414  |grad|_K:  1.266e-05  alpha:  3.914e-01  linmin:  3.623e-04  t[s]:   4410.69
	FillingsUpdate:  mu: +0.101805054  nElectrons: 359.000000  magneticMoment: [ Abs: 23.14847  Tot: -0.00000 ]
	SubspaceRotationAdjust: set factor to 0.0906
ElecMinimize: Iter:  36  F: -2195.930318369382348  |grad|_K:  1.006e-05  alpha:  3.402e-01  linmin:  3.232e-05  t[s]:   4491.38
	FillingsUpdate:  mu: +0.103126065  nElectrons: 359.000000  magneticMoment: [ Abs: 23.45258  Tot: +0.00000 ]
	SubspaceRotationAdjust: set factor to 0.1
ElecMinimize: Iter:  37  F: -2195.937563496791881  |grad|_K:  9.800e-06  alpha:  4.111e-01  linmin:  1.595e-04  t[s]:   4569.51
	FillingsUpdate:  mu: +0.104866130  nElectrons: 359.000000  magneticMoment: [ Abs: 23.78367  Tot: -0.00000 ]
	SubspaceRotationAdjust: set factor to 0.0983
ElecMinimize: Iter:  38  F: -2195.943597854039126  |grad|_K:  9.864e-06  alpha:  3.658e-01  linmin: -4.414e-04  t[s]:   4648.06
	FillingsUpdate:  mu: +0.107510621  nElectrons: 359.000000  magneticMoment: [ Abs: 24.10792  Tot: -0.00000 ]
	SubspaceRotationAdjust: set factor to 0.0861
ElecMinimize: Iter:  39  F: -2195.948934097633810  |grad|_K:  1.023e-05  alpha:  2.960e-01  linmin:  4.337e-04  t[s]:   4728.23
	FillingsUpdate:  mu: +0.111287291  nElectrons: 359.000000  magneticMoment: [ Abs: 24.60309  Tot: -0.00000 ]
	SubspaceRotationAdjust: set factor to 0.117
ElecMinimize: Iter:  40  F: -2195.955189926922685  |grad|_K:  1.107e-05  alpha:  3.554e-01  linmin:  4.000e-04  t[s]:   4807.72
	FillingsUpdate:  mu: +0.112622045  nElectrons: 359.000000  magneticMoment: [ Abs: 25.06002  Tot: +0.00000 ]
	SubspaceRotationAdjust: set factor to 0.138
ElecMinimize: Iter:  41  F: -2195.960206777418534  |grad|_K:  1.126e-05  alpha:  2.322e-01  linmin: -1.913e-04  t[s]:   4887.06
	FillingsUpdate:  mu: +0.112371961  nElectrons: 359.000000  magneticMoment: [ Abs: 25.56025  Tot: +0.00000 ]
	SubspaceRotationAdjust: set factor to 0.146
ElecMinimize: Iter:  42  F: -2195.965182856321917  |grad|_K:  1.213e-05  alpha:  2.205e-01  linmin: -6.474e-05  t[s]:   4966.47
	FillingsUpdate:  mu: +0.107550410  nElectrons: 359.000000  magneticMoment: [ Abs: 26.06871  Tot: -0.00000 ]
	SubspaceRotationAdjust: set factor to 0.184
ElecMinimize: Iter:  43  F: -2195.970461755664473  |grad|_K:  1.178e-05  alpha:  2.048e-01  linmin: -2.167e-04  t[s]:   5044.50
	FillingsUpdate:  mu: +0.102700690  nElectrons: 359.000000  magneticMoment: [ Abs: 26.51386  Tot: -0.00000 ]
	SubspaceRotationAdjust: set factor to 0.23
ElecMinimize: Iter:  44  F: -2195.975539263575683  |grad|_K:  1.147e-05  alpha:  2.040e-01  linmin: -7.313e-05  t[s]:   5124.34
	FillingsUpdate:  mu: +0.103440144  nElectrons: 359.000000  magneticMoment: [ Abs: 27.01370  Tot: -0.00000 ]
	SubspaceRotationAdjust: set factor to 0.274
ElecMinimize: Iter:  45  F: -2195.980337965279887  |grad|_K:  1.211e-05  alpha:  2.067e-01  linmin:  2.043e-05  t[s]:   5202.67
	FillingsUpdate:  mu: +0.105182547  nElectrons: 359.000000  magneticMoment: [ Abs: 27.70190  Tot: -0.00000 ]
	SubspaceRotationAdjust: set factor to 0.334
ElecMinimize: Iter:  46  F: -2195.985816079995402  |grad|_K:  1.455e-05  alpha:  2.145e-01  linmin:  9.470e-05  t[s]:   5281.65
	FillingsUpdate:  mu: +0.105175302  nElectrons: 359.000000  magneticMoment: [ Abs: 28.43108  Tot: +0.00000 ]
	SubspaceRotationAdjust: set factor to 0.336
ElecMinimize: Iter:  47  F: -2195.992209340460249  |grad|_K:  1.830e-05  alpha:  1.448e-01  linmin: -6.183e-04  t[s]:   5362.27
	FillingsUpdate:  mu: +0.104535049  nElectrons: 359.000000  magneticMoment: [ Abs: 28.59573  Tot: +0.00000 ]
	SubspaceRotationAdjust: set factor to 0.322
ElecMinimize: Iter:  48  F: -2195.994347434098472  |grad|_K:  1.908e-05  alpha:  1.827e-02  linmin: -4.873e-03  t[s]:   5441.27
ElecMinimize: 	Predicted alpha/alphaT>3.000000, increasing alphaT to 5.480393e-02.
	FillingsUpdate:  mu: +0.099020812  nElectrons: 359.000000  magneticMoment: [ Abs: 29.11300  Tot: +0.00000 ]
	SubspaceRotationAdjust: set factor to 0.235
ElecMinimize: Iter:  49  F: -2196.000635064609924  |grad|_K:  2.505e-05  alpha:  4.511e-02  linmin:  1.895e-03  t[s]:   5542.67
	FillingsUpdate:  mu: +0.098239678  nElectrons: 359.000000  magneticMoment: [ Abs: 29.19141  Tot: +0.00000 ]
	SubspaceRotationAdjust: set factor to 0.182
ElecMinimize: Iter:  50  F: -2196.000912451145268  |grad|_K:  2.411e-05  alpha:  3.439e-03  linmin: -3.960e-04  t[s]:   5623.17
	FillingsUpdate:  mu: +0.098294811  nElectrons: 359.000000  magneticMoment: [ Abs: 29.35813  Tot: +0.00000 ]
	SubspaceRotationAdjust: set factor to 0.145
ElecMinimize: Iter:  51  F: -2196.001679931204308  |grad|_K:  2.472e-05  alpha:  7.348e-03  linmin:  4.640e-04  t[s]:   5702.28
	FillingsUpdate:  mu: +0.100421273  nElectrons: 359.000000  magneticMoment: [ Abs: 29.49571  Tot: -0.00000 ]
	SubspaceRotationAdjust: set factor to 0.119
ElecMinimize: Iter:  52  F: -2196.002216189267983  |grad|_K:  2.463e-05  alpha:  5.477e-03  linmin:  1.693e-05  t[s]:   5780.77
	FillingsUpdate:  mu: +0.101287421  nElectrons: 359.000000  magneticMoment: [ Abs: 29.66386  Tot: +0.00000 ]
	SubspaceRotationAdjust: set factor to 0.103
ElecMinimize: Iter:  53  F: -2196.002910021507432  |grad|_K:  2.474e-05  alpha:  6.544e-03  linmin: -5.791e-05  t[s]:   5859.19
	FillingsUpdate:  mu: +0.097134086  nElectrons: 359.000000  magneticMoment: [ Abs: 29.86864  Tot: -0.00000 ]
	SubspaceRotationAdjust: set factor to 0.0917
ElecMinimize: Iter:  54  F: -2196.003768114253035  |grad|_K:  2.487e-05  alpha:  7.829e-03  linmin: -2.534e-04  t[s]:   5937.86
	FillingsUpdate:  mu: +0.092302087  nElectrons: 359.000000  magneticMoment: [ Abs: 30.16353  Tot: -0.00000 ]
	SubspaceRotationAdjust: set factor to 0.0873
ElecMinimize: Iter:  55  F: -2196.005140693883732  |grad|_K:  2.489e-05  alpha:  1.138e-02  linmin: -7.886e-04  t[s]:   6016.06
	FillingsUpdate:  mu: +0.087215839  nElectrons: 359.000000  magneticMoment: [ Abs: 30.74984  Tot: -0.00000 ]
	SubspaceRotationAdjust: set factor to 0.103
ElecMinimize: Iter:  56  F: -2196.008802421428300  |grad|_K:  2.418e-05  alpha:  2.502e-02  linmin: -1.352e-03  t[s]:   6092.97
	FillingsUpdate:  mu: +0.087217910  nElectrons: 359.000000  magneticMoment: [ Abs: 31.34141  Tot: +0.00000 ]
	SubspaceRotationAdjust: set factor to 0.133
ElecMinimize: Iter:  57  F: -2196.012989707208362  |grad|_K:  2.505e-05  alpha:  3.252e-02  linmin:  4.250e-04  t[s]:   6170.95
	FillingsUpdate:  mu: +0.091490183  nElectrons: 359.000000  magneticMoment: [ Abs: 31.61470  Tot: -0.00000 ]
	SubspaceRotationAdjust: set factor to 0.174
ElecMinimize: Iter:  58  F: -2196.014622616556608  |grad|_K:  2.680e-05  alpha:  1.608e-02  linmin: -7.098e-05  t[s]:   6248.57
	FillingsUpdate:  mu: +0.096333475  nElectrons: 359.000000  magneticMoment: [ Abs: 31.89068  Tot: +0.00000 ]
	SubspaceRotationAdjust: set factor to 0.206
ElecMinimize: Iter:  59  F: -2196.016576673227519  |grad|_K:  2.884e-05  alpha:  1.526e-02  linmin:  3.572e-05  t[s]:   6327.82
	FillingsUpdate:  mu: +0.096430672  nElectrons: 359.000000  magneticMoment: [ Abs: 32.13221  Tot: -0.00000 ]
	SubspaceRotationAdjust: set factor to 0.225
ElecMinimize: Iter:  60  F: -2196.018338277692237  |grad|_K:  3.040e-05  alpha:  1.219e-02  linmin:  3.716e-06  t[s]:   6405.01
	FillingsUpdate:  mu: +0.101481966  nElectrons: 359.000000  magneticMoment: [ Abs: 32.36182  Tot: -0.00000 ]
	SubspaceRotationAdjust: set factor to 0.241
ElecMinimize: Iter:  61  F: -2196.020102550840420  |grad|_K:  3.104e-05  alpha:  1.093e-02  linmin: -6.530e-06  t[s]:   6484.05
	FillingsUpdate:  mu: +0.104269269  nElectrons: 359.000000  magneticMoment: [ Abs: 32.57883  Tot: +0.00000 ]
	SubspaceRotationAdjust: set factor to 0.271
ElecMinimize: Iter:  62  F: -2196.021853252683286  |grad|_K:  3.070e-05  alpha:  1.038e-02  linmin: -1.991e-05  t[s]:   6562.57
	FillingsUpdate:  mu: +0.105139082  nElectrons: 359.000000  magneticMoment: [ Abs: 32.77576  Tot: -0.00000 ]
	SubspaceRotationAdjust: set factor to 0.342
ElecMinimize: Iter:  63  F: -2196.023522970445811  |grad|_K:  2.962e-05  alpha:  1.007e-02  linmin: -1.883e-05  t[s]:   6642.34
	FillingsUpdate:  mu: +0.106808921  nElectrons: 359.000000  magneticMoment: [ Abs: 32.94279  Tot: +0.00000 ]
	SubspaceRotationAdjust: set factor to 0.467
ElecMinimize: Iter:  64  F: -2196.024994599326419  |grad|_K:  2.852e-05  alpha:  9.538e-03  linmin: -7.173e-06  t[s]:   6720.93
	FillingsUpdate:  mu: +0.108582885  nElectrons: 359.000000  magneticMoment: [ Abs: 33.08120  Tot: +0.00000 ]
	SubspaceRotationAdjust: set factor to 0.597
ElecMinimize: Iter:  65  F: -2196.026243225385315  |grad|_K:  2.811e-05  alpha:  8.762e-03  linmin: -4.963e-06  t[s]:   6799.26
	FillingsUpdate:  mu: +0.110544949  nElectrons: 359.000000  magneticMoment: [ Abs: 33.20864  Tot: +0.00000 ]
	SubspaceRotationAdjust: set factor to 0.754
ElecMinimize: Iter:  66  F: -2196.027404436831148  |grad|_K:  2.926e-05  alpha:  8.392e-03  linmin: -1.298e-05  t[s]:   6877.10
	FillingsUpdate:  mu: +0.112157105  nElectrons: 359.000000  magneticMoment: [ Abs: 33.35029  Tot: +0.00000 ]
	SubspaceRotationAdjust: set factor to 0.818
ElecMinimize: Iter:  67  F: -2196.028686672645563  |grad|_K:  3.231e-05  alpha:  8.523e-03  linmin: -2.049e-05  t[s]:   6955.57
	FillingsUpdate:  mu: +0.113465726  nElectrons: 359.000000  magneticMoment: [ Abs: 33.51353  Tot: -0.00000 ]
	SubspaceRotationAdjust: set factor to 0.888
ElecMinimize: Iter:  68  F: -2196.030116809185984  |grad|_K:  3.276e-05  alpha:  7.779e-03  linmin: -2.911e-06  t[s]:   7034.30
	FillingsUpdate:  mu: +0.115041402  nElectrons: 359.000000  magneticMoment: [ Abs: 33.66597  Tot: -0.00000 ]
	SubspaceRotationAdjust: set factor to 1.22
	SubspaceRotationAdjust: resetting CG because factor has changed by 9.54713
ElecMinimize: 	State modified externally: resetting search direction.
ElecMinimize: Iter:  69  F: -2196.031366145058655  |grad|_K:  3.261e-05  alpha:  6.637e-03
ElecMinimize: 	Predicted alpha/alphaT>3.000000, increasing alphaT to 1.990965e-02.
	FillingsUpdate:  mu: +0.121024005  nElectrons: 359.000000  magneticMoment: [ Abs: 33.80869  Tot: -0.00000 ]
	SubspaceRotationAdjust: set factor to 0.706
ElecMinimize: Iter:  70  F: -2196.041949461494823  |grad|_K:  5.670e-05  alpha:  5.788e-02  linmin:  4.910e-04  t[s]:   7251.72
	FillingsUpdate:  mu: +0.111145346  nElectrons: 359.000000  magneticMoment: [ Abs: 33.91162  Tot: -0.00000 ]
	SubspaceRotationAdjust: set factor to 0.442
ElecMinimize: Iter:  71  F: -2196.069197671258280  |grad|_K:  3.456e-05  alpha:  5.064e-02  linmin: -8.705e-04  t[s]:   7329.70
	FillingsUpdate:  mu: +0.104218373  nElectrons: 359.000000  magneticMoment: [ Abs: 33.84195  Tot: +0.00000 ]
	SubspaceRotationAdjust: set factor to 0.268
ElecMinimize: Iter:  72  F: -2196.089728347618802  |grad|_K:  2.944e-05  alpha:  9.293e-02  linmin: -4.553e-04  t[s]:   7407.68
	FillingsUpdate:  mu: +0.098570840  nElectrons: 359.000000  magneticMoment: [ Abs: 33.95476  Tot: -0.00000 ]
	SubspaceRotationAdjust: set factor to 0.247
ElecMinimize: Iter:  73  F: -2196.100301984786711  |grad|_K:  1.726e-05  alpha:  6.953e-02  linmin: -2.188e-04  t[s]:   7487.16
ElecMinimize: 	Predicted alpha/alphaT>3.000000, increasing alphaT to 2.085908e-01.
	FillingsUpdate:  mu: +0.104887124  nElectrons: 359.000000  magneticMoment: [ Abs: 34.19091  Tot: -0.00000 ]
	SubspaceRotationAdjust: set factor to 0.226
ElecMinimize: Iter:  74  F: -2196.112753365035132  |grad|_K:  1.437e-05  alpha:  2.351e-01  linmin: -1.654e-04  t[s]:   7589.07
	FillingsUpdate:  mu: +0.111214137  nElectrons: 359.000000  magneticMoment: [ Abs: 34.26140  Tot: -0.00000 ]
	SubspaceRotationAdjust: set factor to 0.172
ElecMinimize: Iter:  75  F: -2196.119253771107651  |grad|_K:  1.549e-05  alpha:  1.797e-01  linmin: -7.505e-05  t[s]:   7668.29
	FillingsUpdate:  mu: +0.105994836  nElectrons: 359.000000  magneticMoment: [ Abs: 34.38363  Tot: +0.00000 ]
	SubspaceRotationAdjust: set factor to 0.188
ElecMinimize: Iter:  76  F: -2196.126141890831150  |grad|_K:  1.039e-05  alpha:  1.631e-01  linmin: -1.612e-06  t[s]:   7748.64
	FillingsUpdate:  mu: +0.106381807  nElectrons: 359.000000  magneticMoment: [ Abs: 34.49372  Tot: -0.00000 ]
	SubspaceRotationAdjust: set factor to 0.176
ElecMinimize: Iter:  77  F: -2196.131467502135365  |grad|_K:  1.013e-05  alpha:  2.788e-01  linmin: -2.961e-04  t[s]:   7829.57
	FillingsUpdate:  mu: +0.107560946  nElectrons: 359.000000  magneticMoment: [ Abs: 34.54150  Tot: +0.00000 ]
	SubspaceRotationAdjust: set factor to 0.15
	SubspaceRotationAdjust: resetting CG because factor has changed by 0.12285
ElecMinimize: 	State modified externally: resetting search direction.
ElecMinimize: Iter:  78  F: -2196.134528724502161  |grad|_K:  7.961e-06  alpha:  1.661e-01
	FillingsUpdate:  mu: +0.108825162  nElectrons: 359.000000  magneticMoment: [ Abs: 34.59298  Tot: -0.00000 ]
	SubspaceRotationAdjust: set factor to 0.124
ElecMinimize: Iter:  79  F: -2196.136867954891841  |grad|_K:  5.295e-06  alpha:  2.107e-01  linmin: -5.871e-04  t[s]:   8026.16
	FillingsUpdate:  mu: +0.109212983  nElectrons: 359.000000  magneticMoment: [ Abs: 34.63169  Tot: -0.00000 ]
	SubspaceRotationAdjust: set factor to 0.119
ElecMinimize: Iter:  80  F: -2196.138454435140375  |grad|_K:  4.845e-06  alpha:  3.208e-01  linmin: -2.952e-04  t[s]:   8106.89
	FillingsUpdate:  mu: +0.107449419  nElectrons: 359.000000  magneticMoment: [ Abs: 34.72161  Tot: -0.00000 ]
	SubspaceRotationAdjust: set factor to 0.145
ElecMinimize: Iter:  81  F: -2196.140466149437998  |grad|_K:  4.657e-06  alpha:  4.834e-01  linmin: -2.738e-04  t[s]:   8186.18
	FillingsUpdate:  mu: +0.107897669  nElectrons: 359.000000  magneticMoment: [ Abs: 34.79088  Tot: -0.00000 ]
	SubspaceRotationAdjust: set factor to 0.163
ElecMinimize: Iter:  82  F: -2196.142337736826448  |grad|_K:  5.418e-06  alpha:  4.870e-01  linmin: -2.865e-05  t[s]:   8264.64
	FillingsUpdate:  mu: +0.105891356  nElectrons: 359.000000  magneticMoment: [ Abs: 34.85856  Tot: -0.00000 ]
	SubspaceRotationAdjust: set factor to 0.17
ElecMinimize: Iter:  83  F: -2196.144101280450741  |grad|_K:  4.808e-06  alpha:  3.446e-01  linmin: -2.202e-05  t[s]:   8343.48
	FillingsUpdate:  mu: +0.109186524  nElectrons: 359.000000  magneticMoment: [ Abs: 34.95548  Tot: +0.00000 ]
	SubspaceRotationAdjust: set factor to 0.166
ElecMinimize: Iter:  84  F: -2196.145530189599413  |grad|_K:  4.528e-06  alpha:  3.528e-01  linmin:  3.526e-06  t[s]:   8422.30
	FillingsUpdate:  mu: +0.108452256  nElectrons: 359.000000  magneticMoment: [ Abs: 35.00831  Tot: +0.00000 ]
	SubspaceRotationAdjust: set factor to 0.164
ElecMinimize: Iter:  85  F: -2196.146949225268600  |grad|_K:  4.574e-06  alpha:  3.944e-01  linmin: -2.096e-04  t[s]:   8501.27
	FillingsUpdate:  mu: +0.108107388  nElectrons: 359.000000  magneticMoment: [ Abs: 35.03056  Tot: -0.00000 ]
	SubspaceRotationAdjust: set factor to 0.172
ElecMinimize: Iter:  86  F: -2196.148192195117645  |grad|_K:  3.664e-06  alpha:  3.321e-01  linmin:  2.202e-05  t[s]:   8580.63
	FillingsUpdate:  mu: +0.106802960  nElectrons: 359.000000  magneticMoment: [ Abs: 35.03759  Tot: +0.00000 ]
	SubspaceRotationAdjust: set factor to 0.195
ElecMinimize: Iter:  87  F: -2196.149033656421580  |grad|_K:  2.849e-06  alpha:  3.589e-01  linmin: -8.532e-05  t[s]:   8660.66
	FillingsUpdate:  mu: +0.107189278  nElectrons: 359.000000  magneticMoment: [ Abs: 35.04097  Tot: -0.00000 ]
	SubspaceRotationAdjust: set factor to 0.219
ElecMinimize: Iter:  88  F: -2196.149564623223796  |grad|_K:  2.400e-06  alpha:  3.717e-01  linmin: -4.287e-05  t[s]:   8739.81
	FillingsUpdate:  mu: +0.107689614  nElectrons: 359.000000  magneticMoment: [ Abs: 35.04214  Tot: -0.00000 ]
	SubspaceRotationAdjust: set factor to 0.246
ElecMinimize: Iter:  89  F: -2196.149925323903517  |grad|_K:  2.137e-06  alpha:  3.572e-01  linmin:  1.647e-05  t[s]:   8819.26
	FillingsUpdate:  mu: +0.107986840  nElectrons: 359.000000  magneticMoment: [ Abs: 35.04975  Tot: +0.00000 ]
	SubspaceRotationAdjust: set factor to 0.255
ElecMinimize: Iter:  90  F: -2196.150240495452636  |grad|_K:  2.277e-06  alpha:  3.948e-01  linmin: -7.647e-05  t[s]:   8898.50
	FillingsUpdate:  mu: +0.109230212  nElectrons: 359.000000  magneticMoment: [ Abs: 35.06168  Tot: -0.00000 ]
	SubspaceRotationAdjust: set factor to 0.205
ElecMinimize: Iter:  91  F: -2196.150453794590248  |grad|_K:  2.522e-06  alpha:  2.312e-01  linmin: -5.568e-05  t[s]:   8977.18
	FillingsUpdate:  mu: +0.107488610  nElectrons: 359.000000  magneticMoment: [ Abs: 35.06594  Tot: -0.00000 ]
	SubspaceRotationAdjust: set factor to 0.18
ElecMinimize: Iter:  92  F: -2196.150720773430749  |grad|_K:  2.068e-06  alpha:  2.391e-01  linmin: -1.032e-05  t[s]:   9057.10
	FillingsUpdate:  mu: +0.107027118  nElectrons: 359.000000  magneticMoment: [ Abs: 35.07038  Tot: +0.00000 ]
	SubspaceRotationAdjust: set factor to 0.203
ElecMinimize: Iter:  93  F: -2196.151031838738163  |grad|_K:  2.110e-06  alpha:  4.164e-01  linmin:  5.441e-05  t[s]:   9136.55
	FillingsUpdate:  mu: +0.107720176  nElectrons: 359.000000  magneticMoment: [ Abs: 35.07609  Tot: +0.00000 ]
	SubspaceRotationAdjust: set factor to 0.219
ElecMinimize: Iter:  94  F: -2196.151338379889694  |grad|_K:  2.160e-06  alpha:  3.961e-01  linmin: -4.934e-06  t[s]:   9215.48
	FillingsUpdate:  mu: +0.107680158  nElectrons: 359.000000  magneticMoment: [ Abs: 35.07804  Tot: +0.00000 ]
	SubspaceRotationAdjust: set factor to 0.192
ElecMinimize: Iter:  95  F: -2196.151613917242230  |grad|_K:  2.603e-06  alpha:  3.378e-01  linmin: -1.997e-05  t[s]:   9294.38
	FillingsUpdate:  mu: +0.107588681  nElectrons: 359.000000  magneticMoment: [ Abs: 35.08215  Tot: -0.00000 ]
	SubspaceRotationAdjust: set factor to 0.155
ElecMinimize: Iter:  96  F: -2196.151891074397099  |grad|_K:  2.281e-06  alpha:  2.319e-01  linmin: -4.142e-06  t[s]:   9374.03
	FillingsUpdate:  mu: +0.106930840  nElectrons: 359.000000  magneticMoment: [ Abs: 35.08360  Tot: -0.00000 ]
	SubspaceRotationAdjust: set factor to 0.175
ElecMinimize: Iter:  97  F: -2196.152266209421214  |grad|_K:  2.262e-06  alpha:  4.139e-01  linmin:  9.599e-05  t[s]:   9453.65
	FillingsUpdate:  mu: +0.107235854  nElectrons: 359.000000  magneticMoment: [ Abs: 35.08906  Tot: -0.00000 ]
	SubspaceRotationAdjust: set factor to 0.195
ElecMinimize: Iter:  98  F: -2196.152601018597579  |grad|_K:  2.336e-06  alpha:  3.783e-01  linmin:  1.149e-05  t[s]:   9534.72
	FillingsUpdate:  mu: +0.108402773  nElectrons: 359.000000  magneticMoment: [ Abs: 35.10216  Tot: -0.00000 ]
	SubspaceRotationAdjust: set factor to 0.175
ElecMinimize: Iter:  99  F: -2196.152900745423267  |grad|_K:  2.579e-06  alpha:  3.135e-01  linmin:  4.417e-05  t[s]:   9614.96
	FillingsUpdate:  mu: +0.107827721  nElectrons: 359.000000  magneticMoment: [ Abs: 35.11157  Tot: -0.00000 ]
	SubspaceRotationAdjust: set factor to 0.15
ElecMinimize: Iter: 100  F: -2196.153227314580363  |grad|_K:  2.563e-06  alpha:  2.817e-01  linmin:  2.981e-05  t[s]:   9695.51
	FillingsUpdate:  mu: +0.107732683  nElectrons: 359.000000  magneticMoment: [ Abs: 35.12504  Tot: +0.00000 ]
	SubspaceRotationAdjust: set factor to 0.167
ElecMinimize: Iter: 101  F: -2196.153661539787208  |grad|_K:  2.595e-06  alpha:  3.815e-01  linmin:  1.715e-04  t[s]:   9775.70
	FillingsUpdate:  mu: +0.108544044  nElectrons: 359.000000  magneticMoment: [ Abs: 35.14145  Tot: +0.00000 ]
	SubspaceRotationAdjust: set factor to 0.191
ElecMinimize: Iter: 102  F: -2196.154143326858502  |grad|_K:  2.716e-06  alpha:  4.177e-01  linmin:  3.215e-05  t[s]:   9856.32
	FillingsUpdate:  mu: +0.107921992  nElectrons: 359.000000  magneticMoment: [ Abs: 35.14882  Tot: -0.00000 ]
	SubspaceRotationAdjust: set factor to 0.171
ElecMinimize: Iter: 103  F: -2196.154530720772073  |grad|_K:  3.217e-06  alpha:  2.980e-01  linmin:  7.801e-06  t[s]:   9936.07
	FillingsUpdate:  mu: +0.109358390  nElectrons: 359.000000  magneticMoment: [ Abs: 35.16226  Tot: +0.00000 ]
	SubspaceRotationAdjust: set factor to 0.149
ElecMinimize: Iter: 104  F: -2196.154939905361971  |grad|_K:  2.947e-06  alpha:  2.238e-01  linmin:  4.709e-05  t[s]:  10017.25
	FillingsUpdate:  mu: +0.109198543  nElectrons: 359.000000  magneticMoment: [ Abs: 35.15262  Tot: -0.00000 ]
	SubspaceRotationAdjust: set factor to 0.179
ElecMinimize: Iter: 105  F: -2196.155429653550073  |grad|_K:  2.752e-06  alpha:  3.295e-01  linmin:  2.790e-04  t[s]:  10097.47
	FillingsUpdate:  mu: +0.109080011  nElectrons: 359.000000  magneticMoment: [ Abs: 35.14915  Tot: +0.00000 ]
	SubspaceRotationAdjust: set factor to 0.216
ElecMinimize: Iter: 106  F: -2196.155830927394618  |grad|_K:  2.572e-06  alpha:  3.149e-01  linmin: -5.727e-05  t[s]:  10175.64
	FillingsUpdate:  mu: +0.110520399  nElectrons: 359.000000  magneticMoment: [ Abs: 35.15932  Tot: -0.00000 ]
	SubspaceRotationAdjust: set factor to 0.177
ElecMinimize: Iter: 107  F: -2196.156093123212031  |grad|_K:  2.879e-06  alpha:  2.215e-01  linmin:  2.675e-05  t[s]:  10255.53
	FillingsUpdate:  mu: +0.109519164  nElectrons: 359.000000  magneticMoment: [ Abs: 35.13886  Tot: +0.00000 ]
	SubspaceRotationAdjust: set factor to 0.199
ElecMinimize: Iter: 108  F: -2196.156354124873815  |grad|_K:  2.311e-06  alpha:  1.824e-01  linmin: -1.098e-04  t[s]:  10336.53
	FillingsUpdate:  mu: +0.109678183  nElectrons: 359.000000  magneticMoment: [ Abs: 35.12834  Tot: -0.00000 ]
	SubspaceRotationAdjust: set factor to 0.264
ElecMinimize: Iter: 109  F: -2196.156635352507692  |grad|_K:  2.074e-06  alpha:  2.944e-01  linmin: -1.803e-04  t[s]:  10416.34
	FillingsUpdate:  mu: +0.110539321  nElectrons: 359.000000  magneticMoment: [ Abs: 35.13381  Tot: +0.00000 ]
	SubspaceRotationAdjust: set factor to 0.201
ElecMinimize: Iter: 110  F: -2196.156849396607413  |grad|_K:  2.668e-06  alpha:  2.791e-01  linmin:  5.296e-05  t[s]:  10498.36
	FillingsUpdate:  mu: +0.109165946  nElectrons: 359.000000  magneticMoment: [ Abs: 35.11516  Tot: +0.00000 ]
	SubspaceRotationAdjust: set factor to 0.176
ElecMinimize: Iter: 111  F: -2196.157000240661091  |grad|_K:  2.146e-06  alpha:  1.241e-01  linmin:  7.890e-05  t[s]:  10579.20
	FillingsUpdate:  mu: +0.109229947  nElectrons: 359.000000  magneticMoment: [ Abs: 35.11717  Tot: -0.00000 ]
	SubspaceRotationAdjust: set factor to 0.246
ElecMinimize: Iter: 112  F: -2196.157219930167685  |grad|_K:  1.857e-06  alpha:  2.751e-01  linmin:  7.889e-07  t[s]:  10658.74
	FillingsUpdate:  mu: +0.110192668  nElectrons: 359.000000  magneticMoment: [ Abs: 35.13055  Tot: +0.00000 ]
	SubspaceRotationAdjust: set factor to 0.188
ElecMinimize: Iter: 113  F: -2196.157371937641528  |grad|_K:  2.342e-06  alpha:  2.518e-01  linmin:  2.888e-05  t[s]:  10740.19
	FillingsUpdate:  mu: +0.109202835  nElectrons: 359.000000  magneticMoment: [ Abs: 35.11857  Tot: -0.00000 ]
	SubspaceRotationAdjust: set factor to 0.17
ElecMinimize: Iter: 114  F: -2196.157494687879080  |grad|_K:  1.804e-06  alpha:  1.295e-01  linmin:  3.406e-05  t[s]:  10821.07
	FillingsUpdate:  mu: +0.109438429  nElectrons: 359.000000  magneticMoment: [ Abs: 35.12383  Tot: -0.00000 ]
	SubspaceRotationAdjust: set factor to 0.231
ElecMinimize: Iter: 115  F: -2196.157668264571839  |grad|_K:  1.708e-06  alpha:  3.051e-01  linmin: -5.243e-05  t[s]:  10900.77
	FillingsUpdate:  mu: +0.110426482  nElectrons: 359.000000  magneticMoment: [ Abs: 35.14133  Tot: +0.00000 ]
	SubspaceRotationAdjust: set factor to 0.187
ElecMinimize: Iter: 116  F: -2196.157786399515771  |grad|_K:  2.058e-06  alpha:  2.302e-01  linmin: -1.234e-06  t[s]:  10980.40
	FillingsUpdate:  mu: +0.109554671  nElectrons: 359.000000  magneticMoment: [ Abs: 35.13508  Tot: -0.00000 ]
	SubspaceRotationAdjust: set factor to 0.174
ElecMinimize: Iter: 117  F: -2196.157898260118145  |grad|_K:  1.618e-06  alpha:  1.510e-01  linmin: -5.428e-07  t[s]:  11059.55
	FillingsUpdate:  mu: +0.109458247  nElectrons: 359.000000  magneticMoment: [ Abs: 35.14493  Tot: -0.00000 ]
	SubspaceRotationAdjust: set factor to 0.227
ElecMinimize: Iter: 118  F: -2196.158049871399271  |grad|_K:  1.580e-06  alpha:  3.318e-01  linmin:  2.494e-05  t[s]:  11137.88
	FillingsUpdate:  mu: +0.110147085  nElectrons: 359.000000  magneticMoment: [ Abs: 35.16391  Tot: +0.00000 ]
	SubspaceRotationAdjust: set factor to 0.187
ElecMinimize: Iter: 119  F: -2196.158159930682359  |grad|_K:  1.892e-06  alpha:  2.531e-01  linmin: -9.982e-06  t[s]:  11217.12
	FillingsUpdate:  mu: +0.109199961  nElectrons: 359.000000  magneticMoment: [ Abs: 35.15994  Tot: +0.00000 ]
	SubspaceRotationAdjust: set factor to 0.167
ElecMinimize: Iter: 120  F: -2196.158252716270454  |grad|_K:  1.529e-06  alpha:  1.473e-01  linmin: -1.410e-05  t[s]:  11296.34
	FillingsUpdate:  mu: +0.109177587  nElectrons: 359.000000  magneticMoment: [ Abs: 35.17448  Tot: -0.00000 ]
	SubspaceRotationAdjust: set factor to 0.222
ElecMinimize: Iter: 121  F: -2196.158384064929123  |grad|_K:  1.466e-06  alpha:  3.207e-01  linmin: -1.244e-05  t[s]:  11374.09
	FillingsUpdate:  mu: +0.109750342  nElectrons: 359.000000  magneticMoment: [ Abs: 35.19504  Tot: +0.00000 ]
	SubspaceRotationAdjust: set factor to 0.187
ElecMinimize: Iter: 122  F: -2196.158483618466107  |grad|_K:  1.735e-06  alpha:  2.647e-01  linmin: -6.325e-06  t[s]:  11450.75
	FillingsUpdate:  mu: +0.108933174  nElectrons: 359.000000  magneticMoment: [ Abs: 35.19378  Tot: +0.00000 ]
	SubspaceRotationAdjust: set factor to 0.168
ElecMinimize: Iter: 123  F: -2196.158563720196526  |grad|_K:  1.484e-06  alpha:  1.520e-01  linmin: -2.467e-06  t[s]:  11528.67
	FillingsUpdate:  mu: +0.109131658  nElectrons: 359.000000  magneticMoment: [ Abs: 35.21204  Tot: -0.00000 ]
	SubspaceRotationAdjust: set factor to 0.221
ElecMinimize: Iter: 124  F: -2196.158681457575767  |grad|_K:  1.400e-06  alpha:  3.064e-01  linmin:  3.644e-05  t[s]:  11606.57
	FillingsUpdate:  mu: +0.109785762  nElectrons: 359.000000  magneticMoment: [ Abs: 35.23513  Tot: +0.00000 ]
	SubspaceRotationAdjust: set factor to 0.181
ElecMinimize: Iter: 125  F: -2196.158778409936986  |grad|_K:  1.752e-06  alpha:  2.835e-01  linmin:  6.999e-05  t[s]:  11684.63
	FillingsUpdate:  mu: +0.108979071  nElectrons: 359.000000  magneticMoment: [ Abs: 35.23651  Tot: -0.00000 ]
	SubspaceRotationAdjust: set factor to 0.163
ElecMinimize: Iter: 126  F: -2196.158854864547720  |grad|_K:  1.473e-06  alpha:  1.454e-01  linmin:  4.621e-05  t[s]:  11764.01
	FillingsUpdate:  mu: +0.109108256  nElectrons: 359.000000  magneticMoment: [ Abs: 35.25721  Tot: +0.00000 ]
	SubspaceRotationAdjust: set factor to 0.216
ElecMinimize: Iter: 127  F: -2196.158973209822761  |grad|_K:  1.421e-06  alpha:  3.141e-01  linmin:  1.718e-05  t[s]:  11841.48
	FillingsUpdate:  mu: +0.109828817  nElectrons: 359.000000  magneticMoment: [ Abs: 35.28118  Tot: -0.00000 ]
	SubspaceRotationAdjust: set factor to 0.168
ElecMinimize: Iter: 128  F: -2196.159066038044784  |grad|_K:  1.844e-06  alpha:  2.618e-01  linmin:  6.859e-05  t[s]:  11919.38
	FillingsUpdate:  mu: +0.108895884  nElectrons: 359.000000  magneticMoment: [ Abs: 35.28432  Tot: -0.00000 ]
	SubspaceRotationAdjust: set factor to 0.164
ElecMinimize: Iter: 129  F: -2196.159155155547978  |grad|_K:  1.491e-06  alpha:  1.521e-01  linmin: -2.657e-07  t[s]:  11997.51
	FillingsUpdate:  mu: +0.108539363  nElectrons: 359.000000  magneticMoment: [ Abs: 35.30145  Tot: +0.00000 ]
	SubspaceRotationAdjust: set factor to 0.213
ElecMinimize: Iter: 130  F: -2196.159275977741345  |grad|_K:  1.555e-06  alpha:  3.176e-01  linmin:  3.467e-04  t[s]:  12077.94
	FillingsUpdate:  mu: +0.108989376  nElectrons: 359.000000  magneticMoment: [ Abs: 35.32164  Tot: -0.00000 ]
	SubspaceRotationAdjust: set factor to 0.208
ElecMinimize: Iter: 131  F: -2196.159348277059507  |grad|_K:  1.668e-06  alpha:  1.706e-01  linmin: -2.006e-04  t[s]:  12158.76
	FillingsUpdate:  mu: +0.108405213  nElectrons: 359.000000  magneticMoment: [ Abs: 35.33018  Tot: +0.00000 ]
	SubspaceRotationAdjust: set factor to 0.24
ElecMinimize: Iter: 132  F: -2196.159440314441781  |grad|_K:  1.573e-06  alpha:  1.848e-01  linmin:  2.181e-04  t[s]:  12238.01
	FillingsUpdate:  mu: +0.108049530  nElectrons: 359.000000  magneticMoment: [ Abs: 35.33525  Tot: -0.00000 ]
	SubspaceRotationAdjust: set factor to 0.221
ElecMinimize: Iter: 133  F: -2196.159551560419914  |grad|_K:  2.005e-06  alpha:  2.635e-01  linmin: -7.102e-05  t[s]:  12315.73
	FillingsUpdate:  mu: +0.109049185  nElectrons: 359.000000  magneticMoment: [ Abs: 35.34771  Tot: +0.00000 ]
	SubspaceRotationAdjust: set factor to 0.226
ElecMinimize: Iter: 134  F: -2196.159645572423869  |grad|_K:  1.925e-06  alpha:  1.290e-01  linmin: -7.920e-05  t[s]:  12394.38
	FillingsUpdate:  mu: +0.108633026  nElectrons: 359.000000  magneticMoment: [ Abs: 35.34348  Tot: +0.00000 ]
	SubspaceRotationAdjust: set factor to 0.295
ElecMinimize: Iter: 135  F: -2196.159773253609728  |grad|_K:  1.826e-06  alpha:  1.943e-01  linmin: -8.793e-06  t[s]:  12472.31
	FillingsUpdate:  mu: +0.107946242  nElectrons: 359.000000  magneticMoment: [ Abs: 35.33517  Tot: +0.00000 ]
	SubspaceRotationAdjust: set factor to 0.252
ElecMinimize: Iter: 136  F: -2196.159890134469606  |grad|_K:  2.429e-06  alpha:  2.002e-01  linmin: -1.450e-05  t[s]:  12550.39
	FillingsUpdate:  mu: +0.108160571  nElectrons: 359.000000  magneticMoment: [ Abs: 35.34595  Tot: -0.00000 ]
	SubspaceRotationAdjust: set factor to 0.247
ElecMinimize: Iter: 137  F: -2196.159998709677438  |grad|_K:  2.044e-06  alpha:  1.048e-01  linmin: -3.427e-06  t[s]:  12628.84
	FillingsUpdate:  mu: +0.108078024  nElectrons: 359.000000  magneticMoment: [ Abs: 35.34524  Tot: +0.00000 ]
	SubspaceRotationAdjust: set factor to 0.325
ElecMinimize: Iter: 138  F: -2196.160161482058356  |grad|_K:  2.115e-06  alpha:  2.229e-01  linmin:  9.749e-06  t[s]:  12707.94
	FillingsUpdate:  mu: +0.107563115  nElectrons: 359.000000  magneticMoment: [ Abs: 35.33088  Tot: +0.00000 ]
	SubspaceRotationAdjust: set factor to 0.303
ElecMinimize: Iter: 139  F: -2196.160269695005809  |grad|_K:  2.489e-06  alpha:  1.394e-01  linmin:  3.392e-06  t[s]:  12786.90
	FillingsUpdate:  mu: +0.107919992  nElectrons: 359.000000  magneticMoment: [ Abs: 35.33316  Tot: -0.00000 ]
	SubspaceRotationAdjust: set factor to 0.312
ElecMinimize: Iter: 140  F: -2196.160399807818521  |grad|_K:  2.088e-06  alpha:  1.199e-01  linmin:  2.332e-05  t[s]:  12866.27
	FillingsUpdate:  mu: +0.107375571  nElectrons: 359.000000  magneticMoment: [ Abs: 35.32516  Tot: +0.00000 ]
	SubspaceRotationAdjust: set factor to 0.398
ElecMinimize: Iter: 141  F: -2196.160560662494845  |grad|_K:  2.037e-06  alpha:  2.113e-01  linmin: -2.580e-05  t[s]:  12945.38
	FillingsUpdate:  mu: +0.107090694  nElectrons: 359.000000  magneticMoment: [ Abs: 35.30975  Tot: -0.00000 ]
	SubspaceRotationAdjust: set factor to 0.36
ElecMinimize: Iter: 142  F: -2196.160702696530734  |grad|_K:  2.571e-06  alpha:  1.948e-01  linmin: -2.076e-05  t[s]:  13024.08
	FillingsUpdate:  mu: +0.107273986  nElectrons: 359.000000  magneticMoment: [ Abs: 35.31174  Tot: -0.00000 ]
	SubspaceRotationAdjust: set factor to 0.311
ElecMinimize: Iter: 143  F: -2196.160795245792542  |grad|_K:  2.327e-06  alpha:  7.792e-02  linmin: -7.412e-05  t[s]:  13102.37
	FillingsUpdate:  mu: +0.107090091  nElectrons: 359.000000  magneticMoment: [ Abs: 35.28954  Tot: -0.00000 ]
	SubspaceRotationAdjust: set factor to 0.421
ElecMinimize: Iter: 144  F: -2196.160946278479969  |grad|_K:  1.959e-06  alpha:  1.565e-01  linmin: -2.913e-05  t[s]:  13181.95
	FillingsUpdate:  mu: +0.106828922  nElectrons: 359.000000  magneticMoment: [ Abs: 35.26686  Tot: +0.00000 ]
	SubspaceRotationAdjust: set factor to 0.335
ElecMinimize: Iter: 145  F: -2196.161068069367957  |grad|_K:  2.582e-06  alpha:  1.800e-01  linmin: -4.956e-05  t[s]:  13261.25
	FillingsUpdate:  mu: +0.107098226  nElectrons: 359.000000  magneticMoment: [ Abs: 35.26618  Tot: +0.00000 ]
	SubspaceRotationAdjust: set factor to 0.299
ElecMinimize: Iter: 146  F: -2196.161145515275166  |grad|_K:  2.034e-06  alpha:  6.341e-02  linmin: -1.311e-04  t[s]:  13340.91
	FillingsUpdate:  mu: +0.107033102  nElectrons: 359.000000  magneticMoment: [ Abs: 35.24775  Tot: -0.00000 ]
	SubspaceRotationAdjust: set factor to 0.321
ElecMinimize: Iter: 147  F: -2196.161280198763507  |grad|_K:  2.133e-06  alpha:  1.821e-01  linmin:  5.358e-05  t[s]:  13419.93
	FillingsUpdate:  mu: +0.106913337  nElectrons: 359.000000  magneticMoment: [ Abs: 35.22516  Tot: -0.00000 ]
	SubspaceRotationAdjust: set factor to 0.301
ElecMinimize: Iter: 148  F: -2196.161352841469125  |grad|_K:  2.167e-06  alpha:  9.422e-02  linmin:  4.391e-05  t[s]:  13498.10
	FillingsUpdate:  mu: +0.106727118  nElectrons: 359.000000  magneticMoment: [ Abs: 35.20554  Tot: -0.00000 ]
	SubspaceRotationAdjust: set factor to 0.399
ElecMinimize: Iter: 149  F: -2196.161464263215294  |grad|_K:  1.775e-06  alpha:  1.377e-01  linmin:  8.180e-05  t[s]:  13576.95
	FillingsUpdate:  mu: +0.107358325  nElectrons: 359.000000  magneticMoment: [ Abs: 35.19489  Tot: +0.00000 ]
	SubspaceRotationAdjust: set factor to 0.296
ElecMinimize: Iter: 150  F: -2196.161560510766321  |grad|_K:  2.496e-06  alpha:  1.786e-01  linmin:  9.378e-05  t[s]:  13655.98
	FillingsUpdate:  mu: +0.106695861  nElectrons: 359.000000  magneticMoment: [ Abs: 35.17655  Tot: +0.00000 ]
	SubspaceRotationAdjust: set factor to 0.298
ElecMinimize: Iter: 151  F: -2196.161632343332258  |grad|_K:  1.889e-06  alpha:  6.911e-02  linmin:  9.074e-05  t[s]:  13734.56
	FillingsUpdate:  mu: +0.106928630  nElectrons: 359.000000  magneticMoment: [ Abs: 35.16063  Tot: +0.00000 ]
	SubspaceRotationAdjust: set factor to 0.343
ElecMinimize: Iter: 152  F: -2196.161748570105374  |grad|_K:  2.018e-06  alpha:  1.896e-01  linmin: -6.119e-06  t[s]:  13813.99
	FillingsUpdate:  mu: +0.106995875  nElectrons: 359.000000  magneticMoment: [ Abs: 35.15724  Tot: -0.00000 ]
	SubspaceRotationAdjust: set factor to 0.304
ElecMinimize: Iter: 153  F: -2196.161820904005253  |grad|_K:  2.273e-06  alpha:  9.928e-02  linmin: -5.289e-05  t[s]:  13892.17
	FillingsUpdate:  mu: +0.106843909  nElectrons: 359.000000  magneticMoment: [ Abs: 35.13249  Tot: -0.00000 ]
	SubspaceRotationAdjust: set factor to 0.427
ElecMinimize: Iter: 154  F: -2196.161936817444257  |grad|_K:  1.921e-06  alpha:  1.266e-01  linmin: -4.510e-05  t[s]:  13970.20
	FillingsUpdate:  mu: +0.106644226  nElectrons: 359.000000  magneticMoment: [ Abs: 35.10896  Tot: +0.00000 ]
	SubspaceRotationAdjust: set factor to 0.31
ElecMinimize: Iter: 155  F: -2196.162041759809654  |grad|_K:  2.819e-06  alpha:  1.605e-01  linmin: -7.309e-05  t[s]:  14047.55
	FillingsUpdate:  mu: +0.106826994  nElectrons: 359.000000  magneticMoment: [ Abs: 35.10522  Tot: -0.00000 ]
	SubspaceRotationAdjust: set factor to 0.33
ElecMinimize: Iter: 156  F: -2196.162132090867544  |grad|_K:  2.000e-06  alpha:  6.030e-02  linmin: -2.471e-04  t[s]:  14125.43
	FillingsUpdate:  mu: +0.107081320  nElectrons: 359.000000  magneticMoment: [ Abs: 35.09494  Tot: -0.00000 ]
	SubspaceRotationAdjust: set factor to 0.27
ElecMinimize: Iter: 157  F: -2196.162260140591115  |grad|_K:  2.670e-06  alpha:  1.784e-01  linmin:  2.100e-04  t[s]:  14203.03
	FillingsUpdate:  mu: +0.106962048  nElectrons: 359.000000  magneticMoment: [ Abs: 35.07628  Tot: -0.00000 ]
	SubspaceRotationAdjust: set factor to 0.296
ElecMinimize: Iter: 158  F: -2196.162336204004077  |grad|_K:  2.122e-06  alpha:  6.458e-02  linmin:  4.791e-05  t[s]:  14281.50
	FillingsUpdate:  mu: +0.107079796  nElectrons: 359.000000  magneticMoment: [ Abs: 35.05420  Tot: +0.00000 ]
	SubspaceRotationAdjust: set factor to 0.241
ElecMinimize: Iter: 159  F: -2196.162451012436577  |grad|_K:  2.645e-06  alpha:  1.466e-01  linmin: -3.597e-05  t[s]:  14359.84
	FillingsUpdate:  mu: +0.107141493  nElectrons: 359.000000  magneticMoment: [ Abs: 35.05121  Tot: -0.00000 ]
	SubspaceRotationAdjust: set factor to 0.271
ElecMinimize: Iter: 160  F: -2196.162531539828251  |grad|_K:  1.979e-06  alpha:  6.420e-02  linmin: -5.833e-05  t[s]:  14438.46
	FillingsUpdate:  mu: +0.108179661  nElectrons: 359.000000  magneticMoment: [ Abs: 35.05301  Tot: -0.00000 ]
	SubspaceRotationAdjust: set factor to 0.203
ElecMinimize: Iter: 161  F: -2196.162632351208686  |grad|_K:  2.671e-06  alpha:  1.455e-01  linmin: -2.624e-06  t[s]:  14516.85
	FillingsUpdate:  mu: +0.107232956  nElectrons: 359.000000  magneticMoment: [ Abs: 35.04834  Tot: +0.00000 ]
	SubspaceRotationAdjust: set factor to 0.281
ElecMinimize: Iter: 162  F: -2196.162717751192304  |grad|_K:  1.810e-06  alpha:  6.843e-02  linmin:  2.597e-08  t[s]:  14596.27
	FillingsUpdate:  mu: +0.107293510  nElectrons: 359.000000  magneticMoment: [ Abs: 35.04634  Tot: -0.00000 ]
	SubspaceRotationAdjust: set factor to 0.221
ElecMinimize: Iter: 163  F: -2196.162787736449445  |grad|_K:  2.380e-06  alpha:  1.221e-01  linmin: -2.040e-06  t[s]:  14675.07
	FillingsUpdate:  mu: +0.107210832  nElectrons: 359.000000  magneticMoment: [ Abs: 35.05489  Tot: +0.00000 ]
	SubspaceRotationAdjust: set factor to 0.349
ElecMinimize: Iter: 164  F: -2196.162871188917961  |grad|_K:  1.737e-06  alpha:  8.424e-02  linmin: -3.956e-07  t[s]:  14755.55
	FillingsUpdate:  mu: +0.107525932  nElectrons: 359.000000  magneticMoment: [ Abs: 35.06223  Tot: -0.00000 ]
	SubspaceRotationAdjust: set factor to 0.271
ElecMinimize: Iter: 165  F: -2196.162931171166747  |grad|_K:  2.298e-06  alpha:  1.136e-01  linmin: -5.736e-06  t[s]:  14835.76
	FillingsUpdate:  mu: +0.107169157  nElectrons: 359.000000  magneticMoment: [ Abs: 35.06004  Tot: -0.00000 ]
	SubspaceRotationAdjust: set factor to 0.41
ElecMinimize: Iter: 166  F: -2196.163008268726117  |grad|_K:  1.663e-06  alpha:  8.326e-02  linmin:  2.499e-06  t[s]:  14916.18
	FillingsUpdate:  mu: +0.106920058  nElectrons: 359.000000  magneticMoment: [ Abs: 35.05999  Tot: -0.00000 ]
	SubspaceRotationAdjust: set factor to 0.287
ElecMinimize: Iter: 167  F: -2196.163071100408615  |grad|_K:  2.384e-06  alpha:  1.299e-01  linmin: -1.630e-05  t[s]:  14996.00
	FillingsUpdate:  mu: +0.106971093  nElectrons: 359.000000  magneticMoment: [ Abs: 35.07386  Tot: -0.00000 ]
	SubspaceRotationAdjust: set factor to 0.399
ElecMinimize: Iter: 168  F: -2196.163136657038649  |grad|_K:  1.637e-06  alpha:  6.612e-02  linmin:  1.271e-05  t[s]:  15075.52
	FillingsUpdate:  mu: +0.107211549  nElectrons: 359.000000  magneticMoment: [ Abs: 35.09150  Tot: +0.00000 ]
	SubspaceRotationAdjust: set factor to 0.303
ElecMinimize: Iter: 169  F: -2196.163206258076116  |grad|_K:  2.215e-06  alpha:  1.486e-01  linmin: -2.235e-05  t[s]:  15154.51
	FillingsUpdate:  mu: +0.106807918  nElectrons: 359.000000  magneticMoment: [ Abs: 35.09641  Tot: -0.00000 ]
	SubspaceRotationAdjust: set factor to 0.335
ElecMinimize: Iter: 170  F: -2196.163258691261035  |grad|_K:  1.669e-06  alpha:  6.267e-02  linmin:  8.343e-05  t[s]:  15233.03
	FillingsUpdate:  mu: +0.106783104  nElectrons: 359.000000  magneticMoment: [ Abs: 35.10794  Tot: -0.00000 ]
	SubspaceRotationAdjust: set factor to 0.314
ElecMinimize: Iter: 171  F: -2196.163333372281613  |grad|_K:  1.931e-06  alpha:  1.557e-01  linmin: -2.529e-05  t[s]:  15309.67
	FillingsUpdate:  mu: +0.107178453  nElectrons: 359.000000  magneticMoment: [ Abs: 35.12305  Tot: -0.00000 ]
	SubspaceRotationAdjust: set factor to 0.312
ElecMinimize: Iter: 172  F: -2196.163379506936053  |grad|_K:  1.660e-06  alpha:  6.976e-02  linmin: -2.284e-05  t[s]:  15387.02
	FillingsUpdate:  mu: +0.107379111  nElectrons: 359.000000  magneticMoment: [ Abs: 35.14225  Tot: -0.00000 ]
	SubspaceRotationAdjust: set factor to 0.291
ElecMinimize: Iter: 173  F: -2196.163449310871783  |grad|_K:  1.834e-06  alpha:  1.448e-01  linmin:  4.034e-05  t[s]:  15464.42
	FillingsUpdate:  mu: +0.106825391  nElectrons: 359.000000  magneticMoment: [ Abs: 35.14934  Tot: -0.00000 ]
	SubspaceRotationAdjust: set factor to 0.298
ElecMinimize: Iter: 174  F: -2196.163492283250434  |grad|_K:  1.582e-06  alpha:  7.625e-02  linmin:  6.199e-05  t[s]:  15542.33
	FillingsUpdate:  mu: +0.106692218  nElectrons: 359.000000  magneticMoment: [ Abs: 35.16988  Tot: +0.00000 ]
	SubspaceRotationAdjust: set factor to 0.337
ElecMinimize: Iter: 175  F: -2196.163559579758385  |grad|_K:  1.638e-06  alpha:  1.545e-01  linmin: -8.406e-05  t[s]:  15621.68
	FillingsUpdate:  mu: +0.106852910  nElectrons: 359.000000  magneticMoment: [ Abs: 35.18879  Tot: +0.00000 ]
	SubspaceRotationAdjust: set factor to 0.334
ElecMinimize: Iter: 176  F: -2196.163601195147749  |grad|_K:  1.603e-06  alpha:  8.614e-02  linmin: -2.343e-05  t[s]:  15700.23
	FillingsUpdate:  mu: +0.106995019  nElectrons: 359.000000  magneticMoment: [ Abs: 35.20666  Tot: +0.00000 ]
	SubspaceRotationAdjust: set factor to 0.409
ElecMinimize: Iter: 177  F: -2196.163663333557452  |grad|_K:  1.569e-06  alpha:  1.375e-01  linmin: -7.078e-06  t[s]:  15779.39
	FillingsUpdate:  mu: +0.106633834  nElectrons: 359.000000  magneticMoment: [ Abs: 35.21172  Tot: +0.00000 ]
	SubspaceRotationAdjust: set factor to 0.396
ElecMinimize: Iter: 178  F: -2196.163702833125626  |grad|_K:  1.703e-06  alpha:  9.295e-02  linmin: -4.060e-06  t[s]:  15857.36
	FillingsUpdate:  mu: +0.106953581  nElectrons: 359.000000  magneticMoment: [ Abs: 35.23231  Tot: -0.00000 ]
	SubspaceRotationAdjust: set factor to 0.538
ElecMinimize: Iter: 179  F: -2196.163760976569392  |grad|_K:  1.401e-06  alpha:  1.149e-01  linmin:  7.055e-05  t[s]:  15935.77
	FillingsUpdate:  mu: +0.107117212  nElectrons: 359.000000  magneticMoment: [ Abs: 35.25141  Tot: -0.00000 ]
	SubspaceRotationAdjust: set factor to 0.438
ElecMinimize: Iter: 180  F: -2196.163810691480649  |grad|_K:  1.801e-06  alpha:  1.475e-01  linmin:  7.427e-05  t[s]:  16014.18
	FillingsUpdate:  mu: +0.106747154  nElectrons: 359.000000  magneticMoment: [ Abs: 35.25442  Tot: -0.00000 ]
	SubspaceRotationAdjust: set factor to 0.426
ElecMinimize: Iter: 181  F: -2196.163843572666792  |grad|_K:  1.494e-06  alpha:  6.106e-02  linmin:  1.131e-04  t[s]:  16092.17
	FillingsUpdate:  mu: +0.106931580  nElectrons: 359.000000  magneticMoment: [ Abs: 35.26829  Tot: -0.00000 ]
	SubspaceRotationAdjust: set factor to 0.611
ElecMinimize: Iter: 182  F: -2196.163896348863091  |grad|_K:  1.354e-06  alpha:  1.387e-01  linmin:  2.458e-05  t[s]:  16170.06
	FillingsUpdate:  mu: +0.107496075  nElectrons: 359.000000  magneticMoment: [ Abs: 35.28052  Tot: -0.00000 ]
	SubspaceRotationAdjust: set factor to 0.458
ElecMinimize: Iter: 183  F: -2196.163932268229019  |grad|_K:  1.819e-06  alpha:  1.121e-01  linmin:  2.597e-05  t[s]:  16248.19
	FillingsUpdate:  mu: +0.107281969  nElectrons: 359.000000  magneticMoment: [ Abs: 35.27992  Tot: -0.00000 ]
	SubspaceRotationAdjust: set factor to 0.495
ElecMinimize: Iter: 184  F: -2196.163964655719155  |grad|_K:  1.280e-06  alpha:  5.723e-02  linmin:  3.859e-05  t[s]:  16326.57
	FillingsUpdate:  mu: +0.107320656  nElectrons: 359.000000  magneticMoment: [ Abs: 35.28543  Tot: +0.00000 ]
	SubspaceRotationAdjust: set factor to 0.63
ElecMinimize: Iter: 185  F: -2196.164007322107409  |grad|_K:  1.260e-06  alpha:  1.500e-01  linmin: -9.715e-06  t[s]:  16405.45
	FillingsUpdate:  mu: +0.107668895  nElectrons: 359.000000  magneticMoment: [ Abs: 35.29383  Tot: +0.00000 ]
	SubspaceRotationAdjust: set factor to 0.478
ElecMinimize: Iter: 186  F: -2196.164031593360050  |grad|_K:  1.600e-06  alpha:  8.563e-02  linmin: -2.979e-05  t[s]:  16483.84
	FillingsUpdate:  mu: +0.107375721  nElectrons: 359.000000  magneticMoment: [ Abs: 35.29222  Tot: +0.00000 ]
	SubspaceRotationAdjust: set factor to 0.602
ElecMinimize: Iter: 187  F: -2196.164061886417130  |grad|_K:  1.126e-06  alpha:  6.770e-02  linmin: -2.576e-05  t[s]:  16562.28
	FillingsUpdate:  mu: +0.107434928  nElectrons: 359.000000  magneticMoment: [ Abs: 35.29189  Tot: +0.00000 ]
	SubspaceRotationAdjust: set factor to 0.646
ElecMinimize: Iter: 188  F: -2196.164096517955386  |grad|_K:  1.201e-06  alpha:  1.550e-01  linmin: -2.306e-05  t[s]:  16641.43
	FillingsUpdate:  mu: +0.107881994  nElectrons: 359.000000  magneticMoment: [ Abs: 35.29644  Tot: -0.00000 ]
	SubspaceRotationAdjust: set factor to 0.495
ElecMinimize: Iter: 189  F: -2196.164114428515404  |grad|_K:  1.447e-06  alpha:  6.867e-02  linmin: -8.545e-05  t[s]:  16720.03
	FillingsUpdate:  mu: +0.107798124  nElectrons: 359.000000  magneticMoment: [ Abs: 35.29108  Tot: +0.00000 ]
	SubspaceRotationAdjust: set factor to 0.696
ElecMinimize: Iter: 190  F: -2196.164142258851371  |grad|_K:  1.047e-06  alpha:  7.465e-02  linmin: -4.043e-05  t[s]:  16798.21
[...]
	FillingsUpdate:  mu: +0.114781835  nElectrons: 359.000000  magneticMoment: [ Abs: 35.13577  Tot: -0.00000 ]
	SubspaceRotationAdjust: set factor to 0.353
ElecMinimize: Iter:  24  F: -2196.189559611250388  |grad|_K:  1.055e-07  alpha:  2.683e-01  linmin: -4.660e-06  t[s]:  61895.84
	FillingsUpdate:  mu: +0.114834950  nElectrons: 359.000000  magneticMoment: [ Abs: 35.13560  Tot: +0.00000 ]
	SubspaceRotationAdjust: set factor to 0.314
ElecMinimize: Iter:  25  F: -2196.189560062486635  |grad|_K:  8.712e-08  alpha:  2.318e-01  linmin: -3.127e-05  t[s]:  61972.04
	FillingsUpdate:  mu: +0.114817965  nElectrons: 359.000000  magneticMoment: [ Abs: 35.13552  Tot: +0.00000 ]
	SubspaceRotationAdjust: set factor to 0.365
ElecMinimize: Iter:  26  F: -2196.189560459145923  |grad|_K:  7.072e-08  alpha:  2.983e-01  linmin: -7.010e-06  t[s]:  62049.83
	FillingsUpdate:  mu: +0.114808060  nElectrons: 359.000000  magneticMoment: [ Abs: 35.13544  Tot: +0.00000 ]
	SubspaceRotationAdjust: set factor to 0.424
ElecMinimize: Iter:  27  F: -2196.189560740514480  |grad|_K:  6.499e-08  alpha:  3.217e-01  linmin:  5.939e-06  t[s]:  62127.69
ElecMinimize: Converged (|Delta F|<1.000000e-06 for 5 iters).
Setting wave functions to eigenvectors of Hamiltonian

# Ionic positions in lattice coordinates:
ion Ni   0.003704688012016   0.001897151230177   0.149260362587508 1
ion Ni   0.501063456760027   0.500135891070689   0.142621645607528 1
ion Ni   0.249867857179601   0.250202777555099   0.050925843312274 1
ion Ni   0.247954334181460   0.749669040087872   0.051690779130710 1
ion Ni  -0.248166455954698   0.750417136822324   0.051053520619669 1
ion Ni   0.250000000000000   0.750000000000000  -0.150000000000000 0
ion Ni  -0.250000000000000   0.250000000000000  -0.150000000000000 0
ion V   0.499726737428204  -0.002232522067357   0.149050090881818 1
ion V   0.001281308367300   0.505986311509031   0.154532704931185 1
ion V   0.500000000000000   0.000000000000000  -0.050000000000000 0
ion V   0.000000000000000   0.500000000000000  -0.050000000000000 0
ion V   0.500000000000000   0.500000000000000  -0.050000000000000 0
ion Co  -0.245688301779654   0.251657461917975   0.052893554359214 1
ion Co   0.000000000000000   0.000000000000000  -0.050000000000000 0
ion Co  -0.250000000000000   0.750000000000000  -0.150000000000000 0
ion Cr   0.250000000000000   0.250000000000000  -0.150000000000000 0
ion O   0.262827618428467   0.240047546972112   0.147006534620416 1
ion O   0.270520815398671   0.756021330694455   0.146009442364660 1
ion O  -0.270756915735270   0.244926855112280   0.149427568454543 1
ion O  -0.260512819937899   0.758235687751069   0.144727355520571 1
ion O   0.005791132433288  -0.005743938403283   0.053486107701505 1
ion O   0.497447310203516  -0.004806749371739   0.051681099902781 1
ion O   0.008202093569304   0.504425137958970   0.052548020806652 1
ion O   0.496161145142061   0.506606170727954   0.047845789091318 1
ion O   0.250000000000000   0.250000000000000  -0.050000000000000 0
ion O   0.250000000000000   0.750000000000000  -0.050000000000000 0
ion O  -0.250000000000000   0.250000000000000  -0.050000000000000 0
ion O  -0.250000000000000   0.750000000000000  -0.050000000000000 0
ion O   0.000000000000000   0.000000000000000  -0.150000000000000 0
ion O   0.500000000000000   0.000000000000000  -0.150000000000000 0
ion O   0.000000000000000   0.500000000000000  -0.150000000000000 0
ion O   0.500000000000000   0.500000000000000  -0.150000000000000 0
ion O  -0.008815477265847  -0.015324334844654   0.236569709365786 1
ion H   0.092145745139322   0.090015452703133   0.254354306537997 1

# Forces in Lattice coordinates:
force Ni   0.005900786738163  -0.002623955105736   0.020111748146518 1
force Ni  -0.006027664838360   0.003845762494746   0.018811162510092 1
force Ni  -0.004986722152212   0.001436171536226   0.041379196750582 1
force Ni   0.001063108801880  -0.000793042215362  -0.015033205257700 1
force Ni   0.000003511758097   0.000499738317984   0.010986896556201 1
force Ni  -0.009997749861863   0.007442696951508   0.216318384065350 0
force Ni   0.019587136162867  -0.004438989607066   0.089011293028008 0
force V  -0.002675997807817  -0.005207061356054  -0.006328397160505 1
force V   0.003475270017635   0.006533539139363   0.002161751955694 1
force V  -0.032793680228880  -0.018431213858478  -0.026097014898233 0
force V   0.001493125592414   0.033405559262559   0.159963499574241 0
force V  -0.031248242386911   0.018478562115730  -0.206743295869970 0
force Co  -0.002479521125227   0.003104549016875   0.004794770491210 1
force Co   0.014796483411067  -0.026625595829174   0.044887074658892 0
force Co   0.046017688322449   0.012308431643189  -0.681535669400150 0
force Cr  -0.001633299944622  -0.012493074603469  -1.713784370932664 0
force O  -0.012165236040002  -0.006104942705898  -0.049684250661109 1
force O   0.004961658044869  -0.003458327195086  -0.031242784065189 1
force O   0.003013473850461   0.009082335816689  -0.012614382744731 1
force O   0.015576155262185   0.005758914860114  -0.020151339938080 1
force O   0.007784944937935  -0.003638026705318   0.012753192759550 1
force O  -0.001470335078329  -0.003636435030239   0.038018521817233 1
force O   0.005207393649975   0.001472265912515   0.003150939939495 1
force O  -0.002080038331068   0.003014576575803   0.025881607766248 1
force O   0.066415074736936  -0.014385732705272   1.199861043481483 0
force O   0.092142542136190   0.027182485453836   0.027224716719657 0
force O  -0.065502924523747  -0.015328605739977   0.210962144362456 0
force O  -0.101181746054799   0.023481106508989   0.486870830261764 0
force O   0.042731066452863  -0.019828873512509   0.017748000810627 0
force O  -0.052836938821513  -0.039621307771458   0.114362304668562 0
force O   0.037831999920894   0.006635337453013  -0.004767726304587 0
force O  -0.048938237123000   0.035770303622765   0.057254725783976 0
force O  -0.018288658826577  -0.020858419798145  -0.045628748810324 1
force H   0.007790831633257   0.001589417194977   0.028745712411194 1

# Energy components:
   Eewald =     5954.3402643888166494
       EH =     7933.5855287691565536
     Eloc =   -16223.3660011912779737
      Enl =     -606.4982934979508400
   Epulay =       -0.0004890017348034
      Exc =     -260.6529915602144456
       KE =     1004.9826314988513332
        U =        1.4203588201450001
-------------------------------------
     Etot =    -2196.1889917742078069
       TS =        0.0005689663065236
-------------------------------------
        F =    -2196.1895607405144801

IonicMinimize: Iter:  11  F: -2196.189560740514480  |grad|_K:  6.197e-04  alpha:  3.126e-01  linmin: -2.748e-03  t[s]:  62153.33

#--- Lowdin population analysis ---
# oxidation-state Ni +3.561 +3.599 +3.454 +3.502 +3.486 +3.752 +3.703
# magnetic-moments Ni +0.749 +0.553 +0.861 +0.959 -0.895 -0.950 +0.881
# oxidation-state V +1.377 +1.158 +1.069 +0.972 +1.077
# magnetic-moments V -2.052 +2.989 +2.673 -2.870 +2.584
# oxidation-state Co +1.255 +1.285 +1.316
# magnetic-moments Co -2.720 -2.774 +2.804
# oxidation-state Cr +2.975
# magnetic-moments Cr -3.862
# oxidation-state O -0.744 -0.729 -0.834 -0.728 -0.772 -0.781 -0.794 -0.761 -0.888 -0.864 -0.944 -0.931 -0.900 -0.858 -0.859 -0.859 -0.739
# magnetic-moments O +0.149 +0.213 +0.001 -0.126 +0.084 +0.058 +0.081 +0.159 +0.031 -0.076 +0.002 -0.082 -0.013 -0.001 +0.077 +0.009 +0.084
# oxidation-state H +0.366
# magnetic-moments H -0.002


-------- Electronic minimization -----------
	FillingsUpdate:  mu: +0.109077832  nElectrons: 359.000000  magneticMoment: [ Abs: 35.13486  Tot: +0.00000 ]
ElecMinimize: Iter:   0  F: -2196.044347458355787  |grad|_K:  6.332e-05  alpha:  1.000e+00
	FillingsUpdate:  mu: +0.112318414  nElectrons: 359.000000  magneticMoment: [ Abs: 35.11905  Tot: +0.00000 ]
	SubspaceRotationAdjust: set factor to 0.439
ElecMinimize: Iter:   1  F: -2196.176242178682514  |grad|_K:  1.523e-05  alpha:  1.899e-01  linmin:  2.103e-03  t[s]:  62285.89
	FillingsUpdate:  mu: +0.109285028  nElectrons: 359.000000  magneticMoment: [ Abs: 35.12186  Tot: -0.00000 ]
	SubspaceRotationAdjust: set factor to 0.412
ElecMinimize: Iter:   2  F: -2196.185867730751852  |grad|_K:  6.918e-06  alpha:  2.400e-01  linmin:  8.720e-04  t[s]:  62362.64
	FillingsUpdate:  mu: +0.110483949  nElectrons: 359.000000  magneticMoment: [ Abs: 35.11710  Tot: +0.00000 ]
	SubspaceRotationAdjust: set factor to 0.301
ElecMinimize: Iter:   3  F: -2196.187255024647129  |grad|_K:  5.341e-06  alpha:  1.784e-01  linmin: -8.626e-04  t[s]:  62438.76
	FillingsUpdate:  mu: +0.112642348  nElectrons: 359.000000  magneticMoment: [ Abs: 35.12585  Tot: +0.00000 ]
	SubspaceRotationAdjust: set factor to 0.207
ElecMinimize: Iter:   4  F: -2196.188407293563614  |grad|_K:  3.211e-06  alpha:  2.302e-01  linmin:  1.586e-03  t[s]:  62515.07
	FillingsUpdate:  mu: +0.115259025  nElectrons: 359.000000  magneticMoment: [ Abs: 35.12727  Tot: -0.00000 ]
	SubspaceRotationAdjust: set factor to 0.235
ElecMinimize: Iter:   5  F: -2196.189019117029147  |grad|_K:  2.005e-06  alpha:  3.713e-01  linmin: -1.557e-06  t[s]:  62592.42
	FillingsUpdate:  mu: +0.115080032  nElectrons: 359.000000  magneticMoment: [ Abs: 35.12931  Tot: +0.00000 ]
	SubspaceRotationAdjust: set factor to 0.275
ElecMinimize: Iter:   6  F: -2196.189363344878984  |grad|_K:  1.365e-06  alpha:  4.894e-01  linmin:  2.941e-06  t[s]:  62669.52
	FillingsUpdate:  mu: +0.115142835  nElectrons: 359.000000  magneticMoment: [ Abs: 35.13038  Tot: -0.00000 ]
	SubspaceRotationAdjust: set factor to 0.315
ElecMinimize: Iter:   7  F: -2196.189502864725455  |grad|_K:  1.133e-06  alpha:  4.284e-01  linmin:  1.169e-06  t[s]:  62748.09
	FillingsUpdate:  mu: +0.114746217  nElectrons: 359.000000  magneticMoment: [ Abs: 35.13133  Tot: +0.00000 ]
	SubspaceRotationAdjust: set factor to 0.347
ElecMinimize: Iter:   8  F: -2196.189574577367694  |grad|_K:  8.445e-07  alpha:  3.191e-01  linmin:  1.738e-06  t[s]:  62824.32
	FillingsUpdate:  mu: +0.115035653  nElectrons: 359.000000  magneticMoment: [ Abs: 35.13117  Tot: -0.00000 ]
	SubspaceRotationAdjust: set factor to 0.313
ElecMinimize: Iter:   9  F: -2196.189614713358878  |grad|_K:  7.078e-07  alpha:  3.219e-01  linmin: -8.032e-06  t[s]:  62901.74
	FillingsUpdate:  mu: +0.114725547  nElectrons: 359.000000  magneticMoment: [ Abs: 35.13164  Tot: +0.00000 ]
	SubspaceRotationAdjust: set factor to 0.215
ElecMinimize: Iter:  10  F: -2196.189633499085630  |grad|_K:  5.230e-07  alpha:  2.122e-01  linmin: -3.217e-06  t[s]:  62978.36
	FillingsUpdate:  mu: +0.115103957  nElectrons: 359.000000  magneticMoment: [ Abs: 35.13151  Tot: -0.00000 ]
	SubspaceRotationAdjust: set factor to 0.205
ElecMinimize: Iter:  11  F: -2196.189645860380551  |grad|_K:  3.425e-07  alpha:  2.583e-01  linmin: -4.518e-07  t[s]:  63055.41
	FillingsUpdate:  mu: +0.115101105  nElectrons: 359.000000  magneticMoment: [ Abs: 35.13153  Tot: -0.00000 ]
	SubspaceRotationAdjust: set factor to 0.239
ElecMinimize: Iter:  12  F: -2196.189652441778435  |grad|_K:  2.424e-07  alpha:  3.208e-01  linmin: -8.202e-07  t[s]:  63132.68
	FillingsUpdate:  mu: +0.115004355  nElectrons: 359.000000  magneticMoment: [ Abs: 35.13161  Tot: +0.00000 ]
	SubspaceRotationAdjust: set factor to 0.234
ElecMinimize: Iter:  13  F: -2196.189655298792331  |grad|_K:  1.767e-07  alpha:  2.779e-01  linmin:  6.048e-06  t[s]:  63209.36
	FillingsUpdate:  mu: +0.115092122  nElectrons: 359.000000  magneticMoment: [ Abs: 35.13157  Tot: +0.00000 ]
	SubspaceRotationAdjust: set factor to 0.226
ElecMinimize: Iter:  14  F: -2196.189657029014597  |grad|_K:  1.349e-07  alpha:  3.171e-01  linmin:  5.945e-06  t[s]:  63285.37
	FillingsUpdate:  mu: +0.115047567  nElectrons: 359.000000  magneticMoment: [ Abs: 35.13163  Tot: -0.00000 ]
	SubspaceRotationAdjust: set factor to 0.249
ElecMinimize: Iter:  15  F: -2196.189658063684419  |grad|_K:  1.031e-07  alpha:  3.253e-01  linmin:  7.755e-06  t[s]:  63361.99
	FillingsUpdate:  mu: +0.115057443  nElectrons: 359.000000  magneticMoment: [ Abs: 35.13162  Tot: +0.00000 ]
	SubspaceRotationAdjust: set factor to 0.293
ElecMinimize: Iter:  16  F: -2196.189658762904401  |grad|_K:  9.334e-08  alpha:  3.762e-01  linmin: -6.118e-07  t[s]:  63438.52
	FillingsUpdate:  mu: +0.115077247  nElectrons: 359.000000  magneticMoment: [ Abs: 35.13159  Tot: +0.00000 ]
	SubspaceRotationAdjust: set factor to 0.337
ElecMinimize: Iter:  17  F: -2196.189659266650324  |grad|_K:  8.466e-08  alpha:  3.305e-01  linmin: -3.163e-07  t[s]:  63516.04
	FillingsUpdate:  mu: +0.115033139  nElectrons: 359.000000  magneticMoment: [ Abs: 35.13159  Tot: -0.00000 ]
	SubspaceRotationAdjust: set factor to 0.333
ElecMinimize: Iter:  18  F: -2196.189659729545838  |grad|_K:  8.645e-08  alpha:  3.697e-01  linmin:  2.073e-05  t[s]:  63594.00
	FillingsUpdate:  mu: +0.115090030  nElectrons: 359.000000  magneticMoment: [ Abs: 35.13151  Tot: +0.00000 ]
	SubspaceRotationAdjust: set factor to 0.279
ElecMinimize: Iter:  19  F: -2196.189660079342048  |grad|_K:  8.425e-08  alpha:  2.684e-01  linmin:  1.822e-06  t[s]:  63671.93
	FillingsUpdate:  mu: +0.115049148  nElectrons: 359.000000  magneticMoment: [ Abs: 35.13148  Tot: -0.00000 ]
	SubspaceRotationAdjust: set factor to 0.264
ElecMinimize: Iter:  20  F: -2196.189660455932881  |grad|_K:  7.296e-08  alpha:  3.037e-01  linmin:  3.734e-05  t[s]:  63749.42
ElecMinimize: Converged (|Delta F|<1.000000e-06 for 5 iters).
Setting wave functions to eigenvectors of Hamiltonian

# Ionic positions in lattice coordinates:
ion Ni   0.004310393542742   0.001959116404348   0.149053592139178 1
ion Ni   0.500773373977655   0.500238941756301   0.142707084387608 1
ion Ni   0.249538148376406   0.250390957423719   0.051122766883735 1
ion Ni   0.247975145587522   0.749554335004266   0.051503391470098 1
ion Ni  -0.247944066694575   0.750415236202216   0.051093824501260 1
ion Ni   0.250000000000000   0.750000000000000  -0.150000000000000 0
ion Ni  -0.250000000000000   0.250000000000000  -0.150000000000000 0
ion V   0.499944708168468  -0.002387927063393   0.148877135294756 1
ion V   0.001535939663271   0.506529729867102   0.154595625179717 1
ion V   0.500000000000000   0.000000000000000  -0.050000000000000 0
ion V   0.000000000000000   0.500000000000000  -0.050000000000000 0
ion V   0.500000000000000   0.500000000000000  -0.050000000000000 0
ion Co  -0.245995119829246   0.251799581128641   0.052926591689509 1
ion Co   0.000000000000000   0.000000000000000  -0.050000000000000 0
ion Co  -0.250000000000000   0.750000000000000  -0.150000000000000 0
ion Cr   0.250000000000000   0.250000000000000  -0.150000000000000 0
ion O   0.261576663281609   0.239622507183937   0.146771118166579 1
ion O   0.272347115817780   0.754672064389390   0.145771073145926 1
ion O  -0.271935706674796   0.246847135306219   0.149358885801422 1
ion O  -0.258982070200865   0.758870903931293   0.144493911248851 1
ion O   0.006437469181322  -0.005768686810089   0.053331490121833 1
ion O   0.497771447139071  -0.004777807690770   0.051475459842100 1
ion O   0.008428645873237   0.504364057092179   0.052652024321227 1
ion O   0.496451879335745   0.506753333527082   0.047869694065973 1
ion O   0.250000000000000   0.250000000000000  -0.050000000000000 0
ion O   0.250000000000000   0.750000000000000  -0.050000000000000 0
ion O  -0.250000000000000   0.250000000000000  -0.050000000000000 0
ion O  -0.250000000000000   0.750000000000000  -0.050000000000000 0
ion O   0.000000000000000   0.000000000000000  -0.150000000000000 0
ion O   0.500000000000000   0.000000000000000  -0.150000000000000 0
ion O   0.000000000000000   0.500000000000000  -0.150000000000000 0
ion O   0.500000000000000   0.500000000000000  -0.150000000000000 0
ion O  -0.009370830331839  -0.016665313899884   0.236275322853048 1
ion H   0.091165099792096   0.087795735636747   0.254757550128611 1

# Forces in Lattice coordinates:
force Ni  -0.000641191952400  -0.004743926128122   0.043498794091348 1
force Ni   0.001078432023684   0.005236092991454   0.016919102181900 1
force Ni   0.000026201773335   0.000270478817286  -0.002869760381728 1
force Ni   0.005510144345996   0.000362656703454   0.020725871650968 1
force Ni  -0.000622578668109   0.000525235400743  -0.000561826380453 1
force Ni  -0.009475400122780   0.007989285407294   0.202231088702753 0
force Ni   0.019536134517769  -0.004760456535888   0.079679516312106 0
force V  -0.002437431059562   0.001043597525945   0.012491515117682 1
force V  -0.000357238697397   0.000806333018014  -0.007306684798501 1
force V  -0.033083697267367  -0.017189542052028  -0.032260506318522 0
force V   0.001297969992358   0.032927188666716   0.163975908449738 0
force V  -0.031409126929296   0.017543313038789  -0.201083500267315 0
force Co   0.003229075268387   0.003008481626116  -0.006410180360699 1
force Co   0.014928446726016  -0.025496064143360   0.032476322263334 0
force Co   0.045725039436247   0.012718019903145  -0.687737298954904 0
force Cr  -0.001271804272066  -0.012876982182094  -1.716535880915559 0
force O  -0.004432015521556  -0.014198810917677  -0.023760326091480 1
force O  -0.001488088438949   0.003643802563397  -0.005648395259016 1
force O   0.001116045167399  -0.000769997910755  -0.001797144234732 1
force O   0.006648275413554   0.012231869480109   0.009723542370313 1
force O   0.002195489100825  -0.002052221852860   0.029018132250710 1
force O  -0.001753805513467  -0.003012969945848   0.066819437528374 1
force O   0.002856155584602   0.001005520899035  -0.014608801791148 1
force O  -0.003996881087831   0.001897329601321   0.026838113626925 1
force O   0.066723587342812  -0.014049811053589   1.204241387137223 0
force O   0.091263442748164   0.026372882835513   0.025356929676562 0
force O  -0.064631916249970  -0.014438081206120   0.205275999604614 0
force O  -0.100381023754638   0.023047483945390   0.482986438865679 0
force O   0.040692725803850  -0.018424672582447   0.015751294293727 0
force O  -0.051028023968905  -0.038527883802256   0.110637589160751 0
force O   0.035621031068966   0.004999129986460  -0.000602658175403 0
force O  -0.046936932065909   0.034312192203350   0.054873595306852 0
force O  -0.011584303311183  -0.018073066393255  -0.016484210377422 1
force H   0.002074506246219  -0.003808234951419   0.002257364338251 1

# Energy components:
   Eewald =     5957.3352388164266813
       EH =     7936.6712084021319242
     Eloc =   -16229.4510180657998717
      Enl =     -606.4995085274533722
   Epulay =       -0.0004890017348034
      Exc =     -260.6550219512332092
       KE =     1004.9900638885055741
        U =        1.4204567648128741
-------------------------------------
     Etot =    -2196.1890696743439548
       TS =        0.0005907815888029
-------------------------------------
        F =    -2196.1896604559328807

IonicMinimize: Iter:  12  F: -2196.189660455932881  |grad|_K:  5.123e-04  alpha:  1.000e+00  linmin: -8.110e-03  t[s]:  63775.43
IonicMinimize: Converged (|Delta F|<1.000000e-04 for 3 iters).

#--- Lowdin population analysis ---
# oxidation-state Ni +3.556 +3.598 +3.454 +3.501 +3.486 +3.751 +3.705
# magnetic-moments Ni +0.745 +0.549 +0.861 +0.959 -0.894 -0.949 +0.883
# oxidation-state V +1.377 +1.157 +1.069 +0.973 +1.077
# magnetic-moments V -2.055 +2.989 +2.672 -2.869 +2.585
# oxidation-state Co +1.255 +1.285 +1.316
# magnetic-moments Co -2.720 -2.774 +2.804
# oxidation-state Cr +2.975
# magnetic-moments Cr -3.863
# oxidation-state O -0.742 -0.729 -0.835 -0.727 -0.771 -0.782 -0.794 -0.761 -0.889 -0.864 -0.944 -0.931 -0.900 -0.858 -0.858 -0.860 -0.740
# magnetic-moments O +0.148 +0.214 +0.002 -0.129 +0.086 +0.056 +0.083 +0.158 +0.029 -0.075 +0.002 -0.081 -0.011 -0.000 +0.079 +0.011 +0.083
# oxidation-state H +0.366
# magnetic-moments H -0.002


Dumping 'run.ionpos' ... done
Dumping 'run.lattice' ... done
Dumping 'run.Ecomponents' ... done
End date and time: Thu May  8 02:03:42 2025  (Duration: 0-17:43:02.44)
Done!
