/var/spool/slurmd/job44399/slurm_script: line 9: module: command not found
/var/spool/slurmd/job44399/slurm_script: line 10: module: command not found

*************** JDFTx 1.7.0  ***************

Start date and time: Sun May 18 01:44:08 2025
Executable /data2/jt577/jdftx_eat_withLibXC/build/jdftx with command-line: -i /data2/jt577/May_2025/Relax_Mag_litU/rel10+1_6/OH/runs/calc_/run.in
Running on hosts (process indices):  node3219 (0-8)
Divided in process groups (process indices):  0 (0)  1 (1)  2 (2)  3 (3)  4 (4)  5 (5)  6 (6)  7 (7)  8 (8)
Resource initialization completed at t[s]:      0.00
Run totals: 9 processes, 36 threads, 0 GPUs


Input parsed successfully to the following command list (including defaults):

add-mix 
add-U 	Ni d 0.235196 \
	V d 0.113923 \
	Co d 0.121273 \
	Cr d 0.128623
basis kpoint-dependent
coords-type Lattice
core-overlap-check vector
coulomb-interaction Periodic
davidson-band-ratio 1.1
dump End IonicPositions Lattice Ecomponents
dump-name run.$VAR
elec-cutoff 30
elec-eigen-algo Davidson
elec-ex-corr gga-x-rpbe gga-c-pbe
elec-smearing Fermi 0.001
electronic-minimize  \
	dirUpdateScheme      FletcherReeves \
	linminMethod         DirUpdateRecommended \
	nIterations          1000 \
	history              15 \
	knormThreshold       0 \
	energyDiffThreshold  1e-06 \
	nEnergyDiff          5 \
	alphaTstart          1 \
	alphaTmin            1e-10 \
	updateTestStepSize   yes \
	alphaTreduceFactor   0.1 \
	alphaTincreaseFactor 3 \
	nAlphaAdjustMax      3 \
	wolfeEnergy          0.0001 \
	wolfeGradient        0.9 \
	fdTest               no
exchange-regularization WignerSeitzTruncated
fluid None
fluid-ex-corr (null) lda-PZ
fluid-gummel-loop 10 1.000000e-05
fluid-minimize  \
	dirUpdateScheme      PolakRibiere \
	linminMethod         DirUpdateRecommended \
	nIterations          100 \
	history              15 \
	knormThreshold       0 \
	energyDiffThreshold  0 \
	nEnergyDiff          2 \
	alphaTstart          1 \
	alphaTmin            1e-10 \
	updateTestStepSize   yes \
	alphaTreduceFactor   0.1 \
	alphaTincreaseFactor 3 \
	nAlphaAdjustMax      3 \
	wolfeEnergy          0.0001 \
	wolfeGradient        0.9 \
	fdTest               no
fluid-solvent H2O 55.338 ScalarEOS \
	epsBulk 78.4 \
	pMol 0.92466 \
	epsInf 1.77 \
	Pvap 1.06736e-10 \
	sigmaBulk 4.62e-05 \
	Rvdw 2.61727 \
	Res 1.42 \
	tauNuc 343133 \
	poleEl 15 7 1
forces-output-coords Positions
initial-magnetic-moments  \
	Ni 1 -1 1 1 -1 -1 1 \
	V -1 1 1 -1 1 \
	Co -1 -1 1 \
	Cr -1
initial-state run.$VAR
ion Ni  0.000000000000000   0.000000000000000   0.150000000000000 1
ion Ni  0.500000000000000   0.500000000000000   0.150000000000000 1
ion Ni  0.250000000000000   0.250000000000000   0.050000000000000 1
ion Ni  0.250000000000000   0.750000000000000   0.050000000000000 1
ion Ni -0.250000000000000   0.750000000000000   0.050000000000000 1
ion Ni  0.250000000000000   0.750000000000000  -0.150000000000000 0
ion Ni -0.250000000000000   0.250000000000000  -0.150000000000000 0
ion V  0.500000000000000   0.000000000000000   0.150000000000000 1
ion V  0.000000000000000   0.500000000000000   0.150000000000000 1
ion V  0.500000000000000   0.000000000000000  -0.050000000000000 0
ion V  0.000000000000000   0.500000000000000  -0.050000000000000 0
ion V  0.500000000000000   0.500000000000000  -0.050000000000000 0
ion Co -0.250000000000000   0.250000000000000   0.050000000000000 1
ion Co  0.000000000000000   0.000000000000000  -0.050000000000000 0
ion Co -0.250000000000000   0.750000000000000  -0.150000000000000 0
ion Cr  0.250000000000000   0.250000000000000  -0.150000000000000 0
ion O  0.250000000000000   0.250000000000000   0.150000000000000 1
ion O  0.250000000000000   0.750000000000000   0.150000000000000 1
ion O -0.250000000000000   0.250000000000000   0.150000000000000 1
ion O -0.250000000000000   0.750000000000000   0.150000000000000 1
ion O  0.000000000000000   0.000000000000000   0.050000000000000 1
ion O  0.500000000000000   0.000000000000000   0.050000000000000 1
ion O  0.000000000000000   0.500000000000000   0.050000000000000 1
ion O  0.500000000000000   0.500000000000000   0.050000000000000 1
ion O  0.250000000000000   0.250000000000000  -0.050000000000000 0
ion O  0.250000000000000   0.750000000000000  -0.050000000000000 0
ion O -0.250000000000000   0.250000000000000  -0.050000000000000 0
ion O -0.250000000000000   0.750000000000000  -0.050000000000000 0
ion O  0.000000000000000   0.000000000000000  -0.150000000000000 0
ion O  0.500000000000000   0.000000000000000  -0.150000000000000 0
ion O  0.000000000000000   0.500000000000000  -0.150000000000000 0
ion O  0.500000000000000   0.500000000000000  -0.150000000000000 0
ion O -0.008040138212305  -0.008269777577920   0.235000196603227 1
ion H  0.095742872057713   0.094897636790041   0.252810710255288 1
ion-species SG15/$ID_ONCV_PBE.upf
ion-width 0
ionic-minimize  \
	dirUpdateScheme      L-BFGS \
	linminMethod         DirUpdateRecommended \
	nIterations          1000 \
	history              15 \
	knormThreshold       0.0001 \
	energyDiffThreshold  0.0001 \
	nEnergyDiff          3 \
	alphaTstart          1 \
	alphaTmin            1e-10 \
	updateTestStepSize   yes \
	alphaTreduceFactor   0.1 \
	alphaTincreaseFactor 3 \
	nAlphaAdjustMax      3 \
	wolfeEnergy          0.0001 \
	wolfeGradient        0.9 \
	fdTest               no
kpoint   0.500000000000   0.500000000000   0.500000000000  1.00000000000000
kpoint-folding 3 3 1 
latt-move-scale 1 1 1
latt-scale 1 1 1 
lattice  \
	   8.140000000000001    8.140000000000001    0.000000000000000  \
	   8.140000000000001   -8.140000000000001    0.000000000000000  \
	   0.000000000000000    0.000000000000000   40.700000000000003 
lattice-minimize  \
	dirUpdateScheme      L-BFGS \
	linminMethod         DirUpdateRecommended \
	nIterations          0 \
	history              15 \
	knormThreshold       0 \
	energyDiffThreshold  1e-06 \
	nEnergyDiff          2 \
	alphaTstart          1 \
	alphaTmin            1e-10 \
	updateTestStepSize   yes \
	alphaTreduceFactor   0.1 \
	alphaTincreaseFactor 3 \
	nAlphaAdjustMax      3 \
	wolfeEnergy          0.0001 \
	wolfeGradient        0.9 \
	fdTest               no
lcao-params -1 1e-06 0.001
pcm-variant GLSSA13
spintype z-spin
subspace-rotation-factor 1 yes
symmetries none
symmetry-threshold 0.0001


Applied RMS atom displacement 0 bohrs to make symmetries exact.

---------- Initializing the Grid ----------
R = 
[         8.14         8.14            0  ]
[         8.14        -8.14            0  ]
[            0            0         40.7  ]
unit cell volume = 5393.53
G =
[   0.385945   0.385945         -0  ]
[   0.385945  -0.385945         -0  ]
[         -0         -0   0.154378  ]
Minimum fftbox size, Smin = [  60  60  204  ]
Chosen fftbox size, S = [  60  60  210  ]

---------- Exchange Correlation functional ----------
Initialized LibXC exchange functional 'Hammer, Hansen, and Norskov'
Initialized LibXC correlation functional 'Perdew, Burke & Ernzerhof'

---------- Setting up pseudopotentials ----------
Width of ionic core gaussian charges (only for fluid interactions / plotting) set to 0

Reading pseudopotential file '/data2/jt577/jdftx_eat_withLibXC/build/pseudopotentials/SG15/Ni_ONCV_PBE.upf':
  'Ni' pseudopotential, 'PBE' functional
  Generated using ONCVPSP code by D. R. Hamann
  Author: Martin Schlipf and Francois Gygi  Date: 150915.
  18 valence electrons, 4 orbitals, 6 projectors, 1292 radial grid points, with lMax = 2
  Transforming local potential to a uniform radial grid of dG=0.02 with 1419 points.
  Transforming nonlocal projectors to a uniform radial grid of dG=0.02 with 528 points.
    3S    l: 0   occupation:  2.0   eigenvalue: -4.081355
    3P    l: 1   occupation:  6.0   eigenvalue: -2.623460
    4S    l: 0   occupation:  2.0   eigenvalue: -0.207378
    3D    l: 2   occupation:  8.0   eigenvalue: -0.326118
  Transforming atomic orbitals to a uniform radial grid of dG=0.02 with 528 points.
  WARNING: large normalization error in atomic orbital 1s (integral: 0.000006).
  Core radius for overlap checks: 1.99 bohrs.
  Reading pulay file /data2/jt577/jdftx_eat_withLibXC/build/pseudopotentials/SG15/Ni_ONCV_PBE.pulay ... using dE_dnG = -7.250568e-04 computed for Ecut = 30.

Reading pseudopotential file '/data2/jt577/jdftx_eat_withLibXC/build/pseudopotentials/SG15/V_ONCV_PBE.upf':
  'V' pseudopotential, 'PBE' functional
  Generated using ONCVPSP code by D. R. Hamann
  Author: Martin Schlipf and Francois Gygi  Date: 150915.
  13 valence electrons, 4 orbitals, 6 projectors, 1536 radial grid points, with lMax = 2
  Transforming local potential to a uniform radial grid of dG=0.02 with 1419 points.
  Transforming nonlocal projectors to a uniform radial grid of dG=0.02 with 528 points.
    3S    l: 0   occupation:  2.0   eigenvalue: -2.581105
    3P    l: 1   occupation:  6.0   eigenvalue: -1.618486
    4S    l: 0   occupation:  2.0   eigenvalue: -0.172804
    3D    l: 2   occupation:  3.0   eigenvalue: -0.189795
  Transforming atomic orbitals to a uniform radial grid of dG=0.02 with 528 points.
  Core radius for overlap checks: 1.80 bohrs.
  Reading pulay file /data2/jt577/jdftx_eat_withLibXC/build/pseudopotentials/SG15/V_ONCV_PBE.pulay ... using dE_dnG = -1.698632e-04 computed for Ecut = 30.

Reading pseudopotential file '/data2/jt577/jdftx_eat_withLibXC/build/pseudopotentials/SG15/Co_ONCV_PBE.upf':
  'Co' pseudopotential, 'PBE' functional
  Generated using ONCVPSP code by D. R. Hamann
  Author: Martin Schlipf and Francois Gygi  Date: 150915.
  17 valence electrons, 4 orbitals, 6 projectors, 1388 radial grid points, with lMax = 2
  Transforming local potential to a uniform radial grid of dG=0.02 with 1419 points.
  Transforming nonlocal projectors to a uniform radial grid of dG=0.02 with 528 points.
    3S    l: 0   occupation:  2.0   eigenvalue: -3.763303
    3P    l: 1   occupation:  6.0   eigenvalue: -2.412101
    4S    l: 0   occupation:  2.0   eigenvalue: -0.201022
    3D    l: 2   occupation:  7.0   eigenvalue: -0.301498
  Transforming atomic orbitals to a uniform radial grid of dG=0.02 with 528 points.
  Core radius for overlap checks: 1.94 bohrs.
  Reading pulay file /data2/jt577/jdftx_eat_withLibXC/build/pseudopotentials/SG15/Co_ONCV_PBE.pulay ... using dE_dnG = -9.787391e-05 computed for Ecut = 30.

Reading pseudopotential file '/data2/jt577/jdftx_eat_withLibXC/build/pseudopotentials/SG15/Cr_ONCV_PBE.upf':
  'Cr' pseudopotential, 'PBE' functional
  Generated using ONCVPSP code by D. R. Hamann
  Author: Martin Schlipf and Francois Gygi  Date: 150915.
  14 valence electrons, 4 orbitals, 6 projectors, 1160 radial grid points, with lMax = 2
  Transforming local potential to a uniform radial grid of dG=0.02 with 1419 points.
  Transforming nonlocal projectors to a uniform radial grid of dG=0.02 with 528 points.
    3S    l: 0   occupation:  2.0   eigenvalue: -2.865131
    3P    l: 1   occupation:  6.0   eigenvalue: -1.810600
    4S    l: 0   occupation:  2.0   eigenvalue: -0.180525
    3D    l: 2   occupation:  4.0   eigenvalue: -0.220312
  Transforming atomic orbitals to a uniform radial grid of dG=0.02 with 528 points.
  WARNING: large normalization error in atomic orbital 1s (integral: 0.000001).
  Core radius for overlap checks: 2.10 bohrs.
  Reading pulay file /data2/jt577/jdftx_eat_withLibXC/build/pseudopotentials/SG15/Cr_ONCV_PBE.pulay ... using dE_dnG = -9.817895e-06 computed for Ecut = 30.

Reading pseudopotential file '/data2/jt577/jdftx_eat_withLibXC/build/pseudopotentials/SG15/O_ONCV_PBE.upf':
  'O' pseudopotential, 'PBE' functional
  Generated using ONCVPSP code by D. R. Hamann
  Author: Martin Schlipf and Francois Gygi  Date: 150915.
  6 valence electrons, 2 orbitals, 4 projectors, 936 radial grid points, with lMax = 1
  Transforming local potential to a uniform radial grid of dG=0.02 with 1419 points.
  Transforming nonlocal projectors to a uniform radial grid of dG=0.02 with 528 points.
    2S    l: 0   occupation:  2.0   eigenvalue: -0.880572
    2P    l: 1   occupation:  4.0   eigenvalue: -0.331869
  Transforming atomic orbitals to a uniform radial grid of dG=0.02 with 528 points.
  Core radius for overlap checks: 1.29 bohrs.
  Reading pulay file /data2/jt577/jdftx_eat_withLibXC/build/pseudopotentials/SG15/O_ONCV_PBE.pulay ... using dE_dnG = -8.209514e-03 computed for Ecut = 30.

Reading pseudopotential file '/data2/jt577/jdftx_eat_withLibXC/build/pseudopotentials/SG15/H_ONCV_PBE.upf':
  'H' pseudopotential, 'PBE' functional
  Generated using ONCVPSP code by D. R. Hamann
  Author: Martin Schlipf and Francois Gygi  Date: 150915.
  1 valence electrons, 1 orbitals, 2 projectors, 1166 radial grid points, with lMax = 0
  Transforming local potential to a uniform radial grid of dG=0.02 with 1419 points.
  Transforming nonlocal projectors to a uniform radial grid of dG=0.02 with 528 points.
    1S    l: 0   occupation:  1.0   eigenvalue: -0.238602
  Transforming atomic orbitals to a uniform radial grid of dG=0.02 with 528 points.
  Core radius for overlap checks: 1.01 bohrs.
  Reading pulay file /data2/jt577/jdftx_eat_withLibXC/build/pseudopotentials/SG15/H_ONCV_PBE.pulay ... using dE_dnG = -8.245991e-05 computed for Ecut = 30.

Initialized 6 species with 34 total atoms.

Folded 1 k-points by 3x3x1 to 9 k-points.

---------- Setting up k-points, bands, fillings ----------
No reducable k-points. 
Computing the number of bands and number of electrons
Calculating initial fillings.
nElectrons: 359.000000   nBands: 229   nStates: 18

----- Setting up reduced wavefunction bases (one per k-point) -----
average nbasis = 42312.000 , ideal nbasis = 42330.081

---------- Setting up ewald sum ----------
Optimum gaussian width for ewald sums = 3.887061 bohr.
Real space sum over 605 unit cells with max indices [  5  5  2  ]
Reciprocal space sum over 5915 terms with max indices [  6  6  17  ]

---------- Allocating electronic variables ----------
Initializing wave functions:  linear combination of atomic orbitals
Ni (M=1) pseudo-atom majority spin occupations:   s ( 1 0.5 )  p ( 3 )  d ( 5 )
Ni (M=1) pseudo-atom minority spin occupations:   s ( 1 0 )  p ( 3 )  d ( 4.5 )
V (M=1) pseudo-atom majority spin occupations:   s ( 1 0 )  p ( 3 )  d ( 3 )
V (M=1) pseudo-atom minority spin occupations:   s ( 1 0 )  p ( 3 )  d ( 2 )
Co (M=1) pseudo-atom majority spin occupations:   s ( 1 0 )  p ( 3 )  d ( 5 )
Co (M=1) pseudo-atom minority spin occupations:   s ( 1 0 )  p ( 3 )  d ( 4 )
Cr (M=1) pseudo-atom majority spin occupations:   s ( 1 0 )  p ( 3 )  d ( 3.5 )
Cr (M=1) pseudo-atom minority spin occupations:   s ( 1 0 )  p ( 3 )  d ( 2.5 )
O pseudo-atom occupations:   s ( 2 )  p ( 4 )
H pseudo-atom occupations:   s ( 1 )
	FillingsUpdate:  mu: -0.291896839  nElectrons: 359.000000  magneticMoment: [ Abs: 0.49397  Tot: -0.00000 ]
LCAOMinimize: Iter:   0  F: -2020.3494170316621421  |grad|_K:  1.153e-02  alpha:  1.000e+00
	FillingsUpdate:  mu: +2.767514299  nElectrons: 359.000000  magneticMoment: [ Abs: 1.70017  Tot: +0.00000 ]
LCAOMinimize: Iter:   1  F: -2022.6327378726748520  |grad|_K:  8.029e-02  alpha:  1.455e-01  linmin:  6.755e-02  cgtest: -1.168e-01  t[s]:    110.58
LCAOMinimize: 	Bad step direction: g.d > 0.
LCAOMinimize: 	Undoing step.
LCAOMinimize: 	Step failed: resetting search direction.
	FillingsUpdate:  mu: +2.767514299  nElectrons: 359.000000  magneticMoment: [ Abs: 1.70017  Tot: +0.00000 ]
LCAOMinimize: Iter:   2  F: -2022.6327378726748520  |grad|_K:  8.029e-02  alpha:  0.000e+00
	FillingsUpdate:  mu: +1.195171053  nElectrons: 359.000000  magneticMoment: [ Abs: 1.09635  Tot: +0.00000 ]
LCAOMinimize: Iter:   3  F: -2054.8801137152859155  |grad|_K:  2.137e-02  alpha:  5.404e-02  linmin:  3.144e-02  cgtest: -2.390e+00  t[s]:    177.73
	FillingsUpdate:  mu: +1.196425364  nElectrons: 359.000000  magneticMoment: [ Abs: 1.52064  Tot: -0.00000 ]
LCAOMinimize: Iter:   4  F: -2055.9479693861867418  |grad|_K:  2.182e-02  alpha:  5.494e-03  linmin: -2.623e-02  cgtest:  9.474e-01  t[s]:    215.71
LCAOMinimize: 	Wrong curvature in test step, increasing alphaT to 1.648173e-02.
	FillingsUpdate:  mu: +1.098722290  nElectrons: 359.000000  magneticMoment: [ Abs: 1.79797  Tot: -0.00000 ]
LCAOMinimize: Iter:   5  F: -2058.5623918215401318  |grad|_K:  2.095e-02  alpha: -2.610e-01  linmin: -9.562e-02  cgtest:  9.573e-01  t[s]:    251.75
LCAOMinimize: 	Step increased F by 3.687396e+02, reducing alpha to 2.411379e-02.
	FillingsUpdate:  mu: +0.027015163  nElectrons: 359.000000  magneticMoment: [ Abs: 3.76055  Tot: +0.00000 ]
LCAOMinimize: Iter:   6  F: -2077.8884503711014986  |grad|_K:  1.317e-02  alpha:  2.411e-02  linmin:  7.841e-02  cgtest: -1.781e-01  t[s]:    318.39
LCAOMinimize: 	Bad step direction: g.d > 0.
LCAOMinimize: 	Undoing step.
LCAOMinimize: 	Step failed: resetting search direction.
	FillingsUpdate:  mu: +0.027015163  nElectrons: 359.000000  magneticMoment: [ Abs: 3.76055  Tot: +0.00000 ]
LCAOMinimize: Iter:   7  F: -2077.8884503711014986  |grad|_K:  1.317e-02  alpha:  0.000e+00
	FillingsUpdate:  mu: -0.026891887  nElectrons: 359.000000  magneticMoment: [ Abs: 5.05412  Tot: -0.00000 ]
LCAOMinimize: Iter:   8  F: -2080.3452430381394151  |grad|_K:  1.162e-02  alpha:  1.907e-02  linmin:  4.603e-02  cgtest: -3.548e-02  t[s]:    389.05
LCAOMinimize: 	Predicted alpha/alphaT>3.000000, increasing alphaT to 5.721717e-02.
	FillingsUpdate:  mu: +0.322153534  nElectrons: 359.000000  magneticMoment: [ Abs: 6.11794  Tot: -0.00000 ]
LCAOMinimize: Iter:   9  F: -2080.7618741625656185  |grad|_K:  1.843e-02  alpha:  2.070e-02  linmin: -3.468e-03  cgtest:  1.080e+00  t[s]:    440.52
	FillingsUpdate:  mu: +0.384050088  nElectrons: 359.000000  magneticMoment: [ Abs: 4.95208  Tot: +0.00000 ]
LCAOMinimize: Iter:  10  F: -2085.0574802832984460  |grad|_K:  7.997e-03  alpha:  2.647e-02  linmin:  7.517e-03  cgtest: -5.963e-01  t[s]:    483.48
	FillingsUpdate:  mu: +0.425813148  nElectrons: 359.000000  magneticMoment: [ Abs: 5.53458  Tot: -0.00000 ]
LCAOMinimize: Iter:  11  F: -2085.3886911051040443  |grad|_K:  8.186e-03  alpha:  7.060e-03  linmin: -3.316e-02  cgtest:  9.623e-01  t[s]:    522.78
LCAOMinimize: 	Wrong curvature in test step, increasing alphaT to 2.118002e-02.
	FillingsUpdate:  mu: +0.399641355  nElectrons: 359.000000  magneticMoment: [ Abs: 5.64953  Tot: -0.00000 ]
LCAOMinimize: Iter:  12  F: -2085.8686978740634004  |grad|_K:  8.631e-03  alpha: -1.371e-01  linmin: -1.172e-01  cgtest:  8.287e-01  t[s]:    559.53
LCAOMinimize: 	Step increased F by 7.043909e+01, reducing alpha to 1.548983e-02.
	FillingsUpdate:  mu: +0.094262321  nElectrons: 359.000000  magneticMoment: [ Abs: 6.43013  Tot: +0.00000 ]
LCAOMinimize: Iter:  13  F: -2086.7764797744152929  |grad|_K:  6.944e-03  alpha:  1.549e-02  linmin: -2.567e-02  cgtest: -2.665e-02  t[s]:    627.78
LCAOMinimize: 	Predicted alpha/alphaT>3.000000, increasing alphaT to 4.646949e-02.
	FillingsUpdate:  mu: -0.118020330  nElectrons: 359.000000  magneticMoment: [ Abs: 7.63597  Tot: -0.00000 ]
LCAOMinimize: Iter:  14  F: -2088.4665342104322008  |grad|_K:  8.206e-03  alpha:  6.167e-02  linmin:  1.038e-02  cgtest: -2.610e-01  t[s]:    681.17
	FillingsUpdate:  mu: -0.113242386  nElectrons: 359.000000  magneticMoment: [ Abs: 7.70233  Tot: -0.00000 ]
LCAOMinimize: Iter:  15  F: -2088.5468463934594183  |grad|_K:  8.063e-03  alpha:  2.774e-03  linmin: -6.498e-03  cgtest:  9.908e-01  t[s]:    723.01
LCAOMinimize: Encountered beta<0, resetting CG.
LCAOMinimize: 	Predicted alpha/alphaT>3.000000, increasing alphaT to 8.323064e-03.
	FillingsUpdate:  mu: -0.048203935  nElectrons: 359.000000  magneticMoment: [ Abs: 7.37687  Tot: +0.00000 ]
LCAOMinimize: Iter:  16  F: -2089.2702887142590953  |grad|_K:  3.850e-03  alpha:  1.953e-02  linmin: -1.421e-01  cgtest:  8.510e-01  t[s]:    772.54
LCAOMinimize: Encountered beta<0, resetting CG.
LCAOMinimize: 	Predicted alpha/alphaT>3.000000, increasing alphaT to 5.858087e-02.
	FillingsUpdate:  mu: +0.013098592  nElectrons: 359.000000  magneticMoment: [ Abs: 7.15344  Tot: -0.00000 ]
LCAOMinimize: Iter:  17  F: -2089.5858376733326622  |grad|_K:  2.630e-03  alpha:  2.332e-02  linmin: -1.338e-01  cgtest:  7.681e-01  t[s]:    822.45
LCAOMinimize: Encountered beta<0, resetting CG.
	FillingsUpdate:  mu: +0.134599412  nElectrons: 359.000000  magneticMoment: [ Abs: 7.54216  Tot: +0.00000 ]
LCAOMinimize: Iter:  18  F: -2089.6764193647350112  |grad|_K:  4.146e-03  alpha:  6.560e-02  linmin:  5.438e-02  cgtest: -3.797e-01  t[s]:    861.96
LCAOMinimize: 	Bad step direction: g.d > 0.
LCAOMinimize: 	Undoing step.
LCAOMinimize: 	Step failed: resetting search direction.
	FillingsUpdate:  mu: +0.134599412  nElectrons: 359.000000  magneticMoment: [ Abs: 7.54216  Tot: +0.00000 ]
LCAOMinimize: Iter:  19  F: -2089.6764193647313732  |grad|_K:  4.146e-03  alpha:  0.000e+00
	FillingsUpdate:  mu: -0.035494046  nElectrons: 359.000000  magneticMoment: [ Abs: 7.19032  Tot: +0.00000 ]
LCAOMinimize: Iter:  20  F: -2089.7277127230736369  |grad|_K:  4.116e-03  alpha:  2.629e-02  linmin:  4.325e-02  cgtest: -6.734e-01  t[s]:    930.29
	FillingsUpdate:  mu: -0.038558163  nElectrons: 359.000000  magneticMoment: [ Abs: 7.17480  Tot: +0.00000 ]
LCAOMinimize: Iter:  21  F: -2089.7280567171796974  |grad|_K:  4.030e-03  alpha:  1.466e-03  linmin:  7.774e-04  cgtest:  1.005e+00  t[s]:    969.29
LCAOMinimize: Encountered beta<0, resetting CG.
LCAOMinimize: 	Wrong curvature in test step, increasing alphaT to 4.397335e-03.
	FillingsUpdate:  mu: -0.031763534  nElectrons: 359.000000  magneticMoment: [ Abs: 7.19601  Tot: +0.00000 ]
LCAOMinimize: Iter:  22  F: -2089.7507835343749321  |grad|_K:  3.789e-03  alpha: -3.099e-01  linmin: -8.511e-02  cgtest:  9.420e-01  t[s]:   1005.90
LCAOMinimize: Encountered beta<0, resetting CG.
LCAOMinimize: 	Step increased F by 9.328539e-01, reducing alpha to 6.593572e-03.
	FillingsUpdate:  mu: +0.007185913  nElectrons: 359.000000  magneticMoment: [ Abs: 7.30981  Tot: +0.00000 ]
LCAOMinimize: Iter:  23  F: -2089.8231993160775346  |grad|_K:  1.700e-03  alpha:  6.594e-03  linmin: -7.883e-02  cgtest:  7.940e-01  t[s]:   1074.09
LCAOMinimize: Encountered beta<0, resetting CG.
	FillingsUpdate:  mu: +0.031825665  nElectrons: 359.000000  magneticMoment: [ Abs: 7.46794  Tot: +0.00000 ]
LCAOMinimize: Iter:  24  F: -2089.8424561376646125  |grad|_K:  1.176e-03  alpha:  1.411e-02  linmin:  1.936e-04  cgtest:  2.205e-03  t[s]:   1112.59
	FillingsUpdate:  mu: +0.034682550  nElectrons: 359.000000  magneticMoment: [ Abs: 7.72832  Tot: +0.00000 ]
LCAOMinimize: Iter:  25  F: -2089.8566370736407407  |grad|_K:  1.010e-03  alpha:  2.184e-02  linmin:  9.008e-04  cgtest:  2.798e-04  t[s]:   1151.93
LCAOMinimize: 	Predicted alpha/alphaT>3.000000, increasing alphaT to 6.553239e-02.
	FillingsUpdate:  mu: +0.026977993  nElectrons: 359.000000  magneticMoment: [ Abs: 8.47483  Tot: -0.00000 ]
LCAOMinimize: Iter:  26  F: -2089.9082790863758419  |grad|_K:  8.000e-04  alpha:  1.148e-01  linmin:  2.261e-03  cgtest:  3.437e-01  t[s]:   1201.49
	FillingsUpdate:  mu: +0.035025093  nElectrons: 359.000000  magneticMoment: [ Abs: 8.62281  Tot: -0.00000 ]
LCAOMinimize: Iter:  27  F: -2089.9241015399484240  |grad|_K:  9.548e-04  alpha:  6.022e-02  linmin:  3.383e-04  cgtest:  7.595e-02  t[s]:   1239.95
	FillingsUpdate:  mu: +0.038460744  nElectrons: 359.000000  magneticMoment: [ Abs: 8.89010  Tot: -0.00000 ]
LCAOMinimize: Iter:  28  F: -2089.9370699303367473  |grad|_K:  7.798e-04  alpha:  3.211e-02  linmin:  2.922e-04  cgtest: -1.122e-01  t[s]:   1278.22
LCAOMinimize: 	Predicted alpha/alphaT>3.000000, increasing alphaT to 9.632611e-02.
	FillingsUpdate:  mu: +0.052559581  nElectrons: 359.000000  magneticMoment: [ Abs: 10.08535  Tot: +0.00000 ]
LCAOMinimize: Iter:  29  F: -2089.9725523293855076  |grad|_K:  8.026e-04  alpha:  1.201e-01  linmin: -1.859e-03  cgtest:  2.588e-01  t[s]:   1327.32
	FillingsUpdate:  mu: +0.031398070  nElectrons: 359.000000  magneticMoment: [ Abs: 10.37753  Tot: +0.00000 ]
LCAOMinimize: Iter:  30  F: -2089.9928018455689198  |grad|_K:  5.973e-04  alpha:  6.674e-02  linmin:  5.082e-04  cgtest: -1.639e-01  t[s]:   1365.81
LCAOMinimize: None of the convergence criteria satisfied after 30 iterations.


---- Citations for features of the code used in this run ----

   Software package:
      R. Sundararaman, K. Letchworth-Weaver, K.A. Schwarz, D. Gunceler, Y. Ozhabes and T.A. Arias, 'JDFTx: software for joint density-functional theory', SoftwareX 6, 278 (2017)

   Simplified rotationally-invariant DFT+U:
      S. L. Dudarev et al., Phys. Rev. B 57, 1505 (1998)

   LibXC library of exchange-correlation functions:
      M. A. L. Marques, M. J. T. Oliveira and T. Burnus, Comput. Phys. Commun. 183, 2272 (2012)

   Hammer, Hansen, and Norskov exchange functional:
      B. Hammer, L. B. Hansen, and J. K. Nørskov, Phys. Rev. B 59, 7413 (1999)

   Perdew, Burke & Ernzerhof correlation functional:
      J. P. Perdew, K. Burke, and M. Ernzerhof, Phys. Rev. Lett. 77, 3865 (1996)

   Pseudopotentials:
      M Schlipf and F Gygi, Comput. Phys. Commun. 196, 36 (2015)

   Total energy minimization with Auxiliary Hamiltonian:
      C. Freysoldt, S. Boeck, and J. Neugebauer, Phys. Rev. B 79, 241103(R) (2009)

This list may not be complete. Please suggest additional citations or
report any other bugs at https://github.com/shankar1729/jdftx/issues

Initialization completed successfully at t[s]:   1378.47


-------- Electronic minimization -----------
	FillingsUpdate:  mu: +0.031398071  nElectrons: 359.000000  magneticMoment: [ Abs: 10.37753  Tot: +0.00000 ]
ElecMinimize: Iter:   0  F: -2089.992801845565737  |grad|_K:  1.127e-03  alpha:  1.000e+00
	FillingsUpdate:  mu: +0.540361319  nElectrons: 359.000000  magneticMoment: [ Abs: 11.54801  Tot: -0.00000 ]
	SubspaceRotationAdjust: set factor to 0.997
ElecMinimize: Iter:   1  F: -2148.325396373331387  |grad|_K:  1.329e-03  alpha:  4.785e-01  linmin:  9.733e-03  t[s]:   1501.96
	FillingsUpdate:  mu: +0.807135383  nElectrons: 359.000000  magneticMoment: [ Abs: 11.36497  Tot: -0.00000 ]
	SubspaceRotationAdjust: set factor to 0.647
ElecMinimize: Iter:   2  F: -2152.003323531283513  |grad|_K:  1.645e-03  alpha:  1.619e-01  linmin:  3.629e-03  t[s]:   1586.21
	FillingsUpdate:  mu: +0.570955268  nElectrons: 359.000000  magneticMoment: [ Abs: 10.64885  Tot: +0.00000 ]
	SubspaceRotationAdjust: set factor to 0.617
ElecMinimize: Iter:   3  F: -2157.911335676965791  |grad|_K:  8.835e-04  alpha:  1.933e-02  linmin: -7.632e-05  t[s]:   1670.84
ElecMinimize: 	Predicted alpha/alphaT>3.000000, increasing alphaT to 5.799673e-02.
	FillingsUpdate:  mu: +0.957792736  nElectrons: 359.000000  magneticMoment: [ Abs: 14.11272  Tot: +0.00000 ]
	SubspaceRotationAdjust: set factor to 0.513
ElecMinimize: Iter:   4  F: -2170.712017971224213  |grad|_K:  7.918e-04  alpha:  9.238e-02  linmin: -3.980e-04  t[s]:   1776.82
	FillingsUpdate:  mu: +0.513773291  nElectrons: 359.000000  magneticMoment: [ Abs: 17.66436  Tot: -0.00000 ]
	SubspaceRotationAdjust: set factor to 0.368
ElecMinimize: Iter:   5  F: -2180.732072639794296  |grad|_K:  7.516e-04  alpha:  9.972e-02  linmin:  6.058e-03  t[s]:   1859.90
ElecMinimize: 	Bad step direction: g.d > 0.
ElecMinimize: 	Undoing step.
ElecMinimize: 	Step failed: resetting search direction.
	FillingsUpdate:  mu: +0.513773291  nElectrons: 359.000000  magneticMoment: [ Abs: 17.66436  Tot: -0.00000 ]
	SubspaceRotationAdjust: set factor to 0.362
ElecMinimize: Iter:   6  F: -2180.732072639794296  |grad|_K:  6.841e-04  alpha:  0.000e+00
	FillingsUpdate:  mu: +0.345382748  nElectrons: 359.000000  magneticMoment: [ Abs: 16.02804  Tot: -0.00000 ]
	SubspaceRotationAdjust: set factor to 0.267
ElecMinimize: Iter:   7  F: -2190.457589194099910  |grad|_K:  2.961e-04  alpha:  1.171e-01  linmin: -4.230e-03  t[s]:   2003.64
	FillingsUpdate:  mu: +0.321299082  nElectrons: 359.000000  magneticMoment: [ Abs: 16.20622  Tot: +0.00000 ]
	SubspaceRotationAdjust: set factor to 0.174
ElecMinimize: Iter:   8  F: -2192.107854011752352  |grad|_K:  3.088e-04  alpha:  8.528e-02  linmin:  1.178e-03  t[s]:   2087.29
	FillingsUpdate:  mu: +0.135052117  nElectrons: 359.000000  magneticMoment: [ Abs: 16.33236  Tot: +0.00000 ]
	SubspaceRotationAdjust: set factor to 0.13
	SubspaceRotationAdjust: resetting CG because factor has changed by 0.130339
ElecMinimize: 	State modified externally: resetting search direction.
ElecMinimize: Iter:   9  F: -2193.071720658754657  |grad|_K:  1.882e-04  alpha:  6.302e-02
	FillingsUpdate:  mu: +0.220758150  nElectrons: 359.000000  magneticMoment: [ Abs: 16.54502  Tot: +0.00000 ]
	SubspaceRotationAdjust: set factor to 0.0524
ElecMinimize: Iter:  10  F: -2193.837908295571651  |grad|_K:  1.391e-04  alpha:  1.293e-01  linmin:  1.918e-03  t[s]:   2293.98
	FillingsUpdate:  mu: +0.220436580  nElectrons: 359.000000  magneticMoment: [ Abs: 17.20472  Tot: +0.00000 ]
	SubspaceRotationAdjust: set factor to 0.0463
ElecMinimize: Iter:  11  F: -2194.228794076464965  |grad|_K:  6.899e-05  alpha:  1.238e-01  linmin: -8.372e-04  t[s]:   2378.05
ElecMinimize: 	Predicted alpha/alphaT>3.000000, increasing alphaT to 3.714488e-01.
	FillingsUpdate:  mu: +0.191728882  nElectrons: 359.000000  magneticMoment: [ Abs: 17.70688  Tot: -0.00000 ]
	SubspaceRotationAdjust: set factor to 0.0469
ElecMinimize: Iter:  12  F: -2194.564696383894898  |grad|_K:  5.939e-05  alpha:  3.828e-01  linmin: -1.181e-04  t[s]:   2485.84
	FillingsUpdate:  mu: +0.101069012  nElectrons: 359.000000  magneticMoment: [ Abs: 17.85771  Tot: +0.00000 ]
	SubspaceRotationAdjust: set factor to 0.0501
ElecMinimize: Iter:  13  F: -2194.741508839234939  |grad|_K:  4.078e-05  alpha:  2.816e-01  linmin: -1.765e-04  t[s]:   2568.50
	FillingsUpdate:  mu: +0.099580018  nElectrons: 359.000000  magneticMoment: [ Abs: 17.99564  Tot: +0.00000 ]
	SubspaceRotationAdjust: set factor to 0.0644
ElecMinimize: Iter:  14  F: -2194.855794998197325  |grad|_K:  3.922e-05  alpha:  3.835e-01  linmin: -1.927e-04  t[s]:   2651.13
	FillingsUpdate:  mu: +0.101784243  nElectrons: 359.000000  magneticMoment: [ Abs: 18.24122  Tot: -0.00000 ]
	SubspaceRotationAdjust: set factor to 0.067
ElecMinimize: Iter:  15  F: -2194.949134575282187  |grad|_K:  3.675e-05  alpha:  3.353e-01  linmin: -1.313e-04  t[s]:   2734.99
	FillingsUpdate:  mu: +0.102172039  nElectrons: 359.000000  magneticMoment: [ Abs: 18.63180  Tot: +0.00000 ]
	SubspaceRotationAdjust: set factor to 0.0807
ElecMinimize: Iter:  16  F: -2195.052420770014578  |grad|_K:  3.740e-05  alpha:  4.198e-01  linmin: -1.084e-04  t[s]:   2819.51
	FillingsUpdate:  mu: +0.114680337  nElectrons: 359.000000  magneticMoment: [ Abs: 19.16888  Tot: +0.00000 ]
	SubspaceRotationAdjust: set factor to 0.0867
ElecMinimize: Iter:  17  F: -2195.149794062977890  |grad|_K:  4.119e-05  alpha:  3.779e-01  linmin: -7.863e-05  t[s]:   2903.12
	FillingsUpdate:  mu: +0.112174749  nElectrons: 359.000000  magneticMoment: [ Abs: 19.93807  Tot: +0.00000 ]
	SubspaceRotationAdjust: set factor to 0.0874
ElecMinimize: Iter:  18  F: -2195.255385608656525  |grad|_K:  4.484e-05  alpha:  3.419e-01  linmin: -9.416e-05  t[s]:   2987.07
	FillingsUpdate:  mu: +0.095703090  nElectrons: 359.000000  magneticMoment: [ Abs: 20.99524  Tot: +0.00000 ]
	SubspaceRotationAdjust: set factor to 0.0917
ElecMinimize: Iter:  19  F: -2195.415335683966077  |grad|_K:  4.845e-05  alpha:  4.238e-01  linmin: -3.604e-05  t[s]:   3070.27
	FillingsUpdate:  mu: +0.121548017  nElectrons: 359.000000  magneticMoment: [ Abs: 21.71179  Tot: +0.00000 ]
	SubspaceRotationAdjust: set factor to 0.0944
ElecMinimize: Iter:  20  F: -2195.550818907857320  |grad|_K:  4.929e-05  alpha:  3.222e-01  linmin: -4.388e-05  t[s]:   3153.21
	FillingsUpdate:  mu: +0.109165148  nElectrons: 359.000000  magneticMoment: [ Abs: 22.45304  Tot: +0.00000 ]
	SubspaceRotationAdjust: set factor to 0.102
ElecMinimize: Iter:  21  F: -2195.662962866605085  |grad|_K:  4.843e-05  alpha:  2.360e-01  linmin: -4.988e-06  t[s]:   3237.71
ElecMinimize: 	Step increased F by 5.017299e-04, reducing alpha to 2.834160e-04.
ElecMinimize: 	Step increased F by 2.645474e-03, reducing alpha to 2.834160e-05.
ElecMinimize: 	Step increased F by 2.861257e-03, reducing alpha to 2.834160e-06.
ElecMinimize: 	Step failed to reduce F after 3 attempts. Quitting step.
ElecMinimize: 	Undoing step.
ElecMinimize: 	Step failed: resetting search direction.
	FillingsUpdate:  mu: +0.108576831  nElectrons: 359.000000  magneticMoment: [ Abs: 22.45147  Tot: +0.00000 ]
	SubspaceRotationAdjust: set factor to 0.121
ElecMinimize: Iter:  22  F: -2195.660099210739645  |grad|_K:  4.881e-05  alpha:  2.834e-06
	FillingsUpdate:  mu: +0.109824987  nElectrons: 359.000000  magneticMoment: [ Abs: 22.23222  Tot: +0.00000 ]
	SubspaceRotationAdjust: set factor to 0.113
ElecMinimize: Iter:  23  F: -2195.792863428082910  |grad|_K:  3.313e-05  alpha:  3.184e-01  linmin: -4.118e-04  t[s]:   3565.76
	FillingsUpdate:  mu: +0.108168821  nElectrons: 359.000000  magneticMoment: [ Abs: 22.35929  Tot: +0.00000 ]
	SubspaceRotationAdjust: set factor to 0.118
ElecMinimize: Iter:  24  F: -2195.867599289020291  |grad|_K:  2.705e-05  alpha:  3.875e-01  linmin: -1.502e-04  t[s]:   3649.63
	FillingsUpdate:  mu: +0.117297430  nElectrons: 359.000000  magneticMoment: [ Abs: 22.80008  Tot: +0.00000 ]
	SubspaceRotationAdjust: set factor to 0.0938
ElecMinimize: Iter:  25  F: -2195.911902760408339  |grad|_K:  2.431e-05  alpha:  3.445e-01  linmin:  1.118e-04  t[s]:   3732.94
	FillingsUpdate:  mu: +0.105869790  nElectrons: 359.000000  magneticMoment: [ Abs: 23.24204  Tot: -0.00000 ]
	SubspaceRotationAdjust: set factor to 0.0777
ElecMinimize: Iter:  26  F: -2195.947765900372815  |grad|_K:  2.056e-05  alpha:  3.486e-01  linmin:  1.265e-04  t[s]:   3817.24
	FillingsUpdate:  mu: +0.098961810  nElectrons: 359.000000  magneticMoment: [ Abs: 23.62969  Tot: +0.00000 ]
	SubspaceRotationAdjust: set factor to 0.0824
ElecMinimize: Iter:  27  F: -2195.972602122587887  |grad|_K:  1.426e-05  alpha:  3.383e-01  linmin:  2.353e-04  t[s]:   3900.67
	FillingsUpdate:  mu: +0.101095101  nElectrons: 359.000000  magneticMoment: [ Abs: 24.03022  Tot: +0.00000 ]
	SubspaceRotationAdjust: set factor to 0.0932
ElecMinimize: Iter:  28  F: -2195.988638929540230  |grad|_K:  1.305e-05  alpha:  4.595e-01  linmin:  1.701e-04  t[s]:   3984.32
	FillingsUpdate:  mu: +0.100826894  nElectrons: 359.000000  magneticMoment: [ Abs: 24.49040  Tot: -0.00000 ]
	SubspaceRotationAdjust: set factor to 0.109
ElecMinimize: Iter:  29  F: -2196.001383262544550  |grad|_K:  1.315e-05  alpha:  4.328e-01  linmin:  1.778e-04  t[s]:   4069.39
	FillingsUpdate:  mu: +0.099781731  nElectrons: 359.000000  magneticMoment: [ Abs: 25.12358  Tot: +0.00000 ]
	SubspaceRotationAdjust: set factor to 0.126
ElecMinimize: Iter:  30  F: -2196.014568622445950  |grad|_K:  1.404e-05  alpha:  4.449e-01  linmin:  2.068e-04  t[s]:   4153.00
	FillingsUpdate:  mu: +0.100098549  nElectrons: 359.000000  magneticMoment: [ Abs: 25.78824  Tot: -0.00000 ]
	SubspaceRotationAdjust: set factor to 0.149
ElecMinimize: Iter:  31  F: -2196.026494114526486  |grad|_K:  1.415e-05  alpha:  3.561e-01  linmin:  4.319e-06  t[s]:   4237.50
	FillingsUpdate:  mu: +0.106171997  nElectrons: 359.000000  magneticMoment: [ Abs: 26.39771  Tot: +0.00000 ]
	SubspaceRotationAdjust: set factor to 0.161
ElecMinimize: Iter:  32  F: -2196.037572551340872  |grad|_K:  1.519e-05  alpha:  3.167e-01  linmin: -1.516e-05  t[s]:   4321.30
	FillingsUpdate:  mu: +0.104584491  nElectrons: 359.000000  magneticMoment: [ Abs: 27.05455  Tot: +0.00000 ]
	SubspaceRotationAdjust: set factor to 0.176
ElecMinimize: Iter:  33  F: -2196.049718325690264  |grad|_K:  1.444e-05  alpha:  3.007e-01  linmin: -7.547e-05  t[s]:   4405.52
	FillingsUpdate:  mu: +0.101299458  nElectrons: 359.000000  magneticMoment: [ Abs: 27.63254  Tot: +0.00000 ]
	SubspaceRotationAdjust: set factor to 0.195
ElecMinimize: Iter:  34  F: -2196.060077045415255  |grad|_K:  1.273e-05  alpha:  2.792e-01  linmin:  4.390e-05  t[s]:   4489.92
	FillingsUpdate:  mu: +0.098121353  nElectrons: 359.000000  magneticMoment: [ Abs: 28.13705  Tot: -0.00000 ]
	SubspaceRotationAdjust: set factor to 0.227
ElecMinimize: Iter:  35  F: -2196.067887954803609  |grad|_K:  1.172e-05  alpha:  2.778e-01  linmin:  1.072e-04  t[s]:   4573.87
	FillingsUpdate:  mu: +0.095796253  nElectrons: 359.000000  magneticMoment: [ Abs: 28.59662  Tot: +0.00000 ]
	SubspaceRotationAdjust: set factor to 0.288
ElecMinimize: Iter:  36  F: -2196.073696896572528  |grad|_K:  1.105e-05  alpha:  2.450e-01  linmin:  9.623e-05  t[s]:   4657.28
	FillingsUpdate:  mu: +0.094658552  nElectrons: 359.000000  magneticMoment: [ Abs: 29.06434  Tot: +0.00000 ]
	SubspaceRotationAdjust: set factor to 0.34
ElecMinimize: Iter:  37  F: -2196.078861595700801  |grad|_K:  1.153e-05  alpha:  2.452e-01  linmin: -5.966e-07  t[s]:   4742.03
	FillingsUpdate:  mu: +0.096749464  nElectrons: 359.000000  magneticMoment: [ Abs: 29.62332  Tot: +0.00000 ]
	SubspaceRotationAdjust: set factor to 0.368
ElecMinimize: Iter:  38  F: -2196.084418172798905  |grad|_K:  1.241e-05  alpha:  2.391e-01  linmin: -6.148e-05  t[s]:   4825.15
	FillingsUpdate:  mu: +0.097234905  nElectrons: 359.000000  magneticMoment: [ Abs: 30.30025  Tot: -0.00000 ]
	SubspaceRotationAdjust: set factor to 0.382
ElecMinimize: Iter:  39  F: -2196.090481462178104  |grad|_K:  1.377e-05  alpha:  2.235e-01  linmin: -6.888e-05  t[s]:   4909.68
	FillingsUpdate:  mu: +0.099440284  nElectrons: 359.000000  magneticMoment: [ Abs: 30.90056  Tot: +0.00000 ]
	SubspaceRotationAdjust: set factor to 0.338
ElecMinimize: Iter:  40  F: -2196.095772290927471  |grad|_K:  1.585e-05  alpha:  1.500e-01  linmin: -8.939e-05  t[s]:   4992.81
	FillingsUpdate:  mu: +0.102507741  nElectrons: 359.000000  magneticMoment: [ Abs: 31.59042  Tot: -0.00000 ]
	SubspaceRotationAdjust: set factor to 0.47
ElecMinimize: Iter:  41  F: -2196.101905607280059  |grad|_K:  1.388e-05  alpha:  1.384e-01  linmin: -1.633e-04  t[s]:   5076.93
	FillingsUpdate:  mu: +0.101325125  nElectrons: 359.000000  magneticMoment: [ Abs: 32.14676  Tot: +0.00000 ]
	SubspaceRotationAdjust: set factor to 0.39
ElecMinimize: Iter:  42  F: -2196.107807066862733  |grad|_K:  1.820e-05  alpha:  1.719e-01  linmin:  2.249e-04  t[s]:   5161.89
	FillingsUpdate:  mu: +0.099534941  nElectrons: 359.000000  magneticMoment: [ Abs: 32.54099  Tot: +0.00000 ]
	SubspaceRotationAdjust: set factor to 0.563
ElecMinimize: Iter:  43  F: -2196.111851692250639  |grad|_K:  1.424e-05  alpha:  7.980e-02  linmin:  1.082e-04  t[s]:   5245.92
	FillingsUpdate:  mu: +0.098802809  nElectrons: 359.000000  magneticMoment: [ Abs: 32.85876  Tot: -0.00000 ]
	SubspaceRotationAdjust: set factor to 0.521
ElecMinimize: Iter:  44  F: -2196.116266458800965  |grad|_K:  1.596e-05  alpha:  1.240e-01  linmin: -2.760e-04  t[s]:   5331.06
	FillingsUpdate:  mu: +0.098621414  nElectrons: 359.000000  magneticMoment: [ Abs: 33.16210  Tot: +0.00000 ]
	SubspaceRotationAdjust: set factor to 0.582
ElecMinimize: Iter:  45  F: -2196.120798556355567  |grad|_K:  1.393e-05  alpha:  9.767e-02  linmin: -6.709e-05  t[s]:   5414.07
	FillingsUpdate:  mu: +0.098437008  nElectrons: 359.000000  magneticMoment: [ Abs: 33.47369  Tot: -0.00000 ]
	SubspaceRotationAdjust: set factor to 0.472
ElecMinimize: Iter:  46  F: -2196.124750877772385  |grad|_K:  1.779e-05  alpha:  1.188e-01  linmin:  5.312e-04  t[s]:   5496.83
	FillingsUpdate:  mu: +0.095792540  nElectrons: 359.000000  magneticMoment: [ Abs: 33.68626  Tot: -0.00000 ]
	SubspaceRotationAdjust: set factor to 0.573
ElecMinimize: Iter:  47  F: -2196.128172266092861  |grad|_K:  1.505e-05  alpha:  7.202e-02  linmin: -1.732e-05  t[s]:   5580.72
	FillingsUpdate:  mu: +0.097011461  nElectrons: 359.000000  magneticMoment: [ Abs: 33.81889  Tot: +0.00000 ]
	SubspaceRotationAdjust: set factor to 0.524
ElecMinimize: Iter:  48  F: -2196.131808828590238  |grad|_K:  1.623e-05  alpha:  9.037e-02  linmin: -1.502e-04  t[s]:   5664.28
	FillingsUpdate:  mu: +0.095721698  nElectrons: 359.000000  magneticMoment: [ Abs: 33.92815  Tot: -0.00000 ]
	SubspaceRotationAdjust: set factor to 0.461
ElecMinimize: Iter:  49  F: -2196.134359929805214  |grad|_K:  1.396e-05  alpha:  5.196e-02  linmin: -2.865e-05  t[s]:   5748.07
	FillingsUpdate:  mu: +0.094755035  nElectrons: 359.000000  magneticMoment: [ Abs: 34.04780  Tot: -0.00000 ]
	SubspaceRotationAdjust: set factor to 0.568
ElecMinimize: Iter:  50  F: -2196.138453042227866  |grad|_K:  1.301e-05  alpha:  1.166e-01  linmin: -1.665e-04  t[s]:   5831.49
	FillingsUpdate:  mu: +0.095801367  nElectrons: 359.000000  magneticMoment: [ Abs: 34.07857  Tot: +0.00000 ]
	SubspaceRotationAdjust: set factor to 0.505
ElecMinimize: Iter:  51  F: -2196.140723441489172  |grad|_K:  1.482e-05  alpha:  7.414e-02  linmin:  7.118e-06  t[s]:   5914.88
	FillingsUpdate:  mu: +0.095286037  nElectrons: 359.000000  magneticMoment: [ Abs: 34.14945  Tot: +0.00000 ]
	SubspaceRotationAdjust: set factor to 0.53
ElecMinimize: Iter:  52  F: -2196.143254847242133  |grad|_K:  1.247e-05  alpha:  6.587e-02  linmin:  4.775e-05  t[s]:   5997.65
	FillingsUpdate:  mu: +0.095260574  nElectrons: 359.000000  magneticMoment: [ Abs: 34.18823  Tot: -0.00000 ]
	SubspaceRotationAdjust: set factor to 0.509
ElecMinimize: Iter:  53  F: -2196.146554592355642  |grad|_K:  1.254e-05  alpha:  1.227e-01  linmin:  4.192e-05  t[s]:   6080.57
	FillingsUpdate:  mu: +0.096035375  nElectrons: 359.000000  magneticMoment: [ Abs: 34.15987  Tot: +0.00000 ]
	SubspaceRotationAdjust: set factor to 0.463
ElecMinimize: Iter:  54  F: -2196.148040472525281  |grad|_K:  1.201e-05  alpha:  5.661e-02  linmin:  1.382e-04  t[s]:   6163.80
	FillingsUpdate:  mu: +0.097817254  nElectrons: 359.000000  magneticMoment: [ Abs: 34.13111  Tot: -0.00000 ]
	SubspaceRotationAdjust: set factor to 0.529
ElecMinimize: Iter:  55  F: -2196.150347388070713  |grad|_K:  1.072e-05  alpha:  9.390e-02  linmin:  4.411e-05  t[s]:   6246.90
	FillingsUpdate:  mu: +0.096985142  nElectrons: 359.000000  magneticMoment: [ Abs: 34.08946  Tot: -0.00000 ]
	SubspaceRotationAdjust: set factor to 0.572
ElecMinimize: Iter:  56  F: -2196.152586210225763  |grad|_K:  1.053e-05  alpha:  1.123e-01  linmin:  1.097e-05  t[s]:   6331.09
	FillingsUpdate:  mu: +0.098127815  nElectrons: 359.000000  magneticMoment: [ Abs: 34.04458  Tot: -0.00000 ]
	SubspaceRotationAdjust: set factor to 0.507
ElecMinimize: Iter:  57  F: -2196.153674131907337  |grad|_K:  1.028e-05  alpha:  5.587e-02  linmin: -5.777e-06  t[s]:   6415.60
	FillingsUpdate:  mu: +0.097570061  nElectrons: 359.000000  magneticMoment: [ Abs: 33.98481  Tot: -0.00000 ]
	SubspaceRotationAdjust: set factor to 0.648
ElecMinimize: Iter:  58  F: -2196.155503168430641  |grad|_K:  8.905e-06  alpha:  9.885e-02  linmin:  3.505e-06  t[s]:   6499.83
	FillingsUpdate:  mu: +0.098099163  nElectrons: 359.000000  magneticMoment: [ Abs: 33.92517  Tot: +0.00000 ]
	SubspaceRotationAdjust: set factor to 0.607
ElecMinimize: Iter:  59  F: -2196.156845608782987  |grad|_K:  9.722e-06  alpha:  9.687e-02  linmin: -1.692e-07  t[s]:   6583.14
	FillingsUpdate:  mu: +0.097513924  nElectrons: 359.000000  magneticMoment: [ Abs: 33.86584  Tot: -0.00000 ]
	SubspaceRotationAdjust: set factor to 0.529
ElecMinimize: Iter:  60  F: -2196.157660164040863  |grad|_K:  9.011e-06  alpha:  5.019e-02  linmin:  3.232e-05  t[s]:   6666.83
	FillingsUpdate:  mu: +0.099151341  nElectrons: 359.000000  magneticMoment: [ Abs: 33.79618  Tot: +0.00000 ]
	SubspaceRotationAdjust: set factor to 0.697
ElecMinimize: Iter:  61  F: -2196.159053339178172  |grad|_K:  7.494e-06  alpha:  9.931e-02  linmin:  2.406e-05  t[s]:   6750.46
	FillingsUpdate:  mu: +0.096858476  nElectrons: 359.000000  magneticMoment: [ Abs: 33.75374  Tot: +0.00000 ]
	SubspaceRotationAdjust: set factor to 0.684
ElecMinimize: Iter:  62  F: -2196.160118847117246  |grad|_K:  8.561e-06  alpha:  1.093e-01  linmin:  1.865e-05  t[s]:   6834.28
	FillingsUpdate:  mu: +0.097805473  nElectrons: 359.000000  magneticMoment: [ Abs: 33.71053  Tot: +0.00000 ]
	SubspaceRotationAdjust: set factor to 0.596
ElecMinimize: Iter:  63  F: -2196.160778452191607  |grad|_K:  8.917e-06  alpha:  5.169e-02  linmin:  3.390e-06  t[s]:   6918.26
	FillingsUpdate:  mu: +0.099560621  nElectrons: 359.000000  magneticMoment: [ Abs: 33.65490  Tot: +0.00000 ]
	SubspaceRotationAdjust: set factor to 0.788
ElecMinimize: Iter:  64  F: -2196.161754008693606  |grad|_K:  6.726e-06  alpha:  6.995e-02  linmin: -4.132e-05  t[s]:   7002.02
	FillingsUpdate:  mu: +0.096704368  nElectrons: 359.000000  magneticMoment: [ Abs: 33.59204  Tot: +0.00000 ]
	SubspaceRotationAdjust: set factor to 0.616
ElecMinimize: Iter:  65  F: -2196.162617574745582  |grad|_K:  8.791e-06  alpha:  1.082e-01  linmin:  2.618e-05  t[s]:   7085.15
	FillingsUpdate:  mu: +0.096558038  nElectrons: 359.000000  magneticMoment: [ Abs: 33.54559  Tot: -0.00000 ]
	SubspaceRotationAdjust: set factor to 0.553
ElecMinimize: Iter:  66  F: -2196.163107834032417  |grad|_K:  6.996e-06  alpha:  3.760e-02  linmin:  8.938e-05  t[s]:   7169.52
	FillingsUpdate:  mu: +0.095862539  nElectrons: 359.000000  magneticMoment: [ Abs: 33.49266  Tot: +0.00000 ]
	SubspaceRotationAdjust: set factor to 0.697
ElecMinimize: Iter:  67  F: -2196.163910983017104  |grad|_K:  6.631e-06  alpha:  9.710e-02  linmin:  1.016e-04  t[s]:   7253.02
	FillingsUpdate:  mu: +0.095575762  nElectrons: 359.000000  magneticMoment: [ Abs: 33.46873  Tot: +0.00000 ]
	SubspaceRotationAdjust: set factor to 0.525
ElecMinimize: Iter:  68  F: -2196.164497161999861  |grad|_K:  8.687e-06  alpha:  7.791e-02  linmin:  6.626e-06  t[s]:   7336.35
	FillingsUpdate:  mu: +0.098711103  nElectrons: 359.000000  magneticMoment: [ Abs: 33.43610  Tot: +0.00000 ]
	SubspaceRotationAdjust: set factor to 0.645
ElecMinimize: Iter:  69  F: -2196.165144906211026  |grad|_K:  6.031e-06  alpha:  4.970e-02  linmin:  5.388e-06  t[s]:   7419.94
	FillingsUpdate:  mu: +0.098590475  nElectrons: 359.000000  magneticMoment: [ Abs: 33.40511  Tot: +0.00000 ]
	SubspaceRotationAdjust: set factor to 0.635
ElecMinimize: Iter:  70  F: -2196.165918463879734  |grad|_K:  7.003e-06  alpha:  1.194e-01  linmin: -1.887e-04  t[s]:   7503.90
	FillingsUpdate:  mu: +0.097090594  nElectrons: 359.000000  magneticMoment: [ Abs: 33.39280  Tot: -0.00000 ]
	SubspaceRotationAdjust: set factor to 0.569
ElecMinimize: Iter:  71  F: -2196.166413993707010  |grad|_K:  7.226e-06  alpha:  5.427e-02  linmin: -1.023e-04  t[s]:   7587.66
	FillingsUpdate:  mu: +0.098161602  nElectrons: 359.000000  magneticMoment: [ Abs: 33.36606  Tot: +0.00000 ]
	SubspaceRotationAdjust: set factor to 0.821
ElecMinimize: Iter:  72  F: -2196.167124065475036  |grad|_K:  5.803e-06  alpha:  7.606e-02  linmin: -3.838e-05  t[s]:   7670.71
	FillingsUpdate:  mu: +0.096545427  nElectrons: 359.000000  magneticMoment: [ Abs: 33.34823  Tot: +0.00000 ]
	SubspaceRotationAdjust: set factor to 0.616
ElecMinimize: Iter:  73  F: -2196.167692716433976  |grad|_K:  7.990e-06  alpha:  9.488e-02  linmin: -1.698e-04  t[s]:   7754.46
	FillingsUpdate:  mu: +0.097421412  nElectrons: 359.000000  magneticMoment: [ Abs: 33.34474  Tot: -0.00000 ]
	SubspaceRotationAdjust: set factor to 0.633
ElecMinimize: Iter:  74  F: -2196.168198058519920  |grad|_K:  5.861e-06  alpha:  4.215e-02  linmin: -1.033e-04  t[s]:   7838.80
	FillingsUpdate:  mu: +0.097607305  nElectrons: 359.000000  magneticMoment: [ Abs: 33.34259  Tot: +0.00000 ]
	SubspaceRotationAdjust: set factor to 0.696
ElecMinimize: Iter:  75  F: -2196.168870563101791  |grad|_K:  6.177e-06  alpha:  1.078e-01  linmin: -8.851e-05  t[s]:   7921.85
	FillingsUpdate:  mu: +0.098773841  nElectrons: 359.000000  magneticMoment: [ Abs: 33.34034  Tot: +0.00000 ]
	SubspaceRotationAdjust: set factor to 0.658
ElecMinimize: Iter:  76  F: -2196.169292535485056  |grad|_K:  6.562e-06  alpha:  6.551e-02  linmin:  4.625e-05  t[s]:   8005.69
	FillingsUpdate:  mu: +0.100077319  nElectrons: 359.000000  magneticMoment: [ Abs: 33.34576  Tot: -0.00000 ]
	SubspaceRotationAdjust: set factor to 0.758
ElecMinimize: Iter:  77  F: -2196.169839060222785  |grad|_K:  5.271e-06  alpha:  7.363e-02  linmin:  4.425e-05  t[s]:   8089.29
	FillingsUpdate:  mu: +0.098606433  nElectrons: 359.000000  magneticMoment: [ Abs: 33.34978  Tot: -0.00000 ]
	SubspaceRotationAdjust: set factor to 0.876
ElecMinimize: Iter:  78  F: -2196.170426508471792  |grad|_K:  5.691e-06  alpha:  1.226e-01  linmin:  1.154e-05  t[s]:   8173.16
	FillingsUpdate:  mu: +0.098860281  nElectrons: 359.000000  magneticMoment: [ Abs: 33.34853  Tot: -0.00000 ]
	SubspaceRotationAdjust: set factor to 0.858
ElecMinimize: Iter:  79  F: -2196.170815576588666  |grad|_K:  6.018e-06  alpha:  7.240e-02  linmin:  4.201e-05  t[s]:   8257.16
	FillingsUpdate:  mu: +0.098017819  nElectrons: 359.000000  magneticMoment: [ Abs: 33.34533  Tot: -0.00000 ]
	SubspaceRotationAdjust: set factor to 0.927
ElecMinimize: Iter:  80  F: -2196.171268576921193  |grad|_K:  5.233e-06  alpha:  7.233e-02  linmin:  1.540e-05  t[s]:   8341.12
	FillingsUpdate:  mu: +0.098950441  nElectrons: 359.000000  magneticMoment: [ Abs: 33.33553  Tot: -0.00000 ]
	SubspaceRotationAdjust: set factor to 1.24
	SubspaceRotationAdjust: resetting CG because factor has changed by 9.4878
ElecMinimize: 	State modified externally: resetting search direction.
ElecMinimize: Iter:  81  F: -2196.171780568062786  |grad|_K:  5.034e-06  alpha:  1.067e-01
	FillingsUpdate:  mu: +0.096151285  nElectrons: 359.000000  magneticMoment: [ Abs: 33.33949  Tot: -0.00000 ]
	SubspaceRotationAdjust: set factor to 0.712
ElecMinimize: Iter:  82  F: -2196.173266233396134  |grad|_K:  8.450e-06  alpha:  3.066e-01  linmin: -1.737e-03  t[s]:   8549.02
	FillingsUpdate:  mu: +0.098155946  nElectrons: 359.000000  magneticMoment: [ Abs: 33.33772  Tot: +0.00000 ]
	SubspaceRotationAdjust: set factor to 0.59
ElecMinimize: Iter:  83  F: -2196.173600663388243  |grad|_K:  4.789e-06  alpha:  1.365e-02  linmin: -7.377e-03  t[s]:   8632.34
ElecMinimize: 	Predicted alpha/alphaT>3.000000, increasing alphaT to 4.094619e-02.
	FillingsUpdate:  mu: +0.096915147  nElectrons: 359.000000  magneticMoment: [ Abs: 33.33401  Tot: +0.00000 ]
	SubspaceRotationAdjust: set factor to 0.409
ElecMinimize: Iter:  84  F: -2196.173899259839345  |grad|_K:  4.869e-06  alpha:  4.149e-02  linmin:  1.582e-03  t[s]:   8740.99
	FillingsUpdate:  mu: +0.096035185  nElectrons: 359.000000  magneticMoment: [ Abs: 33.33254  Tot: -0.00000 ]
	SubspaceRotationAdjust: set factor to 0.248
ElecMinimize: Iter:  85  F: -2196.173988724272931  |grad|_K:  5.966e-06  alpha:  2.621e-02  linmin: -4.723e-05  t[s]:   8824.63
	FillingsUpdate:  mu: +0.096929698  nElectrons: 359.000000  magneticMoment: [ Abs: 33.33001  Tot: -0.00000 ]
	SubspaceRotationAdjust: set factor to 0.143
	SubspaceRotationAdjust: resetting CG because factor has changed by 0.115967
ElecMinimize: 	State modified externally: resetting search direction.
ElecMinimize: Iter:  86  F: -2196.174243347373249  |grad|_K:  4.971e-06  alpha:  4.135e-02
	FillingsUpdate:  mu: +0.098606494  nElectrons: 359.000000  magneticMoment: [ Abs: 33.32954  Tot: +0.00000 ]
	SubspaceRotationAdjust: set factor to 0.235
ElecMinimize: Iter:  87  F: -2196.174813767643172  |grad|_K:  1.649e-06  alpha:  1.218e-01  linmin: -2.157e-02  t[s]:   9031.99
ElecMinimize: 	Predicted alpha/alphaT>3.000000, increasing alphaT to 3.653067e-01.
	FillingsUpdate:  mu: +0.098720875  nElectrons: 359.000000  magneticMoment: [ Abs: 33.33014  Tot: +0.00000 ]
	SubspaceRotationAdjust: set factor to 0.21
ElecMinimize: Iter:  88  F: -2196.175085220899746  |grad|_K:  2.188e-06  alpha:  4.839e-01  linmin: -5.272e-03  t[s]:   9138.61
	FillingsUpdate:  mu: +0.098316605  nElectrons: 359.000000  magneticMoment: [ Abs: 33.32983  Tot: +0.00000 ]
	SubspaceRotationAdjust: set factor to 0.183
ElecMinimize: Iter:  89  F: -2196.175350224320027  |grad|_K:  2.388e-06  alpha:  2.831e-01  linmin: -1.287e-04  t[s]:   9222.02
	FillingsUpdate:  mu: +0.098527062  nElectrons: 359.000000  magneticMoment: [ Abs: 33.33207  Tot: +0.00000 ]
	SubspaceRotationAdjust: set factor to 0.267
ElecMinimize: Iter:  90  F: -2196.175648929949602  |grad|_K:  1.580e-06  alpha:  2.981e-01  linmin: -7.291e-05  t[s]:   9305.73
	FillingsUpdate:  mu: +0.099466663  nElectrons: 359.000000  magneticMoment: [ Abs: 33.33506  Tot: -0.00000 ]
	SubspaceRotationAdjust: set factor to 0.215
ElecMinimize: Iter:  91  F: -2196.175752121258029  |grad|_K:  1.474e-06  alpha:  2.367e-01  linmin: -9.684e-05  t[s]:   9389.74
	FillingsUpdate:  mu: +0.098889715  nElectrons: 359.000000  magneticMoment: [ Abs: 33.33867  Tot: -0.00000 ]
	SubspaceRotationAdjust: set factor to 0.218
ElecMinimize: Iter:  92  F: -2196.175837535112805  |grad|_K:  1.234e-06  alpha:  2.239e-01  linmin:  1.487e-04  t[s]:   9472.43
	FillingsUpdate:  mu: +0.098453917  nElectrons: 359.000000  magneticMoment: [ Abs: 33.35024  Tot: -0.00000 ]
	SubspaceRotationAdjust: set factor to 0.261
ElecMinimize: Iter:  93  F: -2196.175973931168755  |grad|_K:  1.647e-06  alpha:  5.188e-01  linmin:  1.118e-04  t[s]:   9555.53
	FillingsUpdate:  mu: +0.099726972  nElectrons: 359.000000  magneticMoment: [ Abs: 33.36606  Tot: -0.00000 ]
	SubspaceRotationAdjust: set factor to 0.228
ElecMinimize: Iter:  94  F: -2196.176108875180489  |grad|_K:  1.706e-06  alpha:  2.968e-01  linmin:  8.721e-05  t[s]:   9638.89
	FillingsUpdate:  mu: +0.098901643  nElectrons: 359.000000  magneticMoment: [ Abs: 33.37996  Tot: -0.00000 ]
	SubspaceRotationAdjust: set factor to 0.212
ElecMinimize: Iter:  95  F: -2196.176240847708414  |grad|_K:  1.413e-06  alpha:  2.606e-01  linmin:  1.180e-04  t[s]:   9721.83
	FillingsUpdate:  mu: +0.098908622  nElectrons: 359.000000  magneticMoment: [ Abs: 33.39516  Tot: +0.00000 ]
	SubspaceRotationAdjust: set factor to 0.252
ElecMinimize: Iter:  96  F: -2196.176376240644004  |grad|_K:  1.439e-06  alpha:  3.918e-01  linmin: -1.518e-05  t[s]:   9804.55
	FillingsUpdate:  mu: +0.099622757  nElectrons: 359.000000  magneticMoment: [ Abs: 33.40931  Tot: -0.00000 ]
	SubspaceRotationAdjust: set factor to 0.242
ElecMinimize: Iter:  97  F: -2196.176506714779862  |grad|_K:  1.546e-06  alpha:  3.609e-01  linmin: -1.603e-04  t[s]:   9888.52
	FillingsUpdate:  mu: +0.098268914  nElectrons: 359.000000  magneticMoment: [ Abs: 33.41703  Tot: +0.00000 ]
	SubspaceRotationAdjust: set factor to 0.21
ElecMinimize: Iter:  98  F: -2196.176638483062561  |grad|_K:  1.571e-06  alpha:  3.066e-01  linmin:  1.635e-04  t[s]:   9973.73
	FillingsUpdate:  mu: +0.098862879  nElectrons: 359.000000  magneticMoment: [ Abs: 33.42686  Tot: -0.00000 ]
	SubspaceRotationAdjust: set factor to 0.248
ElecMinimize: Iter:  99  F: -2196.176768867760529  |grad|_K:  1.295e-06  alpha:  3.072e-01  linmin: -1.085e-04  t[s]:  10056.41
	FillingsUpdate:  mu: +0.099080852  nElectrons: 359.000000  magneticMoment: [ Abs: 33.43454  Tot: -0.00000 ]
	SubspaceRotationAdjust: set factor to 0.287
ElecMinimize: Iter: 100  F: -2196.176877389500532  |grad|_K:  1.282e-06  alpha:  3.652e-01  linmin: -7.516e-05  t[s]:  10139.11
	FillingsUpdate:  mu: +0.097873147  nElectrons: 359.000000  magneticMoment: [ Abs: 33.43826  Tot: -0.00000 ]
	SubspaceRotationAdjust: set factor to 0.265
ElecMinimize: Iter: 101  F: -2196.176964496041364  |grad|_K:  1.500e-06  alpha:  2.993e-01  linmin:  7.962e-05  t[s]:  10223.13
	FillingsUpdate:  mu: +0.098926367  nElectrons: 359.000000  magneticMoment: [ Abs: 33.44780  Tot: -0.00000 ]
	SubspaceRotationAdjust: set factor to 0.284
ElecMinimize: Iter: 102  F: -2196.177070592828386  |grad|_K:  1.265e-06  alpha:  2.720e-01  linmin: -6.140e-05  t[s]:  10306.63
	FillingsUpdate:  mu: +0.099171040  nElectrons: 359.000000  magneticMoment: [ Abs: 33.45444  Tot: -0.00000 ]
	SubspaceRotationAdjust: set factor to 0.346
ElecMinimize: Iter: 103  F: -2196.177182840988280  |grad|_K:  1.349e-06  alpha:  3.989e-01  linmin: -2.954e-06  t[s]:  10389.68
	FillingsUpdate:  mu: +0.098136018  nElectrons: 359.000000  magneticMoment: [ Abs: 33.45590  Tot: +0.00000 ]
	SubspaceRotationAdjust: set factor to 0.311
ElecMinimize: Iter: 104  F: -2196.177303067694083  |grad|_K:  1.780e-06  alpha:  3.772e-01  linmin:  4.028e-05  t[s]:  10473.28
	FillingsUpdate:  mu: +0.099372145  nElectrons: 359.000000  magneticMoment: [ Abs: 33.46034  Tot: +0.00000 ]
	SubspaceRotationAdjust: set factor to 0.259
ElecMinimize: Iter: 105  F: -2196.177412954223200  |grad|_K:  1.766e-06  alpha:  2.010e-01  linmin:  2.338e-05  t[s]:  10557.12
	FillingsUpdate:  mu: +0.098696829  nElectrons: 359.000000  magneticMoment: [ Abs: 33.45989  Tot: -0.00000 ]
	SubspaceRotationAdjust: set factor to 0.295
ElecMinimize: Iter: 106  F: -2196.177631830404607  |grad|_K:  1.838e-06  alpha:  4.040e-01  linmin:  4.831e-05  t[s]:  10642.13
	FillingsUpdate:  mu: +0.097558540  nElectrons: 359.000000  magneticMoment: [ Abs: 33.45877  Tot: -0.00000 ]
	SubspaceRotationAdjust: set factor to 0.311
ElecMinimize: Iter: 107  F: -2196.177882543666783  |grad|_K:  2.221e-06  alpha:  4.280e-01  linmin:  4.262e-05  t[s]:  10726.02
	FillingsUpdate:  mu: +0.099110595  nElectrons: 359.000000  magneticMoment: [ Abs: 33.46311  Tot: -0.00000 ]
	SubspaceRotationAdjust: set factor to 0.264
ElecMinimize: Iter: 108  F: -2196.178071556880695  |grad|_K:  2.182e-06  alpha:  2.235e-01  linmin:  3.710e-05  t[s]:  10810.22
	FillingsUpdate:  mu: +0.098406125  nElectrons: 359.000000  magneticMoment: [ Abs: 33.46067  Tot: +0.00000 ]
	SubspaceRotationAdjust: set factor to 0.28
ElecMinimize: Iter: 109  F: -2196.178310125961616  |grad|_K:  1.914e-06  alpha:  2.888e-01  linmin:  5.760e-05  t[s]:  10893.05
	FillingsUpdate:  mu: +0.098142131  nElectrons: 359.000000  magneticMoment: [ Abs: 33.45706  Tot: +0.00000 ]
	SubspaceRotationAdjust: set factor to 0.347
ElecMinimize: Iter: 110  F: -2196.178542066189038  |grad|_K:  1.841e-06  alpha:  3.655e-01  linmin:  3.375e-05  t[s]:  10975.70
	FillingsUpdate:  mu: +0.098942285  nElectrons: 359.000000  magneticMoment: [ Abs: 33.45319  Tot: +0.00000 ]
	SubspaceRotationAdjust: set factor to 0.325
ElecMinimize: Iter: 111  F: -2196.178732047352696  |grad|_K:  2.118e-06  alpha:  3.223e-01  linmin: -3.357e-05  t[s]:  11059.21
	FillingsUpdate:  mu: +0.097454618  nElectrons: 359.000000  magneticMoment: [ Abs: 33.44246  Tot: +0.00000 ]
	SubspaceRotationAdjust: set factor to 0.304
ElecMinimize: Iter: 112  F: -2196.178893698037427  |grad|_K:  1.941e-06  alpha:  2.046e-01  linmin: -3.692e-06  t[s]:  11142.95
	FillingsUpdate:  mu: +0.098104000  nElectrons: 359.000000  magneticMoment: [ Abs: 33.42985  Tot: +0.00000 ]
	SubspaceRotationAdjust: set factor to 0.387
ElecMinimize: Iter: 113  F: -2196.179108398850076  |grad|_K:  1.773e-06  alpha:  3.251e-01  linmin: -2.736e-05  t[s]:  11226.45
	FillingsUpdate:  mu: +0.098783122  nElectrons: 359.000000  magneticMoment: [ Abs: 33.41394  Tot: +0.00000 ]
	SubspaceRotationAdjust: set factor to 0.453
ElecMinimize: Iter: 114  F: -2196.179314163724030  |grad|_K:  1.853e-06  alpha:  3.725e-01  linmin: -1.538e-05  t[s]:  11309.24
	FillingsUpdate:  mu: +0.097651622  nElectrons: 359.000000  magneticMoment: [ Abs: 33.39705  Tot: -0.00000 ]
	SubspaceRotationAdjust: set factor to 0.393
ElecMinimize: Iter: 115  F: -2196.179444724543828  |grad|_K:  2.097e-06  alpha:  2.156e-01  linmin: -1.195e-05  t[s]:  11392.48
	FillingsUpdate:  mu: +0.098802564  nElectrons: 359.000000  magneticMoment: [ Abs: 33.38223  Tot: -0.00000 ]
	SubspaceRotationAdjust: set factor to 0.394
ElecMinimize: Iter: 116  F: -2196.179583672205354  |grad|_K:  1.585e-06  alpha:  1.808e-01  linmin: -2.342e-05  t[s]:  11475.84
	FillingsUpdate:  mu: +0.098445998  nElectrons: 359.000000  magneticMoment: [ Abs: 33.36506  Tot: +0.00000 ]
	SubspaceRotationAdjust: set factor to 0.491
ElecMinimize: Iter: 117  F: -2196.179726078805743  |grad|_K:  1.405e-06  alpha:  3.236e-01  linmin:  3.031e-05  t[s]:  11561.34
	FillingsUpdate:  mu: +0.097857023  nElectrons: 359.000000  magneticMoment: [ Abs: 33.35387  Tot: -0.00000 ]
	SubspaceRotationAdjust: set factor to 0.544
ElecMinimize: Iter: 118  F: -2196.179841072724230  |grad|_K:  1.493e-06  alpha:  3.350e-01  linmin:  3.875e-05  t[s]:  11645.85
	FillingsUpdate:  mu: +0.098749942  nElectrons: 359.000000  magneticMoment: [ Abs: 33.35143  Tot: -0.00000 ]
	SubspaceRotationAdjust: set factor to 0.448
ElecMinimize: Iter: 119  F: -2196.179909468523419  |grad|_K:  1.673e-06  alpha:  1.807e-01  linmin:  7.967e-05  t[s]:  11728.92
	FillingsUpdate:  mu: +0.097993844  nElectrons: 359.000000  magneticMoment: [ Abs: 33.34598  Tot: -0.00000 ]
	SubspaceRotationAdjust: set factor to 0.436
ElecMinimize: Iter: 120  F: -2196.179989984503209  |grad|_K:  1.254e-06  alpha:  1.657e-01  linmin:  7.967e-05  t[s]:  11813.08
	FillingsUpdate:  mu: +0.098109270  nElectrons: 359.000000  magneticMoment: [ Abs: 33.34771  Tot: +0.00000 ]
	SubspaceRotationAdjust: set factor to 0.568
ElecMinimize: Iter: 121  F: -2196.180072501186714  |grad|_K:  1.084e-06  alpha:  3.020e-01  linmin: -5.832e-05  t[s]:  11896.93
	FillingsUpdate:  mu: +0.098309628  nElectrons: 359.000000  magneticMoment: [ Abs: 33.35583  Tot: -0.00000 ]
	SubspaceRotationAdjust: set factor to 0.72
ElecMinimize: Iter: 122  F: -2196.180139529030839  |grad|_K:  1.025e-06  alpha:  3.237e-01  linmin: -2.477e-05  t[s]:  11981.10
	FillingsUpdate:  mu: +0.097859399  nElectrons: 359.000000  magneticMoment: [ Abs: 33.36344  Tot: +0.00000 ]
	SubspaceRotationAdjust: set factor to 0.508
ElecMinimize: Iter: 123  F: -2196.180184115965403  |grad|_K:  1.356e-06  alpha:  2.411e-01  linmin:  1.151e-05  t[s]:  12065.01
	FillingsUpdate:  mu: +0.098725955  nElectrons: 359.000000  magneticMoment: [ Abs: 33.37138  Tot: +0.00000 ]
	SubspaceRotationAdjust: set factor to 0.424
ElecMinimize: Iter: 124  F: -2196.180213377717791  |grad|_K:  9.516e-07  alpha:  9.327e-02  linmin:  1.110e-04  t[s]:  12149.03
	FillingsUpdate:  mu: +0.098534353  nElectrons: 359.000000  magneticMoment: [ Abs: 33.37998  Tot: -0.00000 ]
	SubspaceRotationAdjust: set factor to 0.596
ElecMinimize: Iter: 125  F: -2196.180256687967812  |grad|_K:  8.076e-07  alpha:  2.780e-01  linmin:  4.417e-06  t[s]:  12232.75
	FillingsUpdate:  mu: +0.097892759  nElectrons: 359.000000  magneticMoment: [ Abs: 33.38462  Tot: -0.00000 ]
	SubspaceRotationAdjust: set factor to 0.462
ElecMinimize: Iter: 126  F: -2196.180283562070599  |grad|_K:  9.793e-07  alpha:  2.355e-01  linmin:  1.707e-05  t[s]:  12315.14
	FillingsUpdate:  mu: +0.098440012  nElectrons: 359.000000  magneticMoment: [ Abs: 33.39000  Tot: +0.00000 ]
	SubspaceRotationAdjust: set factor to 0.404
ElecMinimize: Iter: 127  F: -2196.180302320896772  |grad|_K:  7.264e-07  alpha:  1.137e-01  linmin:  5.185e-05  t[s]:  12397.00
	FillingsUpdate:  mu: +0.098390360  nElectrons: 359.000000  magneticMoment: [ Abs: 33.39592  Tot: +0.00000 ]
	SubspaceRotationAdjust: set factor to 0.57
ElecMinimize: Iter: 128  F: -2196.180329073498342  |grad|_K:  6.347e-07  alpha:  2.920e-01  linmin:  1.771e-07  t[s]:  12479.62
	FillingsUpdate:  mu: +0.097907196  nElectrons: 359.000000  magneticMoment: [ Abs: 33.39800  Tot: -0.00000 ]
	SubspaceRotationAdjust: set factor to 0.435
ElecMinimize: Iter: 129  F: -2196.180345777688672  |grad|_K:  8.011e-07  alpha:  2.364e-01  linmin:  3.027e-05  t[s]:  12562.94
	FillingsUpdate:  mu: +0.098339992  nElectrons: 359.000000  magneticMoment: [ Abs: 33.40102  Tot: -0.00000 ]
	SubspaceRotationAdjust: set factor to 0.415
ElecMinimize: Iter: 130  F: -2196.180359983092330  |grad|_K:  5.888e-07  alpha:  1.285e-01  linmin:  3.501e-05  t[s]:  12646.33
	FillingsUpdate:  mu: +0.098327995  nElectrons: 359.000000  magneticMoment: [ Abs: 33.40270  Tot: +0.00000 ]
	SubspaceRotationAdjust: set factor to 0.564
ElecMinimize: Iter: 131  F: -2196.180378811876380  |grad|_K:  5.469e-07  alpha:  3.117e-01  linmin: -4.449e-06  t[s]:  12729.85
	FillingsUpdate:  mu: +0.097946823  nElectrons: 359.000000  magneticMoment: [ Abs: 33.40195  Tot: +0.00000 ]
	SubspaceRotationAdjust: set factor to 0.429
ElecMinimize: Iter: 132  F: -2196.180391715698988  |grad|_K:  7.078e-07  alpha:  2.458e-01  linmin:  2.342e-05  t[s]:  12814.46
	FillingsUpdate:  mu: +0.098346589  nElectrons: 359.000000  magneticMoment: [ Abs: 33.40215  Tot: -0.00000 ]
	SubspaceRotationAdjust: set factor to 0.398
ElecMinimize: Iter: 133  F: -2196.180402974264325  |grad|_K:  5.286e-07  alpha:  1.298e-01  linmin:  1.978e-05  t[s]:  12899.02
	FillingsUpdate:  mu: +0.098320602  nElectrons: 359.000000  magneticMoment: [ Abs: 33.40007  Tot: +0.00000 ]
	SubspaceRotationAdjust: set factor to 0.539
ElecMinimize: Iter: 134  F: -2196.180418465480216  |grad|_K:  4.953e-07  alpha:  3.179e-01  linmin:  1.531e-06  t[s]:  12982.63
	FillingsUpdate:  mu: +0.097989430  nElectrons: 359.000000  magneticMoment: [ Abs: 33.39762  Tot: +0.00000 ]
	SubspaceRotationAdjust: set factor to 0.416
ElecMinimize: Iter: 135  F: -2196.180428200153074  |grad|_K:  6.093e-07  alpha:  2.263e-01  linmin:  6.357e-06  t[s]:  13066.34
	FillingsUpdate:  mu: +0.098367450  nElectrons: 359.000000  magneticMoment: [ Abs: 33.39640  Tot: +0.00000 ]
	SubspaceRotationAdjust: set factor to 0.406
ElecMinimize: Iter: 136  F: -2196.180437458095184  |grad|_K:  4.685e-07  alpha:  1.430e-01  linmin:  2.624e-06  t[s]:  13149.27
	FillingsUpdate:  mu: +0.098343114  nElectrons: 359.000000  magneticMoment: [ Abs: 33.39267  Tot: +0.00000 ]
	SubspaceRotationAdjust: set factor to 0.542
ElecMinimize: Iter: 137  F: -2196.180450540831771  |grad|_K:  4.652e-07  alpha:  3.409e-01  linmin:  2.729e-06  t[s]:  13232.66
	FillingsUpdate:  mu: +0.097928159  nElectrons: 359.000000  magneticMoment: [ Abs: 33.38897  Tot: +0.00000 ]
	SubspaceRotationAdjust: set factor to 0.418
ElecMinimize: Iter: 138  F: -2196.180460574496010  |grad|_K:  6.231e-07  alpha:  2.650e-01  linmin:  6.000e-06  t[s]:  13315.50
	FillingsUpdate:  mu: +0.098244431  nElectrons: 359.000000  magneticMoment: [ Abs: 33.38752  Tot: +0.00000 ]
	SubspaceRotationAdjust: set factor to 0.383
ElecMinimize: Iter: 139  F: -2196.180469915411322  |grad|_K:  4.925e-07  alpha:  1.381e-01  linmin:  8.891e-06  t[s]:  13398.88
	FillingsUpdate:  mu: +0.098207778  nElectrons: 359.000000  magneticMoment: [ Abs: 33.38539  Tot: -0.00000 ]
	SubspaceRotationAdjust: set factor to 0.5
ElecMinimize: Iter: 140  F: -2196.180484041270120  |grad|_K:  4.898e-07  alpha:  3.334e-01  linmin:  1.149e-06  t[s]:  13482.20
	FillingsUpdate:  mu: +0.097836282  nElectrons: 359.000000  magneticMoment: [ Abs: 33.38358  Tot: +0.00000 ]
	SubspaceRotationAdjust: set factor to 0.404
ElecMinimize: Iter: 141  F: -2196.180494462158094  |grad|_K:  6.066e-07  alpha:  2.483e-01  linmin:  7.236e-07  t[s]:  13565.75
	FillingsUpdate:  mu: +0.098167340  nElectrons: 359.000000  magneticMoment: [ Abs: 33.38384  Tot: -0.00000 ]
	SubspaceRotationAdjust: set factor to 0.379
ElecMinimize: Iter: 142  F: -2196.180504117697183  |grad|_K:  4.824e-07  alpha:  1.504e-01  linmin:  3.221e-06  t[s]:  13649.82
	FillingsUpdate:  mu: +0.098093946  nElectrons: 359.000000  magneticMoment: [ Abs: 33.38427  Tot: -0.00000 ]
	SubspaceRotationAdjust: set factor to 0.499
ElecMinimize: Iter: 143  F: -2196.180517796844924  |grad|_K:  4.745e-07  alpha:  3.367e-01  linmin:  1.570e-05  t[s]:  13733.34
	FillingsUpdate:  mu: +0.097747559  nElectrons: 359.000000  magneticMoment: [ Abs: 33.38561  Tot: -0.00000 ]
	SubspaceRotationAdjust: set factor to 0.405
ElecMinimize: Iter: 144  F: -2196.180528034051804  |grad|_K:  6.118e-07  alpha:  2.605e-01  linmin:  1.923e-06  t[s]:  13817.31
	FillingsUpdate:  mu: +0.098184477  nElectrons: 359.000000  magneticMoment: [ Abs: 33.38993  Tot: -0.00000 ]
	SubspaceRotationAdjust: set factor to 0.392
ElecMinimize: Iter: 145  F: -2196.180538609442920  |grad|_K:  5.097e-07  alpha:  1.623e-01  linmin:  5.020e-06  t[s]:  13901.79
	FillingsUpdate:  mu: +0.098246534  nElectrons: 359.000000  magneticMoment: [ Abs: 33.39621  Tot: +0.00000 ]
	SubspaceRotationAdjust: set factor to 0.513
ElecMinimize: Iter: 146  F: -2196.180553983533173  |grad|_K:  5.149e-07  alpha:  3.386e-01  linmin:  2.684e-07  t[s]:  13985.45
	FillingsUpdate:  mu: +0.097862632  nElectrons: 359.000000  magneticMoment: [ Abs: 33.40094  Tot: -0.00000 ]
	SubspaceRotationAdjust: set factor to 0.417
ElecMinimize: Iter: 147  F: -2196.180567090545992  |grad|_K:  6.730e-07  alpha:  2.821e-01  linmin:  1.888e-05  t[s]:  14069.52
	FillingsUpdate:  mu: +0.098252240  nElectrons: 359.000000  magneticMoment: [ Abs: 33.40705  Tot: -0.00000 ]
	SubspaceRotationAdjust: set factor to 0.398
ElecMinimize: Iter: 148  F: -2196.180578952465112  |grad|_K:  5.719e-07  alpha:  1.516e-01  linmin:  2.425e-05  t[s]:  14153.79
	FillingsUpdate:  mu: +0.098198535  nElectrons: 359.000000  magneticMoment: [ Abs: 33.41557  Tot: -0.00000 ]
	SubspaceRotationAdjust: set factor to 0.532
ElecMinimize: Iter: 149  F: -2196.180598083775749  |grad|_K:  5.798e-07  alpha:  3.371e-01  linmin:  4.407e-05  t[s]:  14236.68
	FillingsUpdate:  mu: +0.097832979  nElectrons: 359.000000  magneticMoment: [ Abs: 33.42134  Tot: -0.00000 ]
	SubspaceRotationAdjust: set factor to 0.428
ElecMinimize: Iter: 150  F: -2196.180613628197989  |grad|_K:  7.717e-07  alpha:  2.654e-01  linmin:  1.809e-05  t[s]:  14320.31
	FillingsUpdate:  mu: +0.098415322  nElectrons: 359.000000  magneticMoment: [ Abs: 33.42825  Tot: +0.00000 ]
	SubspaceRotationAdjust: set factor to 0.414
ElecMinimize: Iter: 151  F: -2196.180629204934576  |grad|_K:  6.454e-07  alpha:  1.514e-01  linmin:  1.590e-05  t[s]:  14404.62
	FillingsUpdate:  mu: +0.098490042  nElectrons: 359.000000  magneticMoment: [ Abs: 33.43490  Tot: -0.00000 ]
	SubspaceRotationAdjust: set factor to 0.539
ElecMinimize: Iter: 152  F: -2196.180653111471202  |grad|_K:  6.570e-07  alpha:  3.299e-01  linmin:  2.022e-05  t[s]:  14488.88
	FillingsUpdate:  mu: +0.097976905  nElectrons: 359.000000  magneticMoment: [ Abs: 33.43734  Tot: +0.00000 ]
	SubspaceRotationAdjust: set factor to 0.443
ElecMinimize: Iter: 153  F: -2196.180672073282949  |grad|_K:  8.577e-07  alpha:  2.510e-01  linmin:  1.297e-05  t[s]:  14572.97
	FillingsUpdate:  mu: +0.098486259  nElectrons: 359.000000  magneticMoment: [ Abs: 33.44034  Tot: -0.00000 ]
	SubspaceRotationAdjust: set factor to 0.438
ElecMinimize: Iter: 154  F: -2196.180691074875540  |grad|_K:  6.969e-07  alpha:  1.486e-01  linmin:  3.304e-06  t[s]:  14657.41
	FillingsUpdate:  mu: +0.098509746  nElectrons: 359.000000  magneticMoment: [ Abs: 33.44036  Tot: -0.00000 ]
	SubspaceRotationAdjust: set factor to 0.584
ElecMinimize: Iter: 155  F: -2196.180718830838941  |grad|_K:  7.175e-07  alpha:  3.282e-01  linmin:  3.252e-05  t[s]:  14740.78
	FillingsUpdate:  mu: +0.097992546  nElectrons: 359.000000  magneticMoment: [ Abs: 33.43711  Tot: -0.00000 ]
	SubspaceRotationAdjust: set factor to 0.46
ElecMinimize: Iter: 156  F: -2196.180739563033057  |grad|_K:  9.232e-07  alpha:  2.309e-01  linmin:  2.652e-06  t[s]:  14824.17
	FillingsUpdate:  mu: +0.098550155  nElectrons: 359.000000  magneticMoment: [ Abs: 33.43434  Tot: -0.00000 ]
	SubspaceRotationAdjust: set factor to 0.474
ElecMinimize: Iter: 157  F: -2196.180760074017144  |grad|_K:  7.289e-07  alpha:  1.379e-01  linmin: -3.764e-07  t[s]:  14908.81
	FillingsUpdate:  mu: +0.098554195  nElectrons: 359.000000  magneticMoment: [ Abs: 33.42730  Tot: +0.00000 ]
	SubspaceRotationAdjust: set factor to 0.648
ElecMinimize: Iter: 158  F: -2196.180788517960082  |grad|_K:  7.273e-07  alpha:  3.077e-01  linmin:  4.577e-05  t[s]:  14992.80
	FillingsUpdate:  mu: +0.098092638  nElectrons: 359.000000  magneticMoment: [ Abs: 33.42100  Tot: +0.00000 ]
	SubspaceRotationAdjust: set factor to 0.501
ElecMinimize: Iter: 159  F: -2196.180808822161907  |grad|_K:  9.438e-07  alpha:  2.206e-01  linmin:  5.017e-06  t[s]:  15076.12
	FillingsUpdate:  mu: +0.098668044  nElectrons: 359.000000  magneticMoment: [ Abs: 33.41707  Tot: +0.00000 ]
	SubspaceRotationAdjust: set factor to 0.511
ElecMinimize: Iter: 160  F: -2196.180827494603818  |grad|_K:  7.175e-07  alpha:  1.207e-01  linmin:  8.484e-06  t[s]:  15159.79
	FillingsUpdate:  mu: +0.098686219  nElectrons: 359.000000  magneticMoment: [ Abs: 33.41091  Tot: +0.00000 ]
	SubspaceRotationAdjust: set factor to 0.707
ElecMinimize: Iter: 161  F: -2196.180851850662293  |grad|_K:  6.674e-07  alpha:  2.718e-01  linmin:  2.688e-05  t[s]:  15243.75
	FillingsUpdate:  mu: +0.098236769  nElectrons: 359.000000  magneticMoment: [ Abs: 33.40662  Tot: -0.00000 ]
	SubspaceRotationAdjust: set factor to 0.531
ElecMinimize: Iter: 162  F: -2196.180868046133128  |grad|_K:  8.623e-07  alpha:  2.084e-01  linmin:  1.007e-05  t[s]:  15327.93
	FillingsUpdate:  mu: +0.098659207  nElectrons: 359.000000  magneticMoment: [ Abs: 33.40530  Tot: -0.00000 ]
	SubspaceRotationAdjust: set factor to 0.541
ElecMinimize: Iter: 163  F: -2196.180881831574879  |grad|_K:  6.375e-07  alpha:  1.071e-01  linmin:  1.669e-05  t[s]:  15411.54
	FillingsUpdate:  mu: +0.098620008  nElectrons: 359.000000  magneticMoment: [ Abs: 33.40402  Tot: +0.00000 ]
	SubspaceRotationAdjust: set factor to 0.713
ElecMinimize: Iter: 164  F: -2196.180900759200540  |grad|_K:  6.098e-07  alpha:  2.675e-01  linmin:  7.571e-06  t[s]:  15495.83
	FillingsUpdate:  mu: +0.098214834  nElectrons: 359.000000  magneticMoment: [ Abs: 33.40377  Tot: +0.00000 ]
	SubspaceRotationAdjust: set factor to 0.517
ElecMinimize: Iter: 165  F: -2196.180913638089351  |grad|_K:  8.079e-07  alpha:  1.977e-01  linmin:  6.858e-06  t[s]:  15579.82
	FillingsUpdate:  mu: +0.098606821  nElectrons: 359.000000  magneticMoment: [ Abs: 33.40608  Tot: -0.00000 ]
	SubspaceRotationAdjust: set factor to 0.576
ElecMinimize: Iter: 166  F: -2196.180926233501395  |grad|_K:  5.976e-07  alpha:  1.110e-01  linmin:  7.579e-06  t[s]:  15662.21
	FillingsUpdate:  mu: +0.098610145  nElectrons: 359.000000  magneticMoment: [ Abs: 33.40996  Tot: +0.00000 ]
	SubspaceRotationAdjust: set factor to 0.661
ElecMinimize: Iter: 167  F: -2196.180944300389456  |grad|_K:  6.360e-07  alpha:  2.896e-01  linmin: -3.543e-06  t[s]:  15745.73
	FillingsUpdate:  mu: +0.098168257  nElectrons: 359.000000  magneticMoment: [ Abs: 33.41252  Tot: -0.00000 ]
	SubspaceRotationAdjust: set factor to 0.501
ElecMinimize: Iter: 168  F: -2196.180956125749162  |grad|_K:  8.052e-07  alpha:  1.659e-01  linmin: -1.345e-05  t[s]:  15828.46
	FillingsUpdate:  mu: +0.098520962  nElectrons: 359.000000  magneticMoment: [ Abs: 33.41873  Tot: -0.00000 ]
	SubspaceRotationAdjust: set factor to 0.626
ElecMinimize: Iter: 169  F: -2196.180971909423533  |grad|_K:  6.080e-07  alpha:  1.390e-01  linmin: -7.811e-06  t[s]:  15911.82
	FillingsUpdate:  mu: +0.098653795  nElectrons: 359.000000  magneticMoment: [ Abs: 33.42667  Tot: +0.00000 ]
	SubspaceRotationAdjust: set factor to 0.616
ElecMinimize: Iter: 170  F: -2196.180990791147451  |grad|_K:  7.071e-07  alpha:  2.914e-01  linmin: -7.614e-06  t[s]:  15996.11
	FillingsUpdate:  mu: +0.098216857  nElectrons: 359.000000  magneticMoment: [ Abs: 33.43036  Tot: -0.00000 ]
	SubspaceRotationAdjust: set factor to 0.54
ElecMinimize: Iter: 171  F: -2196.181001673533501  |grad|_K:  7.549e-07  alpha:  1.228e-01  linmin: -3.954e-05  t[s]:  16079.49
	FillingsUpdate:  mu: +0.098447370  nElectrons: 359.000000  magneticMoment: [ Abs: 33.43889  Tot: +0.00000 ]
	SubspaceRotationAdjust: set factor to 0.774
ElecMinimize: Iter: 172  F: -2196.181020595528480  |grad|_K:  6.246e-07  alpha:  1.883e-01  linmin: -2.979e-06  t[s]:  16162.65
	FillingsUpdate:  mu: +0.098767313  nElectrons: 359.000000  magneticMoment: [ Abs: 33.44629  Tot: +0.00000 ]
	SubspaceRotationAdjust: set factor to 0.574
ElecMinimize: Iter: 173  F: -2196.181037316990569  |grad|_K:  8.818e-07  alpha:  2.449e-01  linmin: -4.886e-07  t[s]:  16246.01
	FillingsUpdate:  mu: +0.098356134  nElectrons: 359.000000  magneticMoment: [ Abs: 33.44933  Tot: +0.00000 ]
	SubspaceRotationAdjust: set factor to 0.556
ElecMinimize: Iter: 174  F: -2196.181048672690395  |grad|_K:  6.738e-07  alpha:  8.214e-02  linmin: -6.032e-05  t[s]:  16330.03
ElecMinimize: 	Predicted alpha/alphaT>3.000000, increasing alphaT to 2.464068e-01.
	FillingsUpdate:  mu: +0.098245193  nElectrons: 359.000000  magneticMoment: [ Abs: 33.45509  Tot: -0.00000 ]
	SubspaceRotationAdjust: set factor to 0.538
ElecMinimize: Iter: 175  F: -2196.181069320355618  |grad|_K:  7.557e-07  alpha:  2.568e-01  linmin:  1.644e-05  t[s]:  16435.61
	FillingsUpdate:  mu: +0.098717275  nElectrons: 359.000000  magneticMoment: [ Abs: 33.45875  Tot: +0.00000 ]
	SubspaceRotationAdjust: set factor to 0.51
ElecMinimize: Iter: 176  F: -2196.181080430209931  |grad|_K:  7.420e-07  alpha:  1.118e-01  linmin:  3.772e-06  t[s]:  16520.76
	FillingsUpdate:  mu: +0.098707501  nElectrons: 359.000000  magneticMoment: [ Abs: 33.46232  Tot: -0.00000 ]
	SubspaceRotationAdjust: set factor to 0.63
ElecMinimize: Iter: 177  F: -2196.181100384520050  |grad|_K:  6.827e-07  alpha:  2.077e-01  linmin:  1.501e-05  t[s]:  16605.05
	FillingsUpdate:  mu: +0.098285903  nElectrons: 359.000000  magneticMoment: [ Abs: 33.46271  Tot: -0.00000 ]
	SubspaceRotationAdjust: set factor to 0.479
ElecMinimize: Iter: 178  F: -2196.181112093277989  |grad|_K:  8.384e-07  alpha:  1.436e-01  linmin:  1.658e-07  t[s]:  16688.04
	FillingsUpdate:  mu: +0.098629038  nElectrons: 359.000000  magneticMoment: [ Abs: 33.46396  Tot: +0.00000 ]
	SubspaceRotationAdjust: set factor to 0.738
ElecMinimize: Iter: 179  F: -2196.181130195425339  |grad|_K:  6.306e-07  alpha:  1.473e-01  linmin:  6.939e-07  t[s]:  16771.18
	FillingsUpdate:  mu: +0.098949147  nElectrons: 359.000000  magneticMoment: [ Abs: 33.46351  Tot: +0.00000 ]
	SubspaceRotationAdjust: set factor to 0.526
ElecMinimize: Iter: 180  F: -2196.181146364252982  |grad|_K:  8.995e-07  alpha:  2.325e-01  linmin: -5.080e-06  t[s]:  16855.08
	FillingsUpdate:  mu: +0.098554948  nElectrons: 359.000000  magneticMoment: [ Abs: 33.46094  Tot: -0.00000 ]
	SubspaceRotationAdjust: set factor to 0.577
ElecMinimize: Iter: 181  F: -2196.181158324105581  |grad|_K:  6.574e-07  alpha:  8.323e-02  linmin: -5.449e-05  t[s]:  16939.94
	FillingsUpdate:  mu: +0.098411231  nElectrons: 359.000000  magneticMoment: [ Abs: 33.45668  Tot: +0.00000 ]
	SubspaceRotationAdjust: set factor to 0.481
ElecMinimize: Iter: 182  F: -2196.181176939332090  |grad|_K:  7.925e-07  alpha:  2.442e-01  linmin:  2.050e-05  t[s]:  17024.00
	FillingsUpdate:  mu: +0.098885299  nElectrons: 359.000000  magneticMoment: [ Abs: 33.45489  Tot: -0.00000 ]
	SubspaceRotationAdjust: set factor to 0.477
ElecMinimize: Iter: 183  F: -2196.181187230074556  |grad|_K:  6.701e-07  alpha:  9.534e-02  linmin:  3.816e-05  t[s]:  17107.77
	FillingsUpdate:  mu: +0.098992303  nElectrons: 359.000000  magneticMoment: [ Abs: 33.45009  Tot: -0.00000 ]
	SubspaceRotationAdjust: set factor to 0.444
ElecMinimize: Iter: 184  F: -2196.181204183214504  |grad|_K:  7.137e-07  alpha:  2.177e-01  linmin:  2.020e-09  t[s]:  17191.54
	FillingsUpdate:  mu: +0.098602988  nElectrons: 359.000000  magneticMoment: [ Abs: 33.44624  Tot: -0.00000 ]
	SubspaceRotationAdjust: set factor to 0.453
ElecMinimize: Iter: 185  F: -2196.181213719429252  |grad|_K:  6.273e-07  alpha:  1.063e-01  linmin: -1.759e-05  t[s]:  17274.24
	FillingsUpdate:  mu: +0.098464570  nElectrons: 359.000000  magneticMoment: [ Abs: 33.44084  Tot: +0.00000 ]
	SubspaceRotationAdjust: set factor to 0.383
ElecMinimize: Iter: 186  F: -2196.181228767105495  |grad|_K:  7.081e-07  alpha:  2.184e-01  linmin:  2.382e-05  t[s]:  17358.09
	FillingsUpdate:  mu: +0.098865553  nElectrons: 359.000000  magneticMoment: [ Abs: 33.43833  Tot: +0.00000 ]
	SubspaceRotationAdjust: set factor to 0.42
ElecMinimize: Iter: 187  F: -2196.181238076982936  |grad|_K:  5.877e-07  alpha:  1.081e-01  linmin:  2.911e-05  t[s]:  17440.62
	FillingsUpdate:  mu: +0.099015198  nElectrons: 359.000000  magneticMoment: [ Abs: 33.43412  Tot: +0.00000 ]
	SubspaceRotationAdjust: set factor to 0.331
ElecMinimize: Iter: 188  F: -2196.181251545657233  |grad|_K:  7.102e-07  alpha:  2.238e-01  linmin: -2.608e-05  t[s]:  17523.86
	FillingsUpdate:  mu: +0.098668993  nElectrons: 359.000000  magneticMoment: [ Abs: 33.43016  Tot: +0.00000 ]
	SubspaceRotationAdjust: set factor to 0.401
[...]
	FillingsUpdate:  mu: +0.096711534  nElectrons: 359.000000  magneticMoment: [ Abs: 33.39144  Tot: +0.00000 ]
	SubspaceRotationAdjust: set factor to 0.423
ElecMinimize: Iter:  15  F: -2196.207548167817549  |grad|_K:  9.896e-08  alpha:  3.406e-01  linmin:  4.386e-06  t[s]:  79132.14
	FillingsUpdate:  mu: +0.096718812  nElectrons: 359.000000  magneticMoment: [ Abs: 33.39108  Tot: +0.00000 ]
	SubspaceRotationAdjust: set factor to 0.534
ElecMinimize: Iter:  16  F: -2196.207548787901942  |grad|_K:  8.174e-08  alpha:  3.620e-01  linmin:  2.463e-06  t[s]:  79217.23
	FillingsUpdate:  mu: +0.096734696  nElectrons: 359.000000  magneticMoment: [ Abs: 33.39051  Tot: +0.00000 ]
	SubspaceRotationAdjust: set factor to 0.606
ElecMinimize: Iter:  17  F: -2196.207549260946507  |grad|_K:  7.867e-08  alpha:  4.045e-01  linmin: -2.898e-05  t[s]:  79301.80
	FillingsUpdate:  mu: +0.096700500  nElectrons: 359.000000  magneticMoment: [ Abs: 33.39034  Tot: -0.00000 ]
	SubspaceRotationAdjust: set factor to 0.59
ElecMinimize: Iter:  18  F: -2196.207549656607171  |grad|_K:  8.654e-08  alpha:  3.645e-01  linmin:  3.909e-06  t[s]:  79386.70
	FillingsUpdate:  mu: +0.096741843  nElectrons: 359.000000  magneticMoment: [ Abs: 33.38956  Tot: -0.00000 ]
	SubspaceRotationAdjust: set factor to 0.554
ElecMinimize: Iter:  19  F: -2196.207550107469160  |grad|_K:  8.658e-08  alpha:  3.447e-01  linmin: -1.016e-05  t[s]:  79471.44
	FillingsUpdate:  mu: +0.096707978  nElectrons: 359.000000  magneticMoment: [ Abs: 33.38900  Tot: -0.00000 ]
	SubspaceRotationAdjust: set factor to 0.59
ElecMinimize: Iter:  20  F: -2196.207550635702319  |grad|_K:  8.629e-08  alpha:  4.027e-01  linmin:  4.726e-06  t[s]:  79554.84
ElecMinimize: Converged (|Delta F|<1.000000e-06 for 5 iters).
Setting wave functions to eigenvectors of Hamiltonian

# Ionic positions in lattice coordinates:
ion Ni   0.003573584036249   0.004866507784658   0.149382111704150 1
ion Ni   0.503384945928377   0.502100250879097   0.148715168897703 1
ion Ni   0.247476209134045   0.250877823503873   0.050900591369233 1
ion Ni   0.245377440358328   0.747100436341422   0.051773619027752 1
ion Ni  -0.246898796964968   0.748873610627582   0.050378781528770 1
ion Ni   0.250000000000000   0.750000000000000  -0.150000000000000 0
ion Ni  -0.250000000000000   0.250000000000000  -0.150000000000000 0
ion V   0.497346849594315  -0.004390906587164   0.147656555526519 1
ion V   0.001481288862183   0.508305072024268   0.154999479246018 1
ion V   0.500000000000000   0.000000000000000  -0.050000000000000 0
ion V   0.000000000000000   0.500000000000000  -0.050000000000000 0
ion V   0.500000000000000   0.500000000000000  -0.050000000000000 0
ion Co  -0.245554840026499   0.258728604637792   0.054202857993372 1
ion Co   0.000000000000000   0.000000000000000  -0.050000000000000 0
ion Co  -0.250000000000000   0.750000000000000  -0.150000000000000 0
ion Cr   0.250000000000000   0.250000000000000  -0.150000000000000 0
ion O   0.269934560282916   0.240545789870071   0.144498859918720 1
ion O   0.272308366268318   0.757098664978493   0.144491884299068 1
ion O  -0.267357395848871   0.240912534083337   0.146761762404794 1
ion O  -0.261319793187133   0.757305019713530   0.142401686498487 1
ion O   0.005365958920174  -0.005461710049274   0.049516639558951 1
ion O   0.502836997603098  -0.006389377519859   0.045222324203705 1
ion O   0.009410696032278   0.502874938672125   0.051499171363996 1
ion O   0.498480872732295   0.505545063964912   0.038975795356984 1
ion O   0.250000000000000   0.250000000000000  -0.050000000000000 0
ion O   0.250000000000000   0.750000000000000  -0.050000000000000 0
ion O  -0.250000000000000   0.250000000000000  -0.050000000000000 0
ion O  -0.250000000000000   0.750000000000000  -0.050000000000000 0
ion O   0.000000000000000   0.000000000000000  -0.150000000000000 0
ion O   0.500000000000000   0.000000000000000  -0.150000000000000 0
ion O   0.000000000000000   0.500000000000000  -0.150000000000000 0
ion O   0.500000000000000   0.500000000000000  -0.150000000000000 0
ion O  -0.009337598544660  -0.019613996448021   0.237195907504628 1
ion H   0.089609040587523   0.084126091396728   0.256896099082968 1

# Forces in Lattice coordinates:
force Ni   0.004458838727051  -0.000004354663611  -0.011947143180766 1
force Ni   0.003363460986787   0.004077072389246  -0.039762982423974 1
force Ni   0.010212390666849  -0.001162740490937   0.008915483405112 1
force Ni   0.011880080999113   0.008908379577747  -0.006428557626767 1
force Ni  -0.002806415175601   0.007780349461986   0.001178786152350 1
force Ni  -0.027770415502643   0.003446512319294  -0.299718476746515 0
force Ni   0.028259938224170  -0.002504909620511  -0.298246618809651 0
force V   0.007613205767883   0.000670586387251   0.006721737560492 1
force V   0.001263746107761   0.000654429464068  -0.072781136932895 1
force V  -0.043111162935921  -0.033136870183578  -0.395133960482697 0
force V   0.002762757119959   0.047510230433099   0.081471623398655 0
force V  -0.037921405208368   0.021847064859961  -0.777212445417127 0
force Co  -0.004395096650470  -0.008840490074771  -0.088436565450131 1
force Co   0.013879354840786  -0.029084724916490  -0.099798621371195 0
force Co   0.085305777612732   0.001682324632933  -0.776006505996948 0
force Cr  -0.046122358940651  -0.005088397357072  -1.812364396529374 0
force O  -0.009145205890604   0.007607448439254   0.034631800091320 1
force O  -0.008152030118369  -0.003553417746020   0.025862430460137 1
force O   0.018122806078613   0.007642812107757   0.050662291249775 1
force O   0.011313875952014  -0.008454257895786  -0.001962870346508 1
force O   0.005098349203948   0.002488820526008   0.059649985300332 1
force O   0.002159743732377   0.001891295591146   0.001932947386985 1
force O  -0.002323592754113   0.002094649128254  -0.017021381121023 1
force O  -0.000057627127321   0.001349481378368   0.020279943436361 1
force O   0.163803503581495  -0.042933551361084   0.977147826292255 0
force O   0.277752194038636   0.032578005430020   0.419019081797687 0
force O  -0.265651353170793  -0.017239746604081   0.556664749107914 0
force O  -0.179772794698073   0.044599088973102   0.230746625027924 0
force O   0.014062629304410   0.010626101094992   0.277724915492673 0
force O  -0.004435817766599   0.013595183937915   0.912295141499406 0
force O   0.013159155016160  -0.025195518853655   0.229256513619841 0
force O  -0.011472242614433  -0.000969370715638   0.587301560405274 0
force O   0.003983063495696  -0.015364046762127   0.018113200760650 1
force H  -0.015672555321053  -0.023848707660206  -0.006880602488083 1

# Energy components:
   Eewald =     5947.1905491279903799
       EH =     7923.4220365603741811
     Eloc =   -16205.8675020809496345
      Enl =     -606.2352296749379548
   Epulay =       -0.0004890017348034
      Exc =     -260.5527075480378016
       KE =     1004.4198776676958005
        U =        1.4164730287476988
-------------------------------------
     Etot =    -2196.2069919208520332
       TS =        0.0005587148502878
-------------------------------------
        F =    -2196.2075506357023187

IonicMinimize: Iter:  12  F: -2196.207550635702319  |grad|_K:  7.888e-04  alpha:  1.000e+00  linmin: -2.021e-03  t[s]:  79582.49

#--- Lowdin population analysis ---
# oxidation-state Ni +3.626 +3.298 +3.442 +3.460 +3.462 +3.528 +3.539
# magnetic-moments Ni +0.944 -0.530 +0.860 +0.925 -0.877 +0.683 +0.683
# oxidation-state V +1.384 +1.180 +1.263 +1.015 +1.228
# magnetic-moments V -2.056 +2.972 +2.102 -2.794 +2.003
# oxidation-state Co +1.201 +1.232 +1.269
# magnetic-moments Co -2.628 -2.696 +2.730
# oxidation-state Cr +2.978
# magnetic-moments Cr -3.817
# oxidation-state O -0.735 -0.714 -0.829 -0.724 -0.776 -0.774 -0.780 -0.737 -0.876 -0.859 -0.915 -0.909 -0.870 -0.826 -0.842 -0.841 -0.764
# magnetic-moments O +0.212 +0.248 -0.013 -0.121 +0.077 -0.006 +0.094 -0.028 +0.023 +0.055 -0.032 -0.043 -0.000 +0.067 +0.152 +0.043 +0.236
# oxidation-state H +0.370
# magnetic-moments H -0.004


-------- Electronic minimization -----------
	FillingsUpdate:  mu: +0.106472318  nElectrons: 359.000000  magneticMoment: [ Abs: 33.38838  Tot: +0.00000 ]
ElecMinimize: Iter:   0  F: -2196.084909659521145  |grad|_K:  5.932e-05  alpha:  1.000e+00
	FillingsUpdate:  mu: +0.114258967  nElectrons: 359.000000  magneticMoment: [ Abs: 33.45570  Tot: -0.00000 ]
	SubspaceRotationAdjust: set factor to 0.381
ElecMinimize: Iter:   1  F: -2196.192077222919124  |grad|_K:  2.775e-05  alpha:  1.617e-01  linmin: -6.876e-03  t[s]:  79726.75
	FillingsUpdate:  mu: +0.105020914  nElectrons: 359.000000  magneticMoment: [ Abs: 33.38539  Tot: +0.00000 ]
	SubspaceRotationAdjust: set factor to 0.257
ElecMinimize: Iter:   2  F: -2196.201389796038711  |grad|_K:  9.736e-06  alpha:  9.760e-02  linmin: -5.237e-04  t[s]:  79810.48
	FillingsUpdate:  mu: +0.096924799  nElectrons: 359.000000  magneticMoment: [ Abs: 33.38789  Tot: +0.00000 ]
	SubspaceRotationAdjust: set factor to 0.314
ElecMinimize: Iter:   3  F: -2196.205548000319595  |grad|_K:  4.131e-06  alpha:  2.497e-01  linmin:  6.630e-04  t[s]:  79894.45
	FillingsUpdate:  mu: +0.096426374  nElectrons: 359.000000  magneticMoment: [ Abs: 33.39233  Tot: +0.00000 ]
	SubspaceRotationAdjust: set factor to 0.366
ElecMinimize: Iter:   4  F: -2196.206508863192994  |grad|_K:  2.730e-06  alpha:  3.269e-01  linmin:  1.423e-04  t[s]:  79977.89
	FillingsUpdate:  mu: +0.097544450  nElectrons: 359.000000  magneticMoment: [ Abs: 33.38606  Tot: +0.00000 ]
	SubspaceRotationAdjust: set factor to 0.416
ElecMinimize: Iter:   5  F: -2196.206992074276968  |grad|_K:  1.992e-06  alpha:  3.707e-01  linmin: -3.891e-04  t[s]:  80060.45
	FillingsUpdate:  mu: +0.096606767  nElectrons: 359.000000  magneticMoment: [ Abs: 33.38955  Tot: -0.00000 ]
	SubspaceRotationAdjust: set factor to 0.45
ElecMinimize: Iter:   6  F: -2196.207302125703336  |grad|_K:  1.794e-06  alpha:  4.364e-01  linmin:  5.232e-05  t[s]:  80143.35
	FillingsUpdate:  mu: +0.096816101  nElectrons: 359.000000  magneticMoment: [ Abs: 33.38738  Tot: -0.00000 ]
	SubspaceRotationAdjust: set factor to 0.51
ElecMinimize: Iter:   7  F: -2196.207488742192254  |grad|_K:  1.171e-06  alpha:  3.349e-01  linmin: -1.295e-05  t[s]:  80227.00
	FillingsUpdate:  mu: +0.096785738  nElectrons: 359.000000  magneticMoment: [ Abs: 33.38840  Tot: -0.00000 ]
	SubspaceRotationAdjust: set factor to 0.579
ElecMinimize: Iter:   8  F: -2196.207585012742129  |grad|_K:  7.331e-07  alpha:  4.006e-01  linmin:  1.455e-06  t[s]:  80310.41
	FillingsUpdate:  mu: +0.096653494  nElectrons: 359.000000  magneticMoment: [ Abs: 33.38744  Tot: +0.00000 ]
	SubspaceRotationAdjust: set factor to 0.613
ElecMinimize: Iter:   9  F: -2196.207616966840305  |grad|_K:  4.753e-07  alpha:  3.401e-01  linmin:  3.857e-07  t[s]:  80393.55
	FillingsUpdate:  mu: +0.096851215  nElectrons: 359.000000  magneticMoment: [ Abs: 33.38665  Tot: +0.00000 ]
	SubspaceRotationAdjust: set factor to 0.553
ElecMinimize: Iter:  10  F: -2196.207628929146722  |grad|_K:  3.397e-07  alpha:  3.030e-01  linmin: -2.042e-05  t[s]:  80476.70
	FillingsUpdate:  mu: +0.096702682  nElectrons: 359.000000  magneticMoment: [ Abs: 33.38745  Tot: -0.00000 ]
	SubspaceRotationAdjust: set factor to 0.395
ElecMinimize: Iter:  11  F: -2196.207633594246545  |grad|_K:  2.391e-07  alpha:  2.296e-01  linmin:  3.356e-05  t[s]:  80561.50
	FillingsUpdate:  mu: +0.096741222  nElectrons: 359.000000  magneticMoment: [ Abs: 33.38654  Tot: -0.00000 ]
	SubspaceRotationAdjust: set factor to 0.397
ElecMinimize: Iter:  12  F: -2196.207636407036716  |grad|_K:  1.567e-07  alpha:  2.820e-01  linmin: -3.656e-05  t[s]:  80644.89
	FillingsUpdate:  mu: +0.096751365  nElectrons: 359.000000  magneticMoment: [ Abs: 33.38635  Tot: -0.00000 ]
	SubspaceRotationAdjust: set factor to 0.482
ElecMinimize: Iter:  13  F: -2196.207637780381447  |grad|_K:  1.111e-07  alpha:  3.191e-01  linmin:  4.345e-06  t[s]:  80728.90
	FillingsUpdate:  mu: +0.096727554  nElectrons: 359.000000  magneticMoment: [ Abs: 33.38645  Tot: +0.00000 ]
	SubspaceRotationAdjust: set factor to 0.509
ElecMinimize: Iter:  14  F: -2196.207638494463026  |grad|_K:  9.399e-08  alpha:  3.312e-01  linmin:  1.380e-05  t[s]:  80812.10
	FillingsUpdate:  mu: +0.096745276  nElectrons: 359.000000  magneticMoment: [ Abs: 33.38607  Tot: +0.00000 ]
	SubspaceRotationAdjust: set factor to 0.588
ElecMinimize: Iter:  15  F: -2196.207638980993579  |grad|_K:  7.359e-08  alpha:  3.152e-01  linmin: -4.700e-06  t[s]:  80896.13
	FillingsUpdate:  mu: +0.096729831  nElectrons: 359.000000  magneticMoment: [ Abs: 33.38586  Tot: -0.00000 ]
	SubspaceRotationAdjust: set factor to 0.707
ElecMinimize: Iter:  16  F: -2196.207639399838172  |grad|_K:  7.163e-08  alpha:  4.422e-01  linmin:  1.043e-05  t[s]:  80979.50
	FillingsUpdate:  mu: +0.096736743  nElectrons: 359.000000  magneticMoment: [ Abs: 33.38562  Tot: -0.00000 ]
	SubspaceRotationAdjust: set factor to 0.837
ElecMinimize: Iter:  17  F: -2196.207639772900166  |grad|_K:  7.668e-08  alpha:  4.173e-01  linmin: -6.859e-06  t[s]:  81062.69
	FillingsUpdate:  mu: +0.096737662  nElectrons: 359.000000  magneticMoment: [ Abs: 33.38511  Tot: -0.00000 ]
	SubspaceRotationAdjust: set factor to 0.965
ElecMinimize: Iter:  18  F: -2196.207640214098774  |grad|_K:  8.366e-08  alpha:  4.290e-01  linmin:  1.414e-05  t[s]:  81146.53
ElecMinimize: Converged (|Delta F|<1.000000e-06 for 5 iters).
Setting wave functions to eigenvectors of Hamiltonian

# Ionic positions in lattice coordinates:
ion Ni   0.003994200236183   0.005386540825135   0.149354755400745 1
ion Ni   0.504078382370419   0.502450846261014   0.148463576754336 1
ion Ni   0.247691180095617   0.251152509633295   0.050947121005062 1
ion Ni   0.245446165528935   0.747317121400993   0.051758632614864 1
ion Ni  -0.246279429813804   0.749248027734693   0.050232157559017 1
ion Ni   0.250000000000000   0.750000000000000  -0.150000000000000 0
ion Ni  -0.250000000000000   0.250000000000000  -0.150000000000000 0
ion V   0.497912796856812  -0.004139202653266   0.147662378588344 1
ion V   0.001496527906994   0.508792839409179   0.154982027047283 1
ion V   0.500000000000000   0.000000000000000  -0.050000000000000 0
ion V   0.000000000000000   0.500000000000000  -0.050000000000000 0
ion V   0.500000000000000   0.500000000000000  -0.050000000000000 0
ion Co  -0.245340740113915   0.258906566443933   0.054063923352182 1
ion Co   0.000000000000000   0.000000000000000  -0.050000000000000 0
ion Co  -0.250000000000000   0.750000000000000  -0.150000000000000 0
ion Cr   0.250000000000000   0.250000000000000  -0.150000000000000 0
ion O   0.270325487181151   0.240481780726344   0.144519522410942 1
ion O   0.272483092490283   0.757217778316002   0.144443938827584 1
ion O  -0.266638438014930   0.240862298689103   0.146703471168168 1
ion O  -0.260692511026580   0.757631919645141   0.142113419483602 1
ion O   0.005785572381985  -0.005108682082150   0.049350136421031 1
ion O   0.503706302353640  -0.006137171031594   0.045364838737602 1
ion O   0.009676708936423   0.503331298532775   0.051067124301476 1
ion O   0.498557243417126   0.505477377260541   0.038998446634453 1
ion O   0.250000000000000   0.250000000000000  -0.050000000000000 0
ion O   0.250000000000000   0.750000000000000  -0.050000000000000 0
ion O  -0.250000000000000   0.250000000000000  -0.050000000000000 0
ion O  -0.250000000000000   0.750000000000000  -0.050000000000000 0
ion O   0.000000000000000   0.000000000000000  -0.150000000000000 0
ion O   0.500000000000000   0.000000000000000  -0.150000000000000 0
ion O   0.000000000000000   0.500000000000000  -0.150000000000000 0
ion O   0.500000000000000   0.500000000000000  -0.150000000000000 0
ion O  -0.009556336760633  -0.022003342134647   0.237217610209881 1
ion H   0.088395243042612   0.081775722334711   0.257309558103794 1

# Forces in Lattice coordinates:
force Ni   0.002570720044980  -0.009918829389777   0.015644795859334 1
force Ni  -0.005885133609972   0.001810763634237  -0.001349711443905 1
force Ni   0.009982110912357  -0.005089912837759   0.029090986273904 1
force Ni   0.016727778691342   0.010326166954359   0.023791629633444 1
force Ni  -0.010958486302104   0.005669940173553   0.041574592208645 1
force Ni  -0.027563635910409   0.002807908670548  -0.291068184513340 0
force Ni   0.028180731898247  -0.001777409684822  -0.290999468274107 0
force V   0.002844312831322  -0.003165130691230  -0.016054537616308 1
force V   0.007702141758199   0.002331774882226  -0.054371931896958 1
force V  -0.044137158745445  -0.033384550780260  -0.373250843244504 0
force V   0.003173254700169   0.047577495991871   0.072239142143041 0
force V  -0.038615972613129   0.021962609810561  -0.764873309380921 0
force Co  -0.001761080552919  -0.003650418058095  -0.053582426440572 1
force Co   0.015943896045799  -0.027186520249658  -0.120613374621452 0
force Co   0.085242480548608   0.001000005341915  -0.778001820167473 0
force Cr  -0.046141097880456  -0.005119680870228  -1.813998249969557 0
force O  -0.014094756605322   0.012178160829249   0.038821873260748 1
force O  -0.007382666727586  -0.003150144493406   0.035083655569863 1
force O   0.019066889595746   0.011555836615916   0.064067919446693 1
force O   0.006745153764955  -0.014236907718811   0.037000516305875 1
force O   0.003875789494957   0.002011562747335   0.095889780772341 1
force O  -0.006105263588369  -0.000340732537591  -0.046961401638150 1
force O  -0.004245393379560  -0.004123489293496   0.057931567130289 1
force O  -0.000593887913737   0.003366947931743   0.015923854190820 1
force O   0.165517369026990  -0.042662392656478   0.979114159176913 0
force O   0.278500405678524   0.032322682379295   0.422239983952006 0
force O  -0.264773720599515  -0.015570029267865   0.559655041752263 0
force O  -0.180500646511634   0.044424993754488   0.223294881003345 0
force O   0.013870852646396   0.010255524910989   0.276462380806372 0
force O  -0.004147481157012   0.013433912533348   0.914519923766518 0
force O   0.012890798262258  -0.025117501280283   0.230231158535750 0
force O  -0.011317204402482  -0.000642501178918   0.585247297903422 0
force O   0.008438028227394  -0.001257076820188   0.004157974761823 1
force H  -0.017027860541524  -0.025385450707751  -0.012206204218007 1

# Energy components:
   Eewald =     5949.8735592779539729
       EH =     7926.1189102831913260
     Eloc =   -16211.2475051028541202
      Enl =     -606.2360810965711835
   Epulay =       -0.0004890017348034
      Exc =     -260.5533156387974145
       KE =     1004.4213447584454570
        U =        1.4164937510733406
-------------------------------------
     Etot =    -2196.2070827692941748
       TS =        0.0005574448047045
-------------------------------------
        F =    -2196.2076402140987739

IonicMinimize: Iter:  13  F: -2196.207640214098774  |grad|_K:  9.005e-04  alpha:  1.000e+00  linmin: -1.818e-03  t[s]:  81173.68
IonicMinimize: Converged (|Delta F|<1.000000e-04 for 3 iters).

#--- Lowdin population analysis ---
# oxidation-state Ni +3.627 +3.298 +3.442 +3.459 +3.462 +3.527 +3.538
# magnetic-moments Ni +0.945 -0.531 +0.859 +0.925 -0.877 +0.682 +0.682
# oxidation-state V +1.384 +1.182 +1.264 +1.016 +1.228
# magnetic-moments V -2.057 +2.972 +2.102 -2.790 +2.004
# oxidation-state Co +1.201 +1.232 +1.269
# magnetic-moments Co -2.628 -2.695 +2.730
# oxidation-state Cr +2.978
# magnetic-moments Cr -3.817
# oxidation-state O -0.735 -0.714 -0.829 -0.724 -0.776 -0.775 -0.780 -0.737 -0.876 -0.859 -0.915 -0.909 -0.870 -0.826 -0.843 -0.841 -0.764
# magnetic-moments O +0.213 +0.248 -0.012 -0.121 +0.076 -0.007 +0.096 -0.028 +0.022 +0.054 -0.033 -0.043 -0.001 +0.067 +0.152 +0.042 +0.237
# oxidation-state H +0.370
# magnetic-moments H -0.004


Dumping 'run.ionpos' ... done
Dumping 'run.lattice' ... done
Dumping 'run.Ecomponents' ... done
End date and time: Mon May 19 00:17:09 2025  (Duration: 0-22:33:01.11)
Done!
