
*************** JDFTx 1.7.0  ***************

Start date and time: Sat May 17 08:07:39 2025
Executable /data2/jt577/jdftx_eat_withLibXC/build/jdftx with command-line: -i /data2/jt577/May_2025/Relax_Mag_litU/pure_CoO/runs/calc_20250516-211150/OH/OH.in
Running on hosts (process indices):  node3401 (0-8)
Divided in process groups (process indices):  0 (0)  1 (1)  2 (2)  3 (3)  4 (4)  5 (5)  6 (6)  7 (7)  8 (8)
Resource initialization completed at t[s]:      0.00
Run totals: 9 processes, 90 threads, 0 GPUs


Input parsed successfully to the following command list (including defaults):

add-mix 
add-U 	Co d 0.121273
basis kpoint-dependent
coords-type Lattice
core-overlap-check vector
coulomb-interaction Periodic
davidson-band-ratio 1.1
dump End IonicPositions Lattice Ecomponents
dump-name OH.$VAR
elec-cutoff 30
elec-eigen-algo Davidson
elec-ex-corr gga-x-rpbe gga-c-pbe
elec-smearing Fermi 0.001
electronic-minimize  \
	dirUpdateScheme      FletcherReeves \
	linminMethod         DirUpdateRecommended \
	nIterations          1000 \
	history              15 \
	knormThreshold       0 \
	energyDiffThreshold  1e-06 \
	nEnergyDiff          5 \
	alphaTstart          1 \
	alphaTmin            1e-10 \
	updateTestStepSize   yes \
	alphaTreduceFactor   0.1 \
	alphaTincreaseFactor 3 \
	nAlphaAdjustMax      3 \
	wolfeEnergy          0.0001 \
	wolfeGradient        0.9 \
	fdTest               no
exchange-regularization WignerSeitzTruncated
fluid None
fluid-ex-corr (null) lda-PZ
fluid-gummel-loop 10 1.000000e-05
fluid-minimize  \
	dirUpdateScheme      PolakRibiere \
	linminMethod         DirUpdateRecommended \
	nIterations          100 \
	history              15 \
	knormThreshold       0 \
	energyDiffThreshold  0 \
	nEnergyDiff          2 \
	alphaTstart          1 \
	alphaTmin            1e-10 \
	updateTestStepSize   yes \
	alphaTreduceFactor   0.1 \
	alphaTincreaseFactor 3 \
	nAlphaAdjustMax      3 \
	wolfeEnergy          0.0001 \
	wolfeGradient        0.9 \
	fdTest               no
fluid-solvent H2O 55.338 ScalarEOS \
	epsBulk 78.4 \
	pMol 0.92466 \
	epsInf 1.77 \
	Pvap 1.06736e-10 \
	sigmaBulk 4.62e-05 \
	Rvdw 2.61727 \
	Res 1.42 \
	tauNuc 343133 \
	poleEl 15 7 1
forces-output-coords Positions
initial-magnetic-moments  \
	Co 1 -1 1 -1 1 1 -1 -1 -1 1 -1 1 -1 -1 1 1
initial-state OH.$VAR
ion Co  0.000000000000000   0.000000000000000   0.150000000000000 1
ion Co  0.500000000000000   0.000000000000000   0.150000000000000 1
ion Co  0.000000000000000   0.500000000000000   0.150000000000000 1
ion Co  0.500000000000000   0.500000000000000   0.150000000000000 1
ion Co  0.250000000000000   0.250000000000000   0.050000000000000 1
ion Co  0.250000000000000   0.750000000000000   0.050000000000000 1
ion Co -0.250000000000000   0.250000000000000   0.050000000000000 1
ion Co -0.250000000000000   0.750000000000000   0.050000000000000 1
ion Co  0.000000000000000   0.000000000000000  -0.050000000000000 0
ion Co  0.500000000000000   0.000000000000000  -0.050000000000000 0
ion Co  0.000000000000000   0.500000000000000  -0.050000000000000 0
ion Co  0.500000000000000   0.500000000000000  -0.050000000000000 0
ion Co  0.250000000000000   0.250000000000000  -0.150000000000000 0
ion Co  0.250000000000000   0.750000000000000  -0.150000000000000 0
ion Co -0.250000000000000   0.250000000000000  -0.150000000000000 0
ion Co -0.250000000000000   0.750000000000000  -0.150000000000000 0
ion O  0.250000000000000   0.250000000000000   0.150000000000000 1
ion O  0.250000000000000   0.750000000000000   0.150000000000000 1
ion O -0.250000000000000   0.250000000000000   0.150000000000000 1
ion O -0.250000000000000   0.750000000000000   0.150000000000000 1
ion O  0.000000000000000   0.000000000000000   0.050000000000000 1
ion O  0.500000000000000   0.000000000000000   0.050000000000000 1
ion O  0.000000000000000   0.500000000000000   0.050000000000000 1
ion O  0.500000000000000   0.500000000000000   0.050000000000000 1
ion O  0.250000000000000   0.250000000000000  -0.050000000000000 0
ion O  0.250000000000000   0.750000000000000  -0.050000000000000 0
ion O -0.250000000000000   0.250000000000000  -0.050000000000000 0
ion O -0.250000000000000   0.750000000000000  -0.050000000000000 0
ion O  0.000000000000000   0.000000000000000  -0.150000000000000 0
ion O  0.500000000000000   0.000000000000000  -0.150000000000000 0
ion O  0.000000000000000   0.500000000000000  -0.150000000000000 0
ion O  0.500000000000000   0.500000000000000  -0.150000000000000 0
ion O  0.000000000000000   0.000000000000000   0.230000000000000 1
ion H  0.100000000000000   0.100000000000000   0.250000000000000 1
ion-species SG15/$ID_ONCV_PBE.upf
ion-width 0
ionic-minimize  \
	dirUpdateScheme      L-BFGS \
	linminMethod         DirUpdateRecommended \
	nIterations          1000 \
	history              15 \
	knormThreshold       0.0001 \
	energyDiffThreshold  0.0001 \
	nEnergyDiff          3 \
	alphaTstart          1 \
	alphaTmin            1e-10 \
	updateTestStepSize   yes \
	alphaTreduceFactor   0.1 \
	alphaTincreaseFactor 3 \
	nAlphaAdjustMax      3 \
	wolfeEnergy          0.0001 \
	wolfeGradient        0.9 \
	fdTest               no
kpoint   0.500000000000   0.500000000000   0.500000000000  1.00000000000000
kpoint-folding 3 3 1 
latt-move-scale 1 1 1
latt-scale 1 1 1 
lattice  \
	   8.010000000000000    8.010000000000000    0.000000000000000  \
	   8.010000000000000   -8.010000000000000    0.000000000000000  \
	   0.000000000000000    0.000000000000000   40.049999999999997 
lattice-minimize  \
	dirUpdateScheme      L-BFGS \
	linminMethod         DirUpdateRecommended \
	nIterations          0 \
	history              15 \
	knormThreshold       0 \
	energyDiffThreshold  1e-06 \
	nEnergyDiff          2 \
	alphaTstart          1 \
	alphaTmin            1e-10 \
	updateTestStepSize   yes \
	alphaTreduceFactor   0.1 \
	alphaTincreaseFactor 3 \
	nAlphaAdjustMax      3 \
	wolfeEnergy          0.0001 \
	wolfeGradient        0.9 \
	fdTest               no
lcao-params -1 1e-06 0.001
pcm-variant GLSSA13
spintype z-spin
subspace-rotation-factor 1 yes
symmetries none
symmetry-threshold 0.0001


Applied RMS atom displacement 0 bohrs to make symmetries exact.

---------- Initializing the Grid ----------
R = 
[         8.01         8.01            0  ]
[         8.01        -8.01            0  ]
[            0            0        40.05  ]
unit cell volume = 5139.22
G =
[   0.392209   0.392209         -0  ]
[   0.392209  -0.392209         -0  ]
[         -0         -0   0.156884  ]
Minimum fftbox size, Smin = [  56  56  200  ]
Chosen fftbox size, S = [  56  56  200  ]

---------- Exchange Correlation functional ----------
Initialized LibXC exchange functional 'Hammer, Hansen, and Norskov'
Initialized LibXC correlation functional 'Perdew, Burke & Ernzerhof'

---------- Setting up pseudopotentials ----------
Width of ionic core gaussian charges (only for fluid interactions / plotting) set to 0

Reading pseudopotential file '/data2/jt577/jdftx_eat_withLibXC/build/pseudopotentials/SG15/Co_ONCV_PBE.upf':
  'Co' pseudopotential, 'PBE' functional
  Generated using ONCVPSP code by D. R. Hamann
  Author: Martin Schlipf and Francois Gygi  Date: 150915.
  17 valence electrons, 4 orbitals, 6 projectors, 1388 radial grid points, with lMax = 2
  Transforming local potential to a uniform radial grid of dG=0.02 with 1355 points.
  Transforming nonlocal projectors to a uniform radial grid of dG=0.02 with 528 points.
    3S    l: 0   occupation:  2.0   eigenvalue: -3.763303
    3P    l: 1   occupation:  6.0   eigenvalue: -2.412101
    4S    l: 0   occupation:  2.0   eigenvalue: -0.201022
    3D    l: 2   occupation:  7.0   eigenvalue: -0.301498
  Transforming atomic orbitals to a uniform radial grid of dG=0.02 with 528 points.
  Core radius for overlap checks: 1.94 bohrs.
  Reading pulay file /data2/jt577/jdftx_eat_withLibXC/build/pseudopotentials/SG15/Co_ONCV_PBE.pulay ... using dE_dnG = -9.787391e-05 computed for Ecut = 30.

Reading pseudopotential file '/data2/jt577/jdftx_eat_withLibXC/build/pseudopotentials/SG15/O_ONCV_PBE.upf':
  'O' pseudopotential, 'PBE' functional
  Generated using ONCVPSP code by D. R. Hamann
  Author: Martin Schlipf and Francois Gygi  Date: 150915.
  6 valence electrons, 2 orbitals, 4 projectors, 936 radial grid points, with lMax = 1
  Transforming local potential to a uniform radial grid of dG=0.02 with 1355 points.
  Transforming nonlocal projectors to a uniform radial grid of dG=0.02 with 528 points.
    2S    l: 0   occupation:  2.0   eigenvalue: -0.880572
    2P    l: 1   occupation:  4.0   eigenvalue: -0.331869
  Transforming atomic orbitals to a uniform radial grid of dG=0.02 with 528 points.
  Core radius for overlap checks: 1.29 bohrs.
  Reading pulay file /data2/jt577/jdftx_eat_withLibXC/build/pseudopotentials/SG15/O_ONCV_PBE.pulay ... using dE_dnG = -8.209514e-03 computed for Ecut = 30.

Reading pseudopotential file '/data2/jt577/jdftx_eat_withLibXC/build/pseudopotentials/SG15/H_ONCV_PBE.upf':
  'H' pseudopotential, 'PBE' functional
  Generated using ONCVPSP code by D. R. Hamann
  Author: Martin Schlipf and Francois Gygi  Date: 150915.
  1 valence electrons, 1 orbitals, 2 projectors, 1166 radial grid points, with lMax = 0
  Transforming local potential to a uniform radial grid of dG=0.02 with 1355 points.
  Transforming nonlocal projectors to a uniform radial grid of dG=0.02 with 528 points.
    1S    l: 0   occupation:  1.0   eigenvalue: -0.238602
  Transforming atomic orbitals to a uniform radial grid of dG=0.02 with 528 points.
  Core radius for overlap checks: 1.01 bohrs.
  Reading pulay file /data2/jt577/jdftx_eat_withLibXC/build/pseudopotentials/SG15/H_ONCV_PBE.pulay ... using dE_dnG = -8.245991e-05 computed for Ecut = 30.

Initialized 3 species with 34 total atoms.

Folded 1 k-points by 3x3x1 to 9 k-points.

---------- Setting up k-points, bands, fillings ----------
No reducable k-points. 
Computing the number of bands and number of electrons
Calculating initial fillings.
nElectrons: 375.000000   nBands: 229   nStates: 18

----- Setting up reduced wavefunction bases (one per k-point) -----
average nbasis = 40341.333 , ideal nbasis = 40334.198

---------- Setting up ewald sum ----------
Optimum gaussian width for ewald sums = 3.824982 bohr.
Real space sum over 605 unit cells with max indices [  5  5  2  ]
Reciprocal space sum over 5915 terms with max indices [  6  6  17  ]

---------- Allocating electronic variables ----------
Initializing wave functions:  linear combination of atomic orbitals
Co (M=1) pseudo-atom majority spin occupations:   s ( 1 0 )  p ( 3 )  d ( 5 )
Co (M=1) pseudo-atom minority spin occupations:   s ( 1 0 )  p ( 3 )  d ( 4 )
O pseudo-atom occupations:   s ( 2 )  p ( 4 )
H pseudo-atom occupations:   s ( 1 )
	FillingsUpdate:  mu: -0.330414957  nElectrons: 375.000000  magneticMoment: [ Abs: 37.68207  Tot: +0.00000 ]
LCAOMinimize: Iter:   0  F: -2401.6982160049174126  |grad|_K:  2.757e-02  alpha:  1.000e+00
LCAOMinimize: 	Step increased F by 3.631066e+02, reducing alpha to 4.046914e-02.
LCAOMinimize: 	Step increased F by 1.968102e+01, reducing alpha to 4.046914e-03.
	FillingsUpdate:  mu: -0.158822589  nElectrons: 375.000000  magneticMoment: [ Abs: 38.81546  Tot: +0.00000 ]
LCAOMinimize: Iter:   1  F: -2403.9111724005515498  |grad|_K:  1.573e-02  alpha:  4.047e-03  linmin: -1.116e-01  cgtest:  8.779e-01  t[s]:     54.72
LCAOMinimize: Encountered beta<0, resetting CG.
LCAOMinimize: 	Predicted alpha/alphaT>3.000000, increasing alphaT to 1.214074e-02.
	FillingsUpdate:  mu: +0.217886116  nElectrons: 375.000000  magneticMoment: [ Abs: 40.89637  Tot: +0.00000 ]
LCAOMinimize: Iter:   2  F: -2405.6543590247065367  |grad|_K:  1.251e-02  alpha:  1.453e-02  linmin: -9.232e-03  cgtest:  3.368e-02  t[s]:     71.07
LCAOMinimize: 	Wrong curvature in test step, increasing alphaT to 4.360345e-02.
	FillingsUpdate:  mu: +0.227760327  nElectrons: 375.000000  magneticMoment: [ Abs: 43.33640  Tot: -0.00000 ]
LCAOMinimize: Iter:   3  F: -2408.0881603090751923  |grad|_K:  1.218e-02  alpha: -1.585e-01  linmin: -6.074e-02  cgtest:  9.025e-01  t[s]:     82.96
	FillingsUpdate:  mu: +1.166197804  nElectrons: 375.000000  magneticMoment: [ Abs: 10.00877  Tot: +0.00000 ]
LCAOMinimize: Iter:   4  F: -2413.9677506549946884  |grad|_K:  2.346e-02  alpha:  3.722e-01  linmin:  7.253e-02  cgtest: -1.135e-01  t[s]:     95.87
LCAOMinimize: 	Bad step direction: g.d > 0.
LCAOMinimize: 	Undoing step.
LCAOMinimize: 	Step failed: resetting search direction.
	FillingsUpdate:  mu: +1.166197804  nElectrons: 375.000000  magneticMoment: [ Abs: 10.00877  Tot: +0.00000 ]
LCAOMinimize: Iter:   5  F: -2413.9677506549946884  |grad|_K:  2.346e-02  alpha:  0.000e+00
LCAOMinimize: 	Step increased F by 1.640953e+01, reducing alpha to 6.827413e-03.
	FillingsUpdate:  mu: +0.941506549  nElectrons: 375.000000  magneticMoment: [ Abs: 10.74448  Tot: -0.00000 ]
LCAOMinimize: Iter:   6  F: -2417.0429778897082542  |grad|_K:  1.564e-02  alpha:  6.827e-03  linmin: -1.585e-01  cgtest:  9.356e-01  t[s]:    126.84
LCAOMinimize: Encountered beta<0, resetting CG.
LCAOMinimize: 	Predicted alpha/alphaT>3.000000, increasing alphaT to 2.048224e-02.
LCAOMinimize: 	Predicted alpha/alphaT>3.000000, increasing alphaT to 6.144672e-02.
	FillingsUpdate:  mu: +0.646303293  nElectrons: 375.000000  magneticMoment: [ Abs: 18.02342  Tot: +0.00000 ]
LCAOMinimize: Iter:   7  F: -2424.1067843710056877  |grad|_K:  2.750e-02  alpha:  5.898e-02  linmin:  1.857e-02  cgtest: -2.979e-01  t[s]:    147.28
LCAOMinimize: 	Step increased F by 6.075544e+00, reducing alpha to 1.443105e-03.
	FillingsUpdate:  mu: +0.622583668  nElectrons: 375.000000  magneticMoment: [ Abs: 18.76991  Tot: +0.00000 ]
LCAOMinimize: Iter:   8  F: -2424.7306087386118634  |grad|_K:  2.745e-02  alpha:  1.443e-03  linmin: -2.410e-02  cgtest:  9.999e-01  t[s]:    169.49
LCAOMinimize: Encountered beta<0, resetting CG.
LCAOMinimize: 	Predicted alpha/alphaT>3.000000, increasing alphaT to 4.329315e-03.
LCAOMinimize: 	Predicted alpha/alphaT>3.000000, increasing alphaT to 1.298794e-02.
	FillingsUpdate:  mu: +0.630746985  nElectrons: 375.000000  magneticMoment: [ Abs: 18.99653  Tot: -0.00000 ]
LCAOMinimize: Iter:   9  F: -2430.1206395135091043  |grad|_K:  1.307e-02  alpha:  1.493e-02  linmin: -6.013e-03  cgtest: -1.425e-01  t[s]:    190.02
LCAOMinimize: 	Predicted alpha/alphaT>3.000000, increasing alphaT to 4.478377e-02.
	FillingsUpdate:  mu: +0.701812300  nElectrons: 375.000000  magneticMoment: [ Abs: 21.10926  Tot: +0.00000 ]
LCAOMinimize: Iter:  10  F: -2433.4331487284148352  |grad|_K:  1.523e-02  alpha:  2.912e-02  linmin: -2.676e-02  cgtest:  2.694e-01  t[s]:    206.66
	FillingsUpdate:  mu: +0.717546519  nElectrons: 375.000000  magneticMoment: [ Abs: 24.22928  Tot: +0.00000 ]
LCAOMinimize: Iter:  11  F: -2434.7682572612675358  |grad|_K:  1.135e-02  alpha:  1.190e-02  linmin:  4.282e-02  cgtest:  4.878e-01  t[s]:    219.71
LCAOMinimize: 	Predicted alpha/alphaT>3.000000, increasing alphaT to 3.569590e-02.
	FillingsUpdate:  mu: +0.225569395  nElectrons: 375.000000  magneticMoment: [ Abs: 25.95474  Tot: -0.00000 ]
LCAOMinimize: Iter:  12  F: -2436.4347729294786404  |grad|_K:  5.382e-03  alpha:  2.796e-02  linmin:  3.011e-02  cgtest: -3.631e-01  t[s]:    236.34
	FillingsUpdate:  mu: +0.236170231  nElectrons: 375.000000  magneticMoment: [ Abs: 28.03893  Tot: -0.00000 ]
LCAOMinimize: Iter:  13  F: -2436.7484682684153086  |grad|_K:  8.753e-03  alpha:  2.729e-02  linmin:  6.839e-04  cgtest:  1.415e-01  t[s]:    249.21
	FillingsUpdate:  mu: +0.236399440  nElectrons: 375.000000  magneticMoment: [ Abs: 29.49714  Tot: +0.00000 ]
LCAOMinimize: Iter:  14  F: -2437.1150793881161007  |grad|_K:  5.073e-03  alpha:  6.121e-03  linmin: -2.416e-02  cgtest:  8.523e-01  t[s]:    262.23
LCAOMinimize: Encountered beta<0, resetting CG.
	FillingsUpdate:  mu: +0.235970375  nElectrons: 375.000000  magneticMoment: [ Abs: 29.54574  Tot: -0.00000 ]
LCAOMinimize: Iter:  15  F: -2437.1993859978806540  |grad|_K:  2.622e-03  alpha:  6.902e-03  linmin:  6.054e-03  cgtest: -7.994e-02  t[s]:    275.25
	FillingsUpdate:  mu: +0.249424682  nElectrons: 375.000000  magneticMoment: [ Abs: 30.11842  Tot: +0.00000 ]
LCAOMinimize: Iter:  16  F: -2437.2579021855240171  |grad|_K:  1.912e-03  alpha:  1.949e-02  linmin:  2.174e-02  cgtest:  1.372e-01  t[s]:    288.03
	FillingsUpdate:  mu: +0.227210136  nElectrons: 375.000000  magneticMoment: [ Abs: 30.60756  Tot: -0.00000 ]
LCAOMinimize: Iter:  17  F: -2437.2820842899172931  |grad|_K:  2.022e-03  alpha:  1.519e-02  linmin:  7.521e-04  cgtest:  1.365e-01  t[s]:    300.67
	FillingsUpdate:  mu: +0.206734793  nElectrons: 375.000000  magneticMoment: [ Abs: 31.09565  Tot: +0.00000 ]
LCAOMinimize: Iter:  18  F: -2437.3048115871447408  |grad|_K:  1.654e-03  alpha:  1.184e-02  linmin: -6.051e-04  cgtest: -7.433e-02  t[s]:    313.38
LCAOMinimize: 	Predicted alpha/alphaT>3.000000, increasing alphaT to 3.552085e-02.
	FillingsUpdate:  mu: +0.199831469  nElectrons: 375.000000  magneticMoment: [ Abs: 32.57794  Tot: +0.00000 ]
LCAOMinimize: Iter:  19  F: -2437.3522773118279474  |grad|_K:  1.232e-03  alpha:  3.623e-02  linmin:  7.642e-04  cgtest: -1.359e-01  t[s]:    329.85
	FillingsUpdate:  mu: +0.209222881  nElectrons: 375.000000  magneticMoment: [ Abs: 33.16386  Tot: -0.00000 ]
LCAOMinimize: Iter:  20  F: -2437.3659774931720676  |grad|_K:  1.462e-03  alpha:  1.995e-02  linmin:  9.003e-04  cgtest: -4.613e-02  t[s]:    342.60
	FillingsUpdate:  mu: +0.209620289  nElectrons: 375.000000  magneticMoment: [ Abs: 33.80464  Tot: -0.00000 ]
LCAOMinimize: Iter:  21  F: -2437.3796288845519484  |grad|_K:  1.109e-03  alpha:  1.407e-02  linmin: -2.927e-04  cgtest:  2.963e-02  t[s]:    355.31
	FillingsUpdate:  mu: +0.189215806  nElectrons: 375.000000  magneticMoment: [ Abs: 34.34080  Tot: -0.00000 ]
LCAOMinimize: Iter:  22  F: -2437.3948027890232879  |grad|_K:  9.636e-04  alpha:  2.401e-02  linmin: -1.101e-02  cgtest:  7.459e-02  t[s]:    367.84
	FillingsUpdate:  mu: +0.205293429  nElectrons: 375.000000  magneticMoment: [ Abs: 34.90258  Tot: -0.00000 ]
LCAOMinimize: Iter:  23  F: -2437.4174746969015359  |grad|_K:  1.818e-03  alpha:  4.322e-02  linmin: -2.320e-03  cgtest: -1.801e-01  t[s]:    380.65
	FillingsUpdate:  mu: +0.206747611  nElectrons: 375.000000  magneticMoment: [ Abs: 36.16383  Tot: -0.00000 ]
LCAOMinimize: Iter:  24  F: -2437.4652190552592401  |grad|_K:  1.799e-03  alpha:  3.083e-02  linmin: -1.482e-03  cgtest: -2.862e-02  t[s]:    393.67
	FillingsUpdate:  mu: +0.186143786  nElectrons: 375.000000  magneticMoment: [ Abs: 37.15353  Tot: +0.00000 ]
LCAOMinimize: Iter:  25  F: -2437.5216218263512928  |grad|_K:  1.054e-03  alpha:  3.395e-02  linmin: -5.161e-03  cgtest:  1.078e+00  t[s]:    406.47
LCAOMinimize: Encountered beta<0, resetting CG.
	FillingsUpdate:  mu: +0.176705232  nElectrons: 375.000000  magneticMoment: [ Abs: 37.18748  Tot: -0.00000 ]
LCAOMinimize: Iter:  26  F: -2437.5416117113677501  |grad|_K:  9.594e-04  alpha:  3.731e-02  linmin: -1.041e-02  cgtest:  7.598e-02  t[s]:    419.40
	FillingsUpdate:  mu: +0.171309272  nElectrons: 375.000000  magneticMoment: [ Abs: 37.20781  Tot: +0.00000 ]
LCAOMinimize: Iter:  27  F: -2437.5599397312739711  |grad|_K:  8.537e-04  alpha:  3.867e-02  linmin: -8.940e-03  cgtest: -7.789e-02  t[s]:    432.28
	FillingsUpdate:  mu: +0.192300056  nElectrons: 375.000000  magneticMoment: [ Abs: 37.06342  Tot: +0.00000 ]
LCAOMinimize: Iter:  28  F: -2437.5990276600473408  |grad|_K:  7.998e-04  alpha:  9.763e-02  linmin: -6.263e-03  cgtest:  2.765e-02  t[s]:    445.10
	FillingsUpdate:  mu: +0.191965844  nElectrons: 375.000000  magneticMoment: [ Abs: 37.16512  Tot: -0.00000 ]
LCAOMinimize: Iter:  29  F: -2437.6212727964716578  |grad|_K:  7.520e-04  alpha:  7.195e-02  linmin: -2.658e-03  cgtest: -4.422e-03  t[s]:    457.80
	FillingsUpdate:  mu: +0.204152326  nElectrons: 375.000000  magneticMoment: [ Abs: 37.44172  Tot: +0.00000 ]
LCAOMinimize: Iter:  30  F: -2437.6435576282715374  |grad|_K:  5.893e-04  alpha:  7.712e-02  linmin: -1.782e-02  cgtest:  1.843e-01  t[s]:    470.57
LCAOMinimize: None of the convergence criteria satisfied after 30 iterations.


---- Citations for features of the code used in this run ----

   Software package:
      R. Sundararaman, K. Letchworth-Weaver, K.A. Schwarz, D. Gunceler, Y. Ozhabes and T.A. Arias, 'JDFTx: software for joint density-functional theory', SoftwareX 6, 278 (2017)

   Simplified rotationally-invariant DFT+U:
      S. L. Dudarev et al., Phys. Rev. B 57, 1505 (1998)

   LibXC library of exchange-correlation functions:
      M. A. L. Marques, M. J. T. Oliveira and T. Burnus, Comput. Phys. Commun. 183, 2272 (2012)

   Hammer, Hansen, and Norskov exchange functional:
      B. Hammer, L. B. Hansen, and J. K. Nørskov, Phys. Rev. B 59, 7413 (1999)

   Perdew, Burke & Ernzerhof correlation functional:
      J. P. Perdew, K. Burke, and M. Ernzerhof, Phys. Rev. Lett. 77, 3865 (1996)

   Pseudopotentials:
      M Schlipf and F Gygi, Comput. Phys. Commun. 196, 36 (2015)

   Total energy minimization with Auxiliary Hamiltonian:
      C. Freysoldt, S. Boeck, and J. Neugebauer, Phys. Rev. B 79, 241103(R) (2009)

This list may not be complete. Please suggest additional citations or
report any other bugs at https://github.com/shankar1729/jdftx/issues

Initialization completed successfully at t[s]:    476.19


-------- Electronic minimization -----------
	FillingsUpdate:  mu: +0.204152776  nElectrons: 375.000000  magneticMoment: [ Abs: 37.44172  Tot: +0.00000 ]
ElecMinimize: Iter:   0  F: -2437.643557628282451  |grad|_K:  1.406e-04  alpha:  1.000e+00
	FillingsUpdate:  mu: +0.185426241  nElectrons: 375.000000  magneticMoment: [ Abs: 38.95141  Tot: -0.00000 ]
	SubspaceRotationAdjust: set factor to 0.98
ElecMinimize: Iter:   1  F: -2438.751216982196638  |grad|_K:  1.362e-04  alpha:  3.631e-01  linmin:  7.172e-06  t[s]:    563.39
	FillingsUpdate:  mu: +0.141058921  nElectrons: 375.000000  magneticMoment: [ Abs: 39.32048  Tot: -0.00000 ]
	SubspaceRotationAdjust: set factor to 1.13
ElecMinimize: Iter:   2  F: -2438.931340462896515  |grad|_K:  1.164e-04  alpha:  2.880e-02  linmin: -1.903e-03  t[s]:    637.68
	FillingsUpdate:  mu: +0.168763146  nElectrons: 375.000000  magneticMoment: [ Abs: 39.70473  Tot: -0.00000 ]
	SubspaceRotationAdjust: set factor to 0.885
ElecMinimize: Iter:   3  F: -2439.082911101431819  |grad|_K:  1.200e-04  alpha:  3.403e-02  linmin: -3.313e-04  t[s]:    710.26
	FillingsUpdate:  mu: +0.199168296  nElectrons: 375.000000  magneticMoment: [ Abs: 40.43802  Tot: -0.00000 ]
	SubspaceRotationAdjust: set factor to 0.738
ElecMinimize: Iter:   4  F: -2439.323386587534969  |grad|_K:  9.325e-05  alpha:  8.235e-02  linmin: -1.478e-04  t[s]:    783.76
	FillingsUpdate:  mu: +0.154860649  nElectrons: 375.000000  magneticMoment: [ Abs: 41.95349  Tot: -0.00000 ]
	SubspaceRotationAdjust: set factor to 0.728
ElecMinimize: Iter:   5  F: -2439.515995393507183  |grad|_K:  9.681e-05  alpha:  1.591e-01  linmin:  2.893e-04  t[s]:    858.57
	FillingsUpdate:  mu: +0.149507603  nElectrons: 375.000000  magneticMoment: [ Abs: 42.74300  Tot: +0.00000 ]
	SubspaceRotationAdjust: set factor to 0.9
ElecMinimize: Iter:   6  F: -2439.588082801875316  |grad|_K:  9.906e-05  alpha:  8.954e-02  linmin: -7.969e-06  t[s]:    929.66
	FillingsUpdate:  mu: +0.136070569  nElectrons: 375.000000  magneticMoment: [ Abs: 43.37678  Tot: +0.00000 ]
	SubspaceRotationAdjust: set factor to 1.08
ElecMinimize: Iter:   7  F: -2439.686139443675984  |grad|_K:  5.912e-05  alpha:  6.661e-02  linmin: -1.220e-04  t[s]:   1005.27
	FillingsUpdate:  mu: +0.116242365  nElectrons: 375.000000  magneticMoment: [ Abs: 43.92538  Tot: +0.00000 ]
	SubspaceRotationAdjust: set factor to 0.986
ElecMinimize: Iter:   8  F: -2439.744952049471522  |grad|_K:  5.387e-05  alpha:  1.058e-01  linmin:  5.991e-04  t[s]:   1079.17
	FillingsUpdate:  mu: +0.118227623  nElectrons: 375.000000  magneticMoment: [ Abs: 44.06974  Tot: +0.00000 ]
	SubspaceRotationAdjust: set factor to 1.39
ElecMinimize: Iter:   9  F: -2439.774643906203437  |grad|_K:  4.264e-05  alpha:  7.011e-02  linmin: -5.537e-04  t[s]:   1153.40
	FillingsUpdate:  mu: +0.145565606  nElectrons: 375.000000  magneticMoment: [ Abs: 44.06403  Tot: +0.00000 ]
	SubspaceRotationAdjust: set factor to 1.23
ElecMinimize: Iter:  10  F: -2439.792029658127831  |grad|_K:  5.269e-05  alpha:  4.956e-02  linmin:  1.298e-04  t[s]:   1228.23
	FillingsUpdate:  mu: +0.146958543  nElectrons: 375.000000  magneticMoment: [ Abs: 44.14049  Tot: -0.00000 ]
	SubspaceRotationAdjust: set factor to 0.921
ElecMinimize: Iter:  11  F: -2439.821085284090259  |grad|_K:  5.133e-05  alpha:  6.479e-02  linmin: -2.426e-05  t[s]:   1301.35
	FillingsUpdate:  mu: +0.151269054  nElectrons: 375.000000  magneticMoment: [ Abs: 44.20590  Tot: +0.00000 ]
	SubspaceRotationAdjust: set factor to 1.42
ElecMinimize: Iter:  12  F: -2439.838346262347386  |grad|_K:  3.517e-05  alpha:  4.289e-02  linmin: -1.487e-05  t[s]:   1377.09
	FillingsUpdate:  mu: +0.116076000  nElectrons: 375.000000  magneticMoment: [ Abs: 44.30484  Tot: +0.00000 ]
	SubspaceRotationAdjust: set factor to 1.3
ElecMinimize: Iter:  13  F: -2439.854627054348839  |grad|_K:  3.294e-05  alpha:  7.863e-02  linmin:  1.804e-07  t[s]:   1450.71
	FillingsUpdate:  mu: +0.106517075  nElectrons: 375.000000  magneticMoment: [ Abs: 44.24492  Tot: +0.00000 ]
	SubspaceRotationAdjust: set factor to 1.6
ElecMinimize: Iter:  14  F: -2439.872531746366803  |grad|_K:  2.511e-05  alpha:  9.911e-02  linmin:  5.510e-06  t[s]:   1525.28
	FillingsUpdate:  mu: +0.117724059  nElectrons: 375.000000  magneticMoment: [ Abs: 44.15365  Tot: +0.00000 ]
	SubspaceRotationAdjust: set factor to 1.37
ElecMinimize: Iter:  15  F: -2439.878577063825560  |grad|_K:  1.978e-05  alpha:  5.306e-02  linmin: -1.724e-05  t[s]:   1598.12
	FillingsUpdate:  mu: +0.146322151  nElectrons: 375.000000  magneticMoment: [ Abs: 44.11303  Tot: +0.00000 ]
	SubspaceRotationAdjust: set factor to 1.04
ElecMinimize: Iter:  16  F: -2439.885092227403675  |grad|_K:  2.545e-05  alpha:  1.030e-01  linmin:  1.030e-04  t[s]:   1671.07
	FillingsUpdate:  mu: +0.123948701  nElectrons: 375.000000  magneticMoment: [ Abs: 44.15985  Tot: +0.00000 ]
	SubspaceRotationAdjust: set factor to 1.56
ElecMinimize: Iter:  17  F: -2439.889649042214387  |grad|_K:  1.726e-05  alpha:  4.838e-02  linmin:  2.331e-05  t[s]:   1745.41
	FillingsUpdate:  mu: +0.109139089  nElectrons: 375.000000  magneticMoment: [ Abs: 44.21154  Tot: +0.00000 ]
	SubspaceRotationAdjust: set factor to 1.49
ElecMinimize: Iter:  18  F: -2439.893283908800640  |grad|_K:  1.783e-05  alpha:  7.132e-02  linmin: -1.550e-04  t[s]:   1818.42
	FillingsUpdate:  mu: +0.110414576  nElectrons: 375.000000  magneticMoment: [ Abs: 44.20869  Tot: +0.00000 ]
	SubspaceRotationAdjust: set factor to 1.91
ElecMinimize: Iter:  19  F: -2439.899110331692555  |grad|_K:  1.220e-05  alpha:  9.752e-02  linmin:  2.282e-05  t[s]:   1893.79
	FillingsUpdate:  mu: +0.124664738  nElectrons: 375.000000  magneticMoment: [ Abs: 44.18723  Tot: -0.00000 ]
	SubspaceRotationAdjust: set factor to 1.66
ElecMinimize: Iter:  20  F: -2439.901419792914112  |grad|_K:  1.428e-05  alpha:  9.378e-02  linmin:  2.294e-04  t[s]:   1967.44
	FillingsUpdate:  mu: +0.111083474  nElectrons: 375.000000  magneticMoment: [ Abs: 44.20887  Tot: +0.00000 ]
	SubspaceRotationAdjust: set factor to 2.19
ElecMinimize: Iter:  21  F: -2439.903506517177902  |grad|_K:  9.476e-06  alpha:  6.514e-02  linmin: -1.580e-05  t[s]:   2040.05
	FillingsUpdate:  mu: +0.105256469  nElectrons: 375.000000  magneticMoment: [ Abs: 44.20786  Tot: +0.00000 ]
	SubspaceRotationAdjust: set factor to 2.37
ElecMinimize: Iter:  22  F: -2439.905303521547012  |grad|_K:  9.736e-06  alpha:  1.150e-01  linmin: -7.993e-05  t[s]:   2113.21
	FillingsUpdate:  mu: +0.117140335  nElectrons: 375.000000  magneticMoment: [ Abs: 44.16992  Tot: +0.00000 ]
	SubspaceRotationAdjust: set factor to 2.13
ElecMinimize: Iter:  23  F: -2439.906739043851758  |grad|_K:  8.212e-06  alpha:  8.278e-02  linmin:  2.667e-06  t[s]:   2187.03
	FillingsUpdate:  mu: +0.117151509  nElectrons: 375.000000  magneticMoment: [ Abs: 44.14233  Tot: -0.00000 ]
	SubspaceRotationAdjust: set factor to 2.43
ElecMinimize: Iter:  24  F: -2439.908046746906621  |grad|_K:  7.125e-06  alpha:  1.162e-01  linmin: -7.459e-06  t[s]:   2260.31
	FillingsUpdate:  mu: +0.113209923  nElectrons: 375.000000  magneticMoment: [ Abs: 44.12529  Tot: +0.00000 ]
	SubspaceRotationAdjust: set factor to 2.78
ElecMinimize: Iter:  25  F: -2439.909111492991997  |grad|_K:  6.173e-06  alpha:  1.240e-01  linmin: -1.662e-05  t[s]:   2332.65
	FillingsUpdate:  mu: +0.116564260  nElectrons: 375.000000  magneticMoment: [ Abs: 44.11772  Tot: -0.00000 ]
	SubspaceRotationAdjust: set factor to 2.85
ElecMinimize: Iter:  26  F: -2439.909799790581474  |grad|_K:  5.602e-06  alpha:  1.063e-01  linmin:  7.542e-06  t[s]:   2404.11
	FillingsUpdate:  mu: +0.113314089  nElectrons: 375.000000  magneticMoment: [ Abs: 44.12953  Tot: -0.00000 ]
	SubspaceRotationAdjust: set factor to 3.62
ElecMinimize: Iter:  27  F: -2439.910500849407526  |grad|_K:  5.449e-06  alpha:  1.341e-01  linmin: -4.992e-06  t[s]:   2479.32
	FillingsUpdate:  mu: +0.112881880  nElectrons: 375.000000  magneticMoment: [ Abs: 44.15751  Tot: -0.00000 ]
	SubspaceRotationAdjust: set factor to 4.06
ElecMinimize: Iter:  28  F: -2439.911119195345691  |grad|_K:  5.262e-06  alpha:  1.244e-01  linmin:  7.388e-07  t[s]:   2552.63
	FillingsUpdate:  mu: +0.117214615  nElectrons: 375.000000  magneticMoment: [ Abs: 44.20081  Tot: -0.00000 ]
	SubspaceRotationAdjust: set factor to 4.34
ElecMinimize: Iter:  29  F: -2439.911644916147907  |grad|_K:  5.259e-06  alpha:  1.139e-01  linmin:  2.627e-06  t[s]:   2626.71
	FillingsUpdate:  mu: +0.112261299  nElectrons: 375.000000  magneticMoment: [ Abs: 44.23064  Tot: +0.00000 ]
	SubspaceRotationAdjust: set factor to 4.34
ElecMinimize: Iter:  30  F: -2439.912063568103349  |grad|_K:  4.866e-06  alpha:  9.143e-02  linmin: -2.782e-06  t[s]:   2699.52
	FillingsUpdate:  mu: +0.113583498  nElectrons: 375.000000  magneticMoment: [ Abs: 44.23010  Tot: -0.00000 ]
	SubspaceRotationAdjust: set factor to 5.2
ElecMinimize: Iter:  31  F: -2439.912513929906254  |grad|_K:  4.374e-06  alpha:  1.138e-01  linmin:  2.516e-05  t[s]:   2771.90
	FillingsUpdate:  mu: +0.115539937  nElectrons: 375.000000  magneticMoment: [ Abs: 44.20611  Tot: -0.00000 ]
	SubspaceRotationAdjust: set factor to 5.75
ElecMinimize: Iter:  32  F: -2439.912866911481160  |grad|_K:  4.448e-06  alpha:  1.111e-01  linmin:  3.422e-06  t[s]:   2847.37
	FillingsUpdate:  mu: +0.113435618  nElectrons: 375.000000  magneticMoment: [ Abs: 44.19056  Tot: -0.00000 ]
	SubspaceRotationAdjust: set factor to 6.06
ElecMinimize: Iter:  33  F: -2439.913170431749677  |grad|_K:  4.240e-06  alpha:  9.234e-02  linmin: -1.434e-07  t[s]:   2919.78
	FillingsUpdate:  mu: +0.116891177  nElectrons: 375.000000  magneticMoment: [ Abs: 44.17790  Tot: +0.00000 ]
	SubspaceRotationAdjust: set factor to 5.44
ElecMinimize: Iter:  34  F: -2439.913403155650940  |grad|_K:  4.864e-06  alpha:  7.688e-02  linmin:  9.370e-06  t[s]:   2993.64
	FillingsUpdate:  mu: +0.112219917  nElectrons: 375.000000  magneticMoment: [ Abs: 44.16394  Tot: -0.00000 ]
	SubspaceRotationAdjust: set factor to 5.27
ElecMinimize: Iter:  35  F: -2439.913614135095486  |grad|_K:  3.881e-06  alpha:  5.465e-02  linmin: -3.271e-06  t[s]:   3064.31
	FillingsUpdate:  mu: +0.114416657  nElectrons: 375.000000  magneticMoment: [ Abs: 44.13877  Tot: +0.00000 ]
	SubspaceRotationAdjust: set factor to 6.12
ElecMinimize: Iter:  36  F: -2439.913864555433520  |grad|_K:  3.686e-06  alpha:  1.001e-01  linmin:  3.281e-05  t[s]:   3136.21
	FillingsUpdate:  mu: +0.113491644  nElectrons: 375.000000  magneticMoment: [ Abs: 44.13064  Tot: +0.00000 ]
	SubspaceRotationAdjust: set factor to 6.73
ElecMinimize: Iter:  37  F: -2439.914087991389806  |grad|_K:  3.762e-06  alpha:  1.001e-01  linmin: -6.179e-07  t[s]:   3209.97
	FillingsUpdate:  mu: +0.114157060  nElectrons: 375.000000  magneticMoment: [ Abs: 44.13249  Tot: -0.00000 ]
	SubspaceRotationAdjust: set factor to 7.12
ElecMinimize: Iter:  38  F: -2439.914322202433141  |grad|_K:  3.808e-06  alpha:  9.914e-02  linmin:  3.639e-07  t[s]:   3284.42
	FillingsUpdate:  mu: +0.111460627  nElectrons: 375.000000  magneticMoment: [ Abs: 44.13933  Tot: +0.00000 ]
	SubspaceRotationAdjust: set factor to 5.76
ElecMinimize: Iter:  39  F: -2439.914550435156343  |grad|_K:  4.837e-06  alpha:  9.446e-02  linmin: -1.338e-06  t[s]:   3360.31
	FillingsUpdate:  mu: +0.115584056  nElectrons: 375.000000  magneticMoment: [ Abs: 44.13482  Tot: -0.00000 ]
	SubspaceRotationAdjust: set factor to 5.15
ElecMinimize: Iter:  40  F: -2439.914691583311196  |grad|_K:  3.942e-06  alpha:  3.185e-02  linmin: -3.862e-04  t[s]:   3434.28
ElecMinimize: 	Predicted alpha/alphaT>3.000000, increasing alphaT to 9.553865e-02.
	FillingsUpdate:  mu: +0.115173025  nElectrons: 375.000000  magneticMoment: [ Abs: 44.12312  Tot: -0.00000 ]
	SubspaceRotationAdjust: set factor to 5.56
ElecMinimize: Iter:  41  F: -2439.914995818411171  |grad|_K:  4.389e-06  alpha:  1.060e-01  linmin:  4.283e-06  t[s]:   3537.00
	FillingsUpdate:  mu: +0.110628318  nElectrons: 375.000000  magneticMoment: [ Abs: 44.11791  Tot: -0.00000 ]
	SubspaceRotationAdjust: set factor to 5.12
ElecMinimize: Iter:  42  F: -2439.915171241586904  |grad|_K:  5.068e-06  alpha:  5.643e-02  linmin:  6.119e-06  t[s]:   3610.10
	FillingsUpdate:  mu: +0.113881120  nElectrons: 375.000000  magneticMoment: [ Abs: 44.10348  Tot: +0.00000 ]
	SubspaceRotationAdjust: set factor to 5.35
ElecMinimize: Iter:  43  F: -2439.915396251928087  |grad|_K:  4.513e-06  alpha:  5.300e-02  linmin:  6.185e-06  t[s]:   3683.94
	FillingsUpdate:  mu: +0.116883456  nElectrons: 375.000000  magneticMoment: [ Abs: 44.09058  Tot: -0.00000 ]
	SubspaceRotationAdjust: set factor to 4.64
ElecMinimize: Iter:  44  F: -2439.915678874669538  |grad|_K:  5.485e-06  alpha:  8.484e-02  linmin:  2.449e-05  t[s]:   3756.26
	FillingsUpdate:  mu: +0.112082430  nElectrons: 375.000000  magneticMoment: [ Abs: 44.08868  Tot: -0.00000 ]
	SubspaceRotationAdjust: set factor to 4.3
ElecMinimize: Iter:  45  F: -2439.915842434349088  |grad|_K:  4.480e-06  alpha:  3.386e-02  linmin:  2.674e-05  t[s]:   3829.90
	FillingsUpdate:  mu: +0.111122911  nElectrons: 375.000000  magneticMoment: [ Abs: 44.07362  Tot: -0.00000 ]
	SubspaceRotationAdjust: set factor to 4.93
ElecMinimize: Iter:  46  F: -2439.916108669432560  |grad|_K:  4.743e-06  alpha:  8.110e-02  linmin:  1.820e-05  t[s]:   3902.71
	FillingsUpdate:  mu: +0.115212465  nElectrons: 375.000000  magneticMoment: [ Abs: 44.06028  Tot: +0.00000 ]
	SubspaceRotationAdjust: set factor to 4.66
ElecMinimize: Iter:  47  F: -2439.916254789371578  |grad|_K:  4.440e-06  alpha:  3.659e-02  linmin: -3.747e-05  t[s]:   3976.81
	FillingsUpdate:  mu: +0.115849956  nElectrons: 375.000000  magneticMoment: [ Abs: 44.04809  Tot: +0.00000 ]
	SubspaceRotationAdjust: set factor to 4.44
ElecMinimize: Iter:  48  F: -2439.916502067982037  |grad|_K:  4.673e-06  alpha:  7.208e-02  linmin:  8.673e-06  t[s]:   4051.17
	FillingsUpdate:  mu: +0.111707099  nElectrons: 375.000000  magneticMoment: [ Abs: 44.04948  Tot: -0.00000 ]
	SubspaceRotationAdjust: set factor to 4.29
ElecMinimize: Iter:  49  F: -2439.916618974908488  |grad|_K:  4.161e-06  alpha:  3.303e-02  linmin:  5.327e-06  t[s]:   4126.53
	FillingsUpdate:  mu: +0.111652296  nElectrons: 375.000000  magneticMoment: [ Abs: 44.04263  Tot: -0.00000 ]
	SubspaceRotationAdjust: set factor to 4.94
ElecMinimize: Iter:  50  F: -2439.916797389731073  |grad|_K:  4.074e-06  alpha:  6.233e-02  linmin:  1.045e-06  t[s]:   4200.63
	FillingsUpdate:  mu: +0.115424348  nElectrons: 375.000000  magneticMoment: [ Abs: 44.03053  Tot: -0.00000 ]
	SubspaceRotationAdjust: set factor to 4.49
ElecMinimize: Iter:  51  F: -2439.916900286354121  |grad|_K:  4.370e-06  alpha:  3.534e-02  linmin: -4.974e-05  t[s]:   4274.61
	FillingsUpdate:  mu: +0.114769860  nElectrons: 375.000000  magneticMoment: [ Abs: 44.01714  Tot: +0.00000 ]
	SubspaceRotationAdjust: set factor to 5.64
ElecMinimize: Iter:  52  F: -2439.917058419091518  |grad|_K:  3.487e-06  alpha:  4.869e-02  linmin: -7.099e-07  t[s]:   4349.28
	FillingsUpdate:  mu: +0.111559426  nElectrons: 375.000000  magneticMoment: [ Abs: 44.01573  Tot: -0.00000 ]
	SubspaceRotationAdjust: set factor to 5.08
ElecMinimize: Iter:  53  F: -2439.917125466668040  |grad|_K:  3.786e-06  alpha:  3.351e-02  linmin: -1.350e-06  t[s]:   4421.97
	FillingsUpdate:  mu: +0.112961373  nElectrons: 375.000000  magneticMoment: [ Abs: 44.00089  Tot: +0.00000 ]
	SubspaceRotationAdjust: set factor to 7.32
ElecMinimize: Iter:  54  F: -2439.917248285686128  |grad|_K:  2.845e-06  alpha:  5.148e-02  linmin:  5.410e-06  t[s]:   4498.02
	FillingsUpdate:  mu: +0.115752097  nElectrons: 375.000000  magneticMoment: [ Abs: 43.98817  Tot: +0.00000 ]
	SubspaceRotationAdjust: set factor to 4.99
ElecMinimize: Iter:  55  F: -2439.917319816148847  |grad|_K:  4.248e-06  alpha:  5.356e-02  linmin:  1.175e-05  t[s]:   4572.07
	FillingsUpdate:  mu: +0.113047975  nElectrons: 375.000000  magneticMoment: [ Abs: 43.98371  Tot: -0.00000 ]
	SubspaceRotationAdjust: set factor to 5.26
ElecMinimize: Iter:  56  F: -2439.917384013784613  |grad|_K:  2.841e-06  alpha:  2.194e-02  linmin:  3.810e-06  t[s]:   4644.24
ElecMinimize: 	Predicted alpha/alphaT>3.000000, increasing alphaT to 6.582683e-02.
	FillingsUpdate:  mu: +0.112183597  nElectrons: 375.000000  magneticMoment: [ Abs: 43.96858  Tot: -0.00000 ]
	SubspaceRotationAdjust: set factor to 4.93
ElecMinimize: Iter:  57  F: -2439.917479100319724  |grad|_K:  3.117e-06  alpha:  7.106e-02  linmin:  5.325e-07  t[s]:   4743.77
	FillingsUpdate:  mu: +0.114728046  nElectrons: 375.000000  magneticMoment: [ Abs: 43.95702  Tot: -0.00000 ]
	SubspaceRotationAdjust: set factor to 4.32
ElecMinimize: Iter:  58  F: -2439.917522883787569  |grad|_K:  2.841e-06  alpha:  2.629e-02  linmin: -6.989e-05  t[s]:   4818.61
	FillingsUpdate:  mu: +0.114534031  nElectrons: 375.000000  magneticMoment: [ Abs: 43.94488  Tot: +0.00000 ]
	SubspaceRotationAdjust: set factor to 4.43
ElecMinimize: Iter:  59  F: -2439.917616484877726  |grad|_K:  2.681e-06  alpha:  6.834e-02  linmin:  3.052e-06  t[s]:   4891.70
	FillingsUpdate:  mu: +0.112009990  nElectrons: 375.000000  magneticMoment: [ Abs: 43.94573  Tot: +0.00000 ]
	SubspaceRotationAdjust: set factor to 4.04
ElecMinimize: Iter:  60  F: -2439.917655156999444  |grad|_K:  2.642e-06  alpha:  3.274e-02  linmin:  4.746e-06  t[s]:   4965.78
	FillingsUpdate:  mu: +0.112706325  nElectrons: 375.000000  magneticMoment: [ Abs: 43.94062  Tot: -0.00000 ]
	SubspaceRotationAdjust: set factor to 5.2
ElecMinimize: Iter:  61  F: -2439.917723249305709  |grad|_K:  2.330e-06  alpha:  5.907e-02  linmin:  4.456e-06  t[s]:   5038.24
	FillingsUpdate:  mu: +0.115168617  nElectrons: 375.000000  magneticMoment: [ Abs: 43.93357  Tot: +0.00000 ]
	SubspaceRotationAdjust: set factor to 3.82
ElecMinimize: Iter:  62  F: -2439.917770571446908  |grad|_K:  3.167e-06  alpha:  5.259e-02  linmin:  2.890e-06  t[s]:   5111.22
	FillingsUpdate:  mu: +0.113402646  nElectrons: 375.000000  magneticMoment: [ Abs: 43.93273  Tot: +0.00000 ]
	SubspaceRotationAdjust: set factor to 4.6
ElecMinimize: Iter:  63  F: -2439.917821084244224  |grad|_K:  1.995e-06  alpha:  3.061e-02  linmin:  2.634e-06  t[s]:   5186.11
	FillingsUpdate:  mu: +0.112143833  nElectrons: 375.000000  magneticMoment: [ Abs: 43.93101  Tot: +0.00000 ]
	SubspaceRotationAdjust: set factor to 3.55
ElecMinimize: Iter:  64  F: -2439.917873293919001  |grad|_K:  2.766e-06  alpha:  7.847e-02  linmin: -3.593e-05  t[s]:   5260.01
	FillingsUpdate:  mu: +0.114269926  nElectrons: 375.000000  magneticMoment: [ Abs: 43.92452  Tot: +0.00000 ]
	SubspaceRotationAdjust: set factor to 3.69
ElecMinimize: Iter:  65  F: -2439.917912187129787  |grad|_K:  2.004e-06  alpha:  2.929e-02  linmin: -4.600e-05  t[s]:   5335.63
	FillingsUpdate:  mu: +0.115182209  nElectrons: 375.000000  magneticMoment: [ Abs: 43.91999  Tot: -0.00000 ]
	SubspaceRotationAdjust: set factor to 3.41
ElecMinimize: Iter:  66  F: -2439.917963300694737  |grad|_K:  2.387e-06  alpha:  7.520e-02  linmin:  1.071e-05  t[s]:   5408.15
	FillingsUpdate:  mu: +0.113044255  nElectrons: 375.000000  magneticMoment: [ Abs: 43.92120  Tot: +0.00000 ]
	SubspaceRotationAdjust: set factor to 3.31
ElecMinimize: Iter:  67  F: -2439.917994757799534  |grad|_K:  2.073e-06  alpha:  3.397e-02  linmin:  5.688e-06  t[s]:   5483.10
	FillingsUpdate:  mu: +0.112286263  nElectrons: 375.000000  magneticMoment: [ Abs: 43.91694  Tot: +0.00000 ]
	SubspaceRotationAdjust: set factor to 3.38
ElecMinimize: Iter:  68  F: -2439.918050038230376  |grad|_K:  2.303e-06  alpha:  7.763e-02  linmin: -1.536e-06  t[s]:   5555.50
	FillingsUpdate:  mu: +0.114239620  nElectrons: 375.000000  magneticMoment: [ Abs: 43.91003  Tot: -0.00000 ]
	SubspaceRotationAdjust: set factor to 3.09
ElecMinimize: Iter:  69  F: -2439.918081119139970  |grad|_K:  1.969e-06  alpha:  3.473e-02  linmin: -3.577e-06  t[s]:   5629.08
	FillingsUpdate:  mu: +0.115156732  nElectrons: 375.000000  magneticMoment: [ Abs: 43.90261  Tot: -0.00000 ]
	SubspaceRotationAdjust: set factor to 3.03
ElecMinimize: Iter:  70  F: -2439.918132639369105  |grad|_K:  2.266e-06  alpha:  7.960e-02  linmin:  7.288e-06  t[s]:   5702.19
	FillingsUpdate:  mu: +0.113230216  nElectrons: 375.000000  magneticMoment: [ Abs: 43.90266  Tot: +0.00000 ]
	SubspaceRotationAdjust: set factor to 2.93
ElecMinimize: Iter:  71  F: -2439.918163864693724  |grad|_K:  1.860e-06  alpha:  3.713e-02  linmin:  1.229e-05  t[s]:   5776.40
	FillingsUpdate:  mu: +0.112514663  nElectrons: 375.000000  magneticMoment: [ Abs: 43.90057  Tot: -0.00000 ]
	SubspaceRotationAdjust: set factor to 3.1
ElecMinimize: Iter:  72  F: -2439.918209460057369  |grad|_K:  2.122e-06  alpha:  7.924e-02  linmin: -1.280e-05  t[s]:   5848.63
	FillingsUpdate:  mu: +0.114268121  nElectrons: 375.000000  magneticMoment: [ Abs: 43.89570  Tot: -0.00000 ]
	SubspaceRotationAdjust: set factor to 3.03
ElecMinimize: Iter:  73  F: -2439.918240183534635  |grad|_K:  1.880e-06  alpha:  3.983e-02  linmin: -1.242e-05  t[s]:   5920.93
	FillingsUpdate:  mu: +0.114706496  nElectrons: 375.000000  magneticMoment: [ Abs: 43.89314  Tot: +0.00000 ]
	SubspaceRotationAdjust: set factor to 3.29
ElecMinimize: Iter:  74  F: -2439.918283789499583  |grad|_K:  1.996e-06  alpha:  7.338e-02  linmin:  4.237e-06  t[s]:   5994.02
	FillingsUpdate:  mu: +0.112982979  nElectrons: 375.000000  magneticMoment: [ Abs: 43.89567  Tot: -0.00000 ]
	SubspaceRotationAdjust: set factor to 3.01
ElecMinimize: Iter:  75  F: -2439.918308006662301  |grad|_K:  1.713e-06  alpha:  3.710e-02  linmin:  4.670e-06  t[s]:   6069.88
	FillingsUpdate:  mu: +0.112890469  nElectrons: 375.000000  magneticMoment: [ Abs: 43.89719  Tot: +0.00000 ]
	SubspaceRotationAdjust: set factor to 3.31
ElecMinimize: Iter:  76  F: -2439.918348116301331  |grad|_K:  1.873e-06  alpha:  8.242e-02  linmin: -1.765e-06  t[s]:   6143.02
	FillingsUpdate:  mu: +0.114693543  nElectrons: 375.000000  magneticMoment: [ Abs: 43.89517  Tot: +0.00000 ]
	SubspaceRotationAdjust: set factor to 3.03
ElecMinimize: Iter:  77  F: -2439.918371165678309  |grad|_K:  1.610e-06  alpha:  3.846e-02  linmin: -1.113e-05  t[s]:   6216.83
	FillingsUpdate:  mu: +0.114960628  nElectrons: 375.000000  magneticMoment: [ Abs: 43.89640  Tot: -0.00000 ]
	SubspaceRotationAdjust: set factor to 3.74
ElecMinimize: Iter:  78  F: -2439.918402786473507  |grad|_K:  1.612e-06  alpha:  7.234e-02  linmin:  4.375e-06  t[s]:   6291.66
	FillingsUpdate:  mu: +0.113315873  nElectrons: 375.000000  magneticMoment: [ Abs: 43.89962  Tot: -0.00000 ]
	SubspaceRotationAdjust: set factor to 3.53
ElecMinimize: Iter:  79  F: -2439.918421406991911  |grad|_K:  1.607e-06  alpha:  4.323e-02  linmin:  3.389e-06  t[s]:   6365.39
	FillingsUpdate:  mu: +0.113312625  nElectrons: 375.000000  magneticMoment: [ Abs: 43.89945  Tot: -0.00000 ]
	SubspaceRotationAdjust: set factor to 4.51
ElecMinimize: Iter:  80  F: -2439.918447409004330  |grad|_K:  1.306e-06  alpha:  6.045e-02  linmin:  1.669e-06  t[s]:   6435.10
	FillingsUpdate:  mu: +0.114433480  nElectrons: 375.000000  magneticMoment: [ Abs: 43.89807  Tot: +0.00000 ]
	SubspaceRotationAdjust: set factor to 3.68
ElecMinimize: Iter:  81  F: -2439.918465492609357  |grad|_K:  1.763e-06  alpha:  6.368e-02  linmin:  8.200e-07  t[s]:   6511.37
	FillingsUpdate:  mu: +0.113282664  nElectrons: 375.000000  magneticMoment: [ Abs: 43.90131  Tot: -0.00000 ]
	SubspaceRotationAdjust: set factor to 3.93
ElecMinimize: Iter:  82  F: -2439.918484296420502  |grad|_K:  1.255e-06  alpha:  3.638e-02  linmin:  3.612e-07  t[s]:   6584.13
	FillingsUpdate:  mu: +0.113286196  nElectrons: 375.000000  magneticMoment: [ Abs: 43.90365  Tot: +0.00000 ]
	SubspaceRotationAdjust: set factor to 4.52
ElecMinimize: Iter:  83  F: -2439.918503681893526  |grad|_K:  1.257e-06  alpha:  7.385e-02  linmin: -9.304e-07  t[s]:   6657.34
	FillingsUpdate:  mu: +0.114525473  nElectrons: 375.000000  magneticMoment: [ Abs: 43.90251  Tot: +0.00000 ]
	SubspaceRotationAdjust: set factor to 3.96
ElecMinimize: Iter:  84  F: -2439.918515158049559  |grad|_K:  1.416e-06  alpha:  4.325e-02  linmin: -1.867e-06  t[s]:   6729.30
	FillingsUpdate:  mu: +0.113712785  nElectrons: 375.000000  magneticMoment: [ Abs: 43.90440  Tot: +0.00000 ]
	SubspaceRotationAdjust: set factor to 5.05
ElecMinimize: Iter:  85  F: -2439.918531194306070  |grad|_K:  1.012e-06  alpha:  4.787e-02  linmin: -2.318e-06  t[s]:   6803.73
	FillingsUpdate:  mu: +0.112963472  nElectrons: 375.000000  magneticMoment: [ Abs: 43.90576  Tot: +0.00000 ]
	SubspaceRotationAdjust: set factor to 4.59
ElecMinimize: Iter:  86  F: -2439.918545103634187  |grad|_K:  1.279e-06  alpha:  8.129e-02  linmin: -5.095e-06  t[s]:   6878.43
	FillingsUpdate:  mu: +0.113987964  nElectrons: 375.000000  magneticMoment: [ Abs: 43.90446  Tot: +0.00000 ]
	SubspaceRotationAdjust: set factor to 4.22
ElecMinimize: Iter:  87  F: -2439.918554108533044  |grad|_K:  1.229e-06  alpha:  3.276e-02  linmin: -3.068e-06  t[s]:   6952.87
	FillingsUpdate:  mu: +0.113636204  nElectrons: 375.000000  magneticMoment: [ Abs: 43.90664  Tot: -0.00000 ]
	SubspaceRotationAdjust: set factor to 5.43
ElecMinimize: Iter:  88  F: -2439.918568000454343  |grad|_K:  9.684e-07  alpha:  5.497e-02  linmin:  6.962e-08  t[s]:   7028.92
	FillingsUpdate:  mu: +0.112915471  nElectrons: 375.000000  magneticMoment: [ Abs: 43.90939  Tot: +0.00000 ]
	SubspaceRotationAdjust: set factor to 4.15
ElecMinimize: Iter:  89  F: -2439.918579160880654  |grad|_K:  1.399e-06  alpha:  7.138e-02  linmin:  2.083e-07  t[s]:   7103.15
	FillingsUpdate:  mu: +0.113907100  nElectrons: 375.000000  magneticMoment: [ Abs: 43.90878  Tot: +0.00000 ]
	SubspaceRotationAdjust: set factor to 3.77
ElecMinimize: Iter:  90  F: -2439.918587486215074  |grad|_K:  9.767e-07  alpha:  2.548e-02  linmin: -1.252e-06  t[s]:   7176.96
ElecMinimize: 	Predicted alpha/alphaT>3.000000, increasing alphaT to 7.642963e-02.
	FillingsUpdate:  mu: +0.113958426  nElectrons: 375.000000  magneticMoment: [ Abs: 43.91082  Tot: +0.00000 ]
	SubspaceRotationAdjust: set factor to 4.27
ElecMinimize: Iter:  91  F: -2439.918599919568351  |grad|_K:  1.048e-06  alpha:  7.803e-02  linmin:  4.907e-07  t[s]:   7283.59
	FillingsUpdate:  mu: +0.112911115  nElectrons: 375.000000  magneticMoment: [ Abs: 43.91462  Tot: -0.00000 ]
	SubspaceRotationAdjust: set factor to 3.99
ElecMinimize: Iter:  92  F: -2439.918607540006633  |grad|_K:  1.126e-06  alpha:  4.175e-02  linmin:  4.269e-06  t[s]:   7358.53
	FillingsUpdate:  mu: +0.113356063  nElectrons: 375.000000  magneticMoment: [ Abs: 43.91760  Tot: +0.00000 ]
	SubspaceRotationAdjust: set factor to 4.91
ElecMinimize: Iter:  93  F: -2439.918618800303648  |grad|_K:  8.877e-07  alpha:  5.337e-02  linmin:  7.273e-07  t[s]:   7433.75
	FillingsUpdate:  mu: +0.114217991  nElectrons: 375.000000  magneticMoment: [ Abs: 43.91938  Tot: +0.00000 ]
	SubspaceRotationAdjust: set factor to 3.89
ElecMinimize: Iter:  94  F: -2439.918629041551867  |grad|_K:  1.269e-06  alpha:  7.806e-02  linmin:  1.690e-06  t[s]:   7508.14
	FillingsUpdate:  mu: +0.113323645  nElectrons: 375.000000  magneticMoment: [ Abs: 43.92277  Tot: +0.00000 ]
	SubspaceRotationAdjust: set factor to 3.52
ElecMinimize: Iter:  95  F: -2439.918636577227517  |grad|_K:  9.346e-07  alpha:  2.843e-02  linmin:  4.407e-06  t[s]:   7580.86
	FillingsUpdate:  mu: +0.113239245  nElectrons: 375.000000  magneticMoment: [ Abs: 43.92445  Tot: -0.00000 ]
	SubspaceRotationAdjust: set factor to 4.27
ElecMinimize: Iter:  96  F: -2439.918647287304339  |grad|_K:  9.318e-07  alpha:  7.404e-02  linmin: -8.117e-07  t[s]:   7656.72
	FillingsUpdate:  mu: +0.114107956  nElectrons: 375.000000  magneticMoment: [ Abs: 43.92392  Tot: -0.00000 ]
	SubspaceRotationAdjust: set factor to 3.94
ElecMinimize: Iter:  97  F: -2439.918654175619849  |grad|_K:  1.064e-06  alpha:  4.749e-02  linmin: -9.721e-08  t[s]:   7728.95
	FillingsUpdate:  mu: +0.113502863  nElectrons: 375.000000  magneticMoment: [ Abs: 43.92654  Tot: -0.00000 ]
	SubspaceRotationAdjust: set factor to 4.59
ElecMinimize: Iter:  98  F: -2439.918663433818892  |grad|_K:  7.939e-07  alpha:  4.899e-02  linmin: -8.543e-07  t[s]:   7802.98
	FillingsUpdate:  mu: +0.113044576  nElectrons: 375.000000  magneticMoment: [ Abs: 43.92925  Tot: +0.00000 ]
	SubspaceRotationAdjust: set factor to 4.47
ElecMinimize: Iter:  99  F: -2439.918672126505044  |grad|_K:  9.982e-07  alpha:  8.264e-02  linmin: -1.400e-06  t[s]:   7877.20
	FillingsUpdate:  mu: +0.113888309  nElectrons: 375.000000  magneticMoment: [ Abs: 43.92895  Tot: -0.00000 ]
	SubspaceRotationAdjust: set factor to 3.92
ElecMinimize: Iter: 100  F: -2439.918677776910044  |grad|_K:  9.191e-07  alpha:  3.383e-02  linmin: -1.943e-06  t[s]:   7953.95
	FillingsUpdate:  mu: +0.113575996  nElectrons: 375.000000  magneticMoment: [ Abs: 43.93099  Tot: +0.00000 ]
	SubspaceRotationAdjust: set factor to 4.54
ElecMinimize: Iter: 101  F: -2439.918686174495633  |grad|_K:  7.784e-07  alpha:  5.937e-02  linmin: -1.761e-06  t[s]:   8027.19
	FillingsUpdate:  mu: +0.112920155  nElectrons: 375.000000  magneticMoment: [ Abs: 43.93380  Tot: -0.00000 ]
	SubspaceRotationAdjust: set factor to 3.89
ElecMinimize: Iter: 102  F: -2439.918693755194454  |grad|_K:  1.020e-06  alpha:  7.471e-02  linmin: -2.349e-06  t[s]:   8100.46
	FillingsUpdate:  mu: +0.113685748  nElectrons: 375.000000  magneticMoment: [ Abs: 43.93389  Tot: +0.00000 ]
	SubspaceRotationAdjust: set factor to 3.49
ElecMinimize: Iter: 103  F: -2439.918699332278720  |grad|_K:  7.540e-07  alpha:  3.187e-02  linmin: -1.720e-06  t[s]:   8174.15
	FillingsUpdate:  mu: +0.113779825  nElectrons: 375.000000  magneticMoment: [ Abs: 43.93575  Tot: -0.00000 ]
	SubspaceRotationAdjust: set factor to 4.11
ElecMinimize: Iter: 104  F: -2439.918706565424145  |grad|_K:  7.614e-07  alpha:  7.610e-02  linmin: -6.154e-07  t[s]:   8245.39
	FillingsUpdate:  mu: +0.113094441  nElectrons: 375.000000  magneticMoment: [ Abs: 43.93806  Tot: +0.00000 ]
	SubspaceRotationAdjust: set factor to 3.77
ElecMinimize: Iter: 105  F: -2439.918711914471260  |grad|_K:  8.939e-07  alpha:  5.541e-02  linmin: -1.250e-06  t[s]:   8318.91
	FillingsUpdate:  mu: +0.113627304  nElectrons: 375.000000  magneticMoment: [ Abs: 43.93805  Tot: -0.00000 ]
	SubspaceRotationAdjust: set factor to 4.13
ElecMinimize: Iter: 106  F: -2439.918717849351196  |grad|_K:  6.586e-07  alpha:  4.450e-02  linmin:  2.390e-07  t[s]:   8392.05
	FillingsUpdate:  mu: +0.113842823  nElectrons: 375.000000  magneticMoment: [ Abs: 43.93859  Tot: -0.00000 ]
	SubspaceRotationAdjust: set factor to 4.6
ElecMinimize: Iter: 107  F: -2439.918723907182994  |grad|_K:  7.648e-07  alpha:  8.381e-02  linmin:  5.846e-07  t[s]:   8467.41
	FillingsUpdate:  mu: +0.113125621  nElectrons: 375.000000  magneticMoment: [ Abs: 43.94085  Tot: +0.00000 ]
	SubspaceRotationAdjust: set factor to 4.35
ElecMinimize: Iter: 108  F: -2439.918728048367939  |grad|_K:  7.761e-07  alpha:  4.275e-02  linmin:  1.753e-06  t[s]:   8540.90
	FillingsUpdate:  mu: +0.113480720  nElectrons: 375.000000  magneticMoment: [ Abs: 43.94194  Tot: -0.00000 ]
	SubspaceRotationAdjust: set factor to 4.6
ElecMinimize: Iter: 109  F: -2439.918732817309319  |grad|_K:  6.097e-07  alpha:  4.761e-02  linmin:  5.330e-07  t[s]:   8614.16
	FillingsUpdate:  mu: +0.113642580  nElectrons: 375.000000  magneticMoment: [ Abs: 43.94369  Tot: +0.00000 ]
	SubspaceRotationAdjust: set factor to 5.42
ElecMinimize: Iter: 110  F: -2439.918738047118040  |grad|_K:  6.704e-07  alpha:  8.443e-02  linmin:  3.272e-07  t[s]:   8688.92
	FillingsUpdate:  mu: +0.113056727  nElectrons: 375.000000  magneticMoment: [ Abs: 43.94569  Tot: +0.00000 ]
	SubspaceRotationAdjust: set factor to 5.03
ElecMinimize: Iter: 111  F: -2439.918741287650846  |grad|_K:  7.300e-07  alpha:  4.357e-02  linmin:  1.065e-05  t[s]:   8760.67
	FillingsUpdate:  mu: +0.113531120  nElectrons: 375.000000  magneticMoment: [ Abs: 43.94576  Tot: -0.00000 ]
	SubspaceRotationAdjust: set factor to 4.74
ElecMinimize: Iter: 112  F: -2439.918744697326929  |grad|_K:  6.075e-07  alpha:  3.850e-02  linmin:  2.356e-07  t[s]:   8833.34
	FillingsUpdate:  mu: +0.113425489  nElectrons: 375.000000  magneticMoment: [ Abs: 43.94737  Tot: +0.00000 ]
	SubspaceRotationAdjust: set factor to 5.9
ElecMinimize: Iter: 113  F: -2439.918749232999744  |grad|_K:  5.556e-07  alpha:  7.367e-02  linmin: -8.266e-07  t[s]:   8909.22
	FillingsUpdate:  mu: +0.113199784  nElectrons: 375.000000  magneticMoment: [ Abs: 43.94938  Tot: +0.00000 ]
	SubspaceRotationAdjust: set factor to 6.24
ElecMinimize: Iter: 114  F: -2439.918753029671734  |grad|_K:  6.239e-07  alpha:  7.365e-02  linmin: -4.887e-07  t[s]:   8982.60
	FillingsUpdate:  mu: +0.113730923  nElectrons: 375.000000  magneticMoment: [ Abs: 43.94956  Tot: +0.00000 ]
	SubspaceRotationAdjust: set factor to 5.19
ElecMinimize: Iter: 115  F: -2439.918755630365013  |grad|_K:  7.156e-07  alpha:  3.998e-02  linmin: -4.254e-07  t[s]:   9056.13
	FillingsUpdate:  mu: +0.113258629  nElectrons: 375.000000  magneticMoment: [ Abs: 43.95144  Tot: +0.00000 ]
	SubspaceRotationAdjust: set factor to 4.83
ElecMinimize: Iter: 116  F: -2439.918758396325302  |grad|_K:  5.200e-07  alpha:  3.242e-02  linmin: -2.306e-06  t[s]:   9132.59
	FillingsUpdate:  mu: +0.113248879  nElectrons: 375.000000  magneticMoment: [ Abs: 43.95299  Tot: +0.00000 ]
	SubspaceRotationAdjust: set factor to 5.89
ElecMinimize: Iter: 117  F: -2439.918762049347151  |grad|_K:  5.287e-07  alpha:  8.086e-02  linmin: -1.556e-07  t[s]:   9207.50
	FillingsUpdate:  mu: +0.113542357  nElectrons: 375.000000  magneticMoment: [ Abs: 43.95395  Tot: +0.00000 ]
	SubspaceRotationAdjust: set factor to 5.96
ElecMinimize: Iter: 118  F: -2439.918765036396962  |grad|_K:  5.983e-07  alpha:  6.403e-02  linmin:  5.688e-07  t[s]:   9283.07
	FillingsUpdate:  mu: +0.113013329  nElectrons: 375.000000  magneticMoment: [ Abs: 43.95564  Tot: +0.00000 ]
	SubspaceRotationAdjust: set factor to 5.1
ElecMinimize: Iter: 119  F: -2439.918766952820988  |grad|_K:  5.998e-07  alpha:  3.241e-02  linmin:  2.688e-06  t[s]:   9357.37
	FillingsUpdate:  mu: +0.113257760  nElectrons: 375.000000  magneticMoment: [ Abs: 43.95611  Tot: -0.00000 ]
	SubspaceRotationAdjust: set factor to 5.83
ElecMinimize: Iter: 120  F: -2439.918770218250756  |grad|_K:  5.004e-07  alpha:  5.471e-02  linmin:  1.080e-06  t[s]:   9432.25
	FillingsUpdate:  mu: +0.113236302  nElectrons: 375.000000  magneticMoment: [ Abs: 43.95651  Tot: +0.00000 ]
	SubspaceRotationAdjust: set factor to 6.34
ElecMinimize: Iter: 121  F: -2439.918773279036031  |grad|_K:  4.990e-07  alpha:  7.344e-02  linmin: -3.314e-07  t[s]:   9507.60
	FillingsUpdate:  mu: +0.112964606  nElectrons: 375.000000  magneticMoment: [ Abs: 43.95763  Tot: +0.00000 ]
	SubspaceRotationAdjust: set factor to 6.56
ElecMinimize: Iter: 122  F: -2439.918776188912489  |grad|_K:  5.706e-07  alpha:  7.007e-02  linmin: -7.313e-06  t[s]:   9583.16
	FillingsUpdate:  mu: +0.113446423  nElectrons: 375.000000  magneticMoment: [ Abs: 43.95741  Tot: -0.00000 ]
	SubspaceRotationAdjust: set factor to 5.41
ElecMinimize: Iter: 123  F: -2439.918777802214663  |grad|_K:  5.621e-07  alpha:  2.944e-02  linmin: -4.324e-06  t[s]:   9657.54
	FillingsUpdate:  mu: +0.113139340  nElectrons: 375.000000  magneticMoment: [ Abs: 43.95910  Tot: -0.00000 ]
	SubspaceRotationAdjust: set factor to 5.97
ElecMinimize: Iter: 124  F: -2439.918780619204426  |grad|_K:  4.990e-07  alpha:  5.302e-02  linmin: -5.152e-06  t[s]:   9733.70
	FillingsUpdate:  mu: +0.113049120  nElectrons: 375.000000  magneticMoment: [ Abs: 43.96013  Tot: -0.00000 ]
	SubspaceRotationAdjust: set factor to 6.66
ElecMinimize: Iter: 125  F: -2439.918783681430341  |grad|_K:  4.680e-07  alpha:  7.307e-02  linmin: -1.626e-07  t[s]:   9806.69
	FillingsUpdate:  mu: +0.113328381  nElectrons: 375.000000  magneticMoment: [ Abs: 43.96027  Tot: +0.00000 ]
	SubspaceRotationAdjust: set factor to 5.73
ElecMinimize: Iter: 126  F: -2439.918786378926598  |grad|_K:  6.285e-07  alpha:  7.384e-02  linmin:  2.364e-06  t[s]:   9880.46
	FillingsUpdate:  mu: +0.112806310  nElectrons: 375.000000  magneticMoment: [ Abs: 43.96166  Tot: -0.00000 ]
	SubspaceRotationAdjust: set factor to 4.83
ElecMinimize: Iter: 127  F: -2439.918788234440399  |grad|_K:  5.321e-07  alpha:  2.915e-02  linmin:  2.626e-05  t[s]:   9954.70
	FillingsUpdate:  mu: +0.113035739  nElectrons: 375.000000  magneticMoment: [ Abs: 43.96226  Tot: +0.00000 ]
	SubspaceRotationAdjust: set factor to 5.01
ElecMinimize: Iter: 128  F: -2439.918790794802135  |grad|_K:  4.742e-07  alpha:  5.559e-02  linmin:  1.360e-05  t[s]:  10027.31
	FillingsUpdate:  mu: +0.113237152  nElectrons: 375.000000  magneticMoment: [ Abs: 43.96290  Tot: -0.00000 ]
	SubspaceRotationAdjust: set factor to 5.91
ElecMinimize: Iter: 129  F: -2439.918793844002721  |grad|_K:  5.338e-07  alpha:  8.220e-02  linmin:  4.627e-06  t[s]:  10102.02
	FillingsUpdate:  mu: +0.112744585  nElectrons: 375.000000  magneticMoment: [ Abs: 43.96413  Tot: -0.00000 ]
	SubspaceRotationAdjust: set factor to 5.28
ElecMinimize: Iter: 130  F: -2439.918795800319913  |grad|_K:  5.501e-07  alpha:  4.248e-02  linmin:  5.793e-06  t[s]:  10180.38
	FillingsUpdate:  mu: +0.113037027  nElectrons: 375.000000  magneticMoment: [ Abs: 43.96413  Tot: -0.00000 ]
	SubspaceRotationAdjust: set factor to 5.24
ElecMinimize: Iter: 131  F: -2439.918798386130220  |grad|_K:  5.120e-07  alpha:  5.193e-02  linmin:  4.819e-06  t[s]:  10256.51
	FillingsUpdate:  mu: +0.112852003  nElectrons: 375.000000  magneticMoment: [ Abs: 43.96501  Tot: +0.00000 ]
	SubspaceRotationAdjust: set factor to 6.01
ElecMinimize: Iter: 132  F: -2439.918801374526538  |grad|_K:  4.724e-07  alpha:  6.883e-02  linmin: -4.393e-06  t[s]:  10331.09
	FillingsUpdate:  mu: +0.112832235  nElectrons: 375.000000  magneticMoment: [ Abs: 43.96561  Tot: +0.00000 ]
	SubspaceRotationAdjust: set factor to 6.86
ElecMinimize: Iter: 133  F: -2439.918804625236589  |grad|_K:  5.196e-07  alpha:  8.690e-02  linmin: -1.276e-07  t[s]:  10405.81
	FillingsUpdate:  mu: +0.113088115  nElectrons: 375.000000  magneticMoment: [ Abs: 43.96554  Tot: -0.00000 ]
	SubspaceRotationAdjust: set factor to 7.35
ElecMinimize: Iter: 134  F: -2439.918807523135456  |grad|_K:  5.622e-07  alpha:  6.397e-02  linmin:  1.859e-06  t[s]:  10479.52
	FillingsUpdate:  mu: +0.112553967  nElectrons: 375.000000  magneticMoment: [ Abs: 43.96678  Tot: +0.00000 ]
	SubspaceRotationAdjust: set factor to 6.55
ElecMinimize: Iter: 135  F: -2439.918809790338855  |grad|_K:  6.476e-07  alpha:  4.399e-02  linmin: -1.408e-06  t[s]:  10553.42
	FillingsUpdate:  mu: +0.112899982  nElectrons: 375.000000  magneticMoment: [ Abs: 43.96721  Tot: +0.00000 ]
	SubspaceRotationAdjust: set factor to 6.43
ElecMinimize: Iter: 136  F: -2439.918812682774387  |grad|_K:  5.646e-07  alpha:  4.114e-02  linmin:  7.249e-06  t[s]:  10628.71
	FillingsUpdate:  mu: +0.112657058  nElectrons: 375.000000  magneticMoment: [ Abs: 43.96899  Tot: +0.00000 ]
	SubspaceRotationAdjust: set factor to 7.16
ElecMinimize: Iter: 137  F: -2439.918815847620408  |grad|_K:  5.592e-07  alpha:  6.007e-02  linmin: -1.028e-05  t[s]:  10703.08
	FillingsUpdate:  mu: +0.112760689  nElectrons: 375.000000  magneticMoment: [ Abs: 43.97063  Tot: -0.00000 ]
	SubspaceRotationAdjust: set factor to 8.42
	SubspaceRotationAdjust: resetting CG because factor has changed by 8.41863
ElecMinimize: 	State modified externally: resetting search direction.
ElecMinimize: Iter: 138  F: -2439.918819886765050  |grad|_K:  5.933e-07  alpha:  7.641e-02
	FillingsUpdate:  mu: +0.112377484  nElectrons: 375.000000  magneticMoment: [ Abs: 43.97191  Tot: -0.00000 ]
	SubspaceRotationAdjust: set factor to 4.87
ElecMinimize: Iter: 139  F: -2439.918829346943312  |grad|_K:  8.551e-07  alpha:  1.609e-01  linmin: -3.729e-06  t[s]:  10862.52
	FillingsUpdate:  mu: +0.113355550  nElectrons: 375.000000  magneticMoment: [ Abs: 43.97144  Tot: -0.00000 ]
	SubspaceRotationAdjust: set factor to 2.96
ElecMinimize: Iter: 140  F: -2439.918836206660671  |grad|_K:  8.138e-07  alpha:  5.506e-02  linmin: -1.497e-05  t[s]:  10933.95
	FillingsUpdate:  mu: +0.112583962  nElectrons: 375.000000  magneticMoment: [ Abs: 43.97312  Tot: -0.00000 ]
	SubspaceRotationAdjust: set factor to 2.06
ElecMinimize: Iter: 141  F: -2439.918840886411090  |grad|_K:  5.062e-07  alpha:  4.193e-02  linmin: -3.365e-06  t[s]:  11007.26
ElecMinimize: 	Predicted alpha/alphaT>3.000000, increasing alphaT to 1.258036e-01.
	FillingsUpdate:  mu: +0.112348179  nElectrons: 375.000000  magneticMoment: [ Abs: 43.97535  Tot: +0.00000 ]
	SubspaceRotationAdjust: set factor to 1.41
ElecMinimize: Iter: 142  F: -2439.918852137858721  |grad|_K:  5.852e-07  alpha:  2.625e-01  linmin: -6.743e-06  t[s]:  11112.67
	FillingsUpdate:  mu: +0.113288418  nElectrons: 375.000000  magneticMoment: [ Abs: 43.97554  Tot: -0.00000 ]
	SubspaceRotationAdjust: set factor to 1.18
ElecMinimize: Iter: 143  F: -2439.918858859131888  |grad|_K:  5.260e-07  alpha:  1.165e-01  linmin: -8.869e-06  t[s]:  11184.94
	FillingsUpdate:  mu: +0.112773953  nElectrons: 375.000000  magneticMoment: [ Abs: 43.97792  Tot: +0.00000 ]
	SubspaceRotationAdjust: set factor to 1.43
ElecMinimize: Iter: 144  F: -2439.918867046192645  |grad|_K:  3.680e-07  alpha:  1.762e-01  linmin: -5.794e-06  t[s]:  11256.20
	FillingsUpdate:  mu: +0.112174389  nElectrons: 375.000000  magneticMoment: [ Abs: 43.97940  Tot: -0.00000 ]
	SubspaceRotationAdjust: set factor to 1.17
ElecMinimize: Iter: 145  F: -2439.918871642946669  |grad|_K:  4.217e-07  alpha:  2.025e-01  linmin: -1.468e-05  t[s]:  11329.62
	FillingsUpdate:  mu: +0.112900703  nElectrons: 375.000000  magneticMoment: [ Abs: 43.97923  Tot: +0.00000 ]
	SubspaceRotationAdjust: set factor to 1.13
	SubspaceRotationAdjust: resetting CG because factor has changed by 0.134461
ElecMinimize: 	State modified externally: resetting search direction.
ElecMinimize: Iter: 146  F: -2439.918876372852992  |grad|_K:  3.409e-07  alpha:  1.583e-01
	FillingsUpdate:  mu: +0.112557444  nElectrons: 375.000000  magneticMoment: [ Abs: 43.97979  Tot: -0.00000 ]
	SubspaceRotationAdjust: set factor to 1.42
ElecMinimize: Iter: 147  F: -2439.918880154303224  |grad|_K:  1.855e-07  alpha:  1.951e-01  linmin: -2.115e-06  t[s]:  11492.79
	FillingsUpdate:  mu: +0.113050568  nElectrons: 375.000000  magneticMoment: [ Abs: 43.97899  Tot: -0.00000 ]
	SubspaceRotationAdjust: set factor to 0.903
ElecMinimize: Iter: 148  F: -2439.918882089335057  |grad|_K:  2.591e-07  alpha:  3.373e-01  linmin:  3.467e-06  t[s]:  11567.52
	FillingsUpdate:  mu: +0.112554601  nElectrons: 375.000000  magneticMoment: [ Abs: 43.97939  Tot: +0.00000 ]
	SubspaceRotationAdjust: set factor to 0.734
ElecMinimize: Iter: 149  F: -2439.918884070730201  |grad|_K:  1.767e-07  alpha:  1.788e-01  linmin:  5.502e-06  t[s]:  11642.35
	FillingsUpdate:  mu: +0.112695775  nElectrons: 375.000000  magneticMoment: [ Abs: 43.97930  Tot: -0.00000 ]
	SubspaceRotationAdjust: set factor to 0.954
ElecMinimize: Iter: 150  F: -2439.918886300094528  |grad|_K:  1.505e-07  alpha:  4.299e-01  linmin:  1.062e-06  t[s]:  11715.64
	FillingsUpdate:  mu: +0.112966765  nElectrons: 375.000000  magneticMoment: [ Abs: 43.97911  Tot: -0.00000 ]
	SubspaceRotationAdjust: set factor to 0.978
ElecMinimize: Iter: 151  F: -2439.918887941094908  |grad|_K:  1.886e-07  alpha:  4.347e-01  linmin:  5.649e-06  t[s]:  11791.55
	FillingsUpdate:  mu: +0.112337713  nElectrons: 375.000000  magneticMoment: [ Abs: 43.98020  Tot: +0.00000 ]
	SubspaceRotationAdjust: set factor to 0.867
ElecMinimize: Iter: 152  F: -2439.918890444198951  |grad|_K:  2.801e-07  alpha:  4.231e-01  linmin: -5.864e-05  t[s]:  11866.02
	FillingsUpdate:  mu: +0.112916061  nElectrons: 375.000000  magneticMoment: [ Abs: 43.98093  Tot: +0.00000 ]
	SubspaceRotationAdjust: set factor to 0.807
ElecMinimize: Iter: 153  F: -2439.918896653253341  |grad|_K:  3.253e-07  alpha:  4.705e-01  linmin:  4.298e-05  t[s]:  11939.36
	FillingsUpdate:  mu: +0.112938506  nElectrons: 375.000000  magneticMoment: [ Abs: 43.98380  Tot: -0.00000 ]
	SubspaceRotationAdjust: set factor to 0.89
ElecMinimize: Iter: 154  F: -2439.918905398161769  |grad|_K:  3.711e-07  alpha:  5.085e-01  linmin:  9.344e-06  t[s]:  12010.64
	FillingsUpdate:  mu: +0.112540970  nElectrons: 375.000000  magneticMoment: [ Abs: 43.98854  Tot: +0.00000 ]
	SubspaceRotationAdjust: set factor to 0.931
ElecMinimize: Iter: 155  F: -2439.918917266097196  |grad|_K:  4.435e-07  alpha:  5.198e-01  linmin: -3.300e-05  t[s]:  12086.96
	FillingsUpdate:  mu: +0.113565129  nElectrons: 375.000000  magneticMoment: [ Abs: 43.99150  Tot: +0.00000 ]
	SubspaceRotationAdjust: set factor to 0.915
ElecMinimize: Iter: 156  F: -2439.918929929094247  |grad|_K:  5.074e-07  alpha:  3.548e-01  linmin:  5.947e-06  t[s]:  12157.78
	FillingsUpdate:  mu: +0.113095215  nElectrons: 375.000000  magneticMoment: [ Abs: 43.99616  Tot: +0.00000 ]
	SubspaceRotationAdjust: set factor to 1.25
ElecMinimize: Iter: 157  F: -2439.918943563199264  |grad|_K:  4.768e-07  alpha:  3.193e-01  linmin: -2.720e-05  t[s]:  12231.00
	FillingsUpdate:  mu: +0.112565791  nElectrons: 375.000000  magneticMoment: [ Abs: 44.00011  Tot: -0.00000 ]
	SubspaceRotationAdjust: set factor to 1.29
ElecMinimize: Iter: 158  F: -2439.918955155854746  |grad|_K:  5.008e-07  alpha:  3.027e-01  linmin: -3.165e-05  t[s]:  12304.07
	FillingsUpdate:  mu: +0.113688392  nElectrons: 375.000000  magneticMoment: [ Abs: 44.00341  Tot: +0.00000 ]
	SubspaceRotationAdjust: set factor to 1.2
ElecMinimize: Iter: 159  F: -2439.918967647809950  |grad|_K:  6.028e-07  alpha:  2.922e-01  linmin:  4.848e-05  t[s]:  12376.80
	FillingsUpdate:  mu: +0.113835396  nElectrons: 375.000000  magneticMoment: [ Abs: 44.00897  Tot: -0.00000 ]
	SubspaceRotationAdjust: set factor to 1.31
ElecMinimize: Iter: 160  F: -2439.918982279165903  |grad|_K:  6.274e-07  alpha:  2.534e-01  linmin:  2.400e-06  t[s]:  12449.31
	FillingsUpdate:  mu: +0.113205535  nElectrons: 375.000000  magneticMoment: [ Abs: 44.01456  Tot: -0.00000 ]
	SubspaceRotationAdjust: set factor to 1.46
ElecMinimize: Iter: 161  F: -2439.918996315393088  |grad|_K:  5.740e-07  alpha:  2.170e-01  linmin: -2.852e-05  t[s]:  12522.56
	FillingsUpdate:  mu: +0.113600701  nElectrons: 375.000000  magneticMoment: [ Abs: 44.01942  Tot: +0.00000 ]
	SubspaceRotationAdjust: set factor to 1.49
ElecMinimize: Iter: 162  F: -2439.919010737149165  |grad|_K:  5.901e-07  alpha:  2.568e-01  linmin:  3.231e-05  t[s]:  12596.95
	FillingsUpdate:  mu: +0.114262112  nElectrons: 375.000000  magneticMoment: [ Abs: 44.02506  Tot: -0.00000 ]
	SubspaceRotationAdjust: set factor to 1.45
ElecMinimize: Iter: 163  F: -2439.919025087317095  |grad|_K:  6.540e-07  alpha:  2.533e-01  linmin:  1.990e-05  t[s]:  12670.45
	FillingsUpdate:  mu: +0.114232452  nElectrons: 375.000000  magneticMoment: [ Abs: 44.03113  Tot: -0.00000 ]
	SubspaceRotationAdjust: set factor to 1.86
ElecMinimize: Iter: 164  F: -2439.919038547378022  |grad|_K:  5.777e-07  alpha:  1.948e-01  linmin: -1.650e-05  t[s]:  12743.06
	FillingsUpdate:  mu: +0.114231516  nElectrons: 375.000000  magneticMoment: [ Abs: 44.03708  Tot: -0.00000 ]
	SubspaceRotationAdjust: set factor to 1.99
ElecMinimize: Iter: 165  F: -2439.919052038517293  |grad|_K:  5.665e-07  alpha:  2.366e-01  linmin: -3.270e-05  t[s]:  12817.41
	FillingsUpdate:  mu: +0.114935236  nElectrons: 375.000000  magneticMoment: [ Abs: 44.04185  Tot: -0.00000 ]
	SubspaceRotationAdjust: set factor to 1.83
ElecMinimize: Iter: 166  F: -2439.919063951633234  |grad|_K:  5.591e-07  alpha:  2.147e-01  linmin:  1.078e-05  t[s]:  12893.05
	FillingsUpdate:  mu: +0.114808577  nElectrons: 375.000000  magneticMoment: [ Abs: 44.04623  Tot: -0.00000 ]
	SubspaceRotationAdjust: set factor to 2.35
ElecMinimize: Iter: 167  F: -2439.919074557101794  |grad|_K:  4.994e-07  alpha:  2.061e-01  linmin: -2.413e-05  t[s]:  12966.64
	FillingsUpdate:  mu: +0.114898701  nElectrons: 375.000000  magneticMoment: [ Abs: 44.05011  Tot: +0.00000 ]
	SubspaceRotationAdjust: set factor to 2.58
ElecMinimize: Iter: 168  F: -2439.919085361086218  |grad|_K:  4.742e-07  alpha:  2.515e-01  linmin: -3.201e-05  t[s]:  13039.61
	FillingsUpdate:  mu: +0.115773666  nElectrons: 375.000000  magneticMoment: [ Abs: 44.05252  Tot: -0.00000 ]
	SubspaceRotationAdjust: set factor to 2.3
ElecMinimize: Iter: 169  F: -2439.919093645558860  |grad|_K:  5.034e-07  alpha:  2.138e-01  linmin:  3.869e-06  t[s]:  13111.69
	FillingsUpdate:  mu: +0.115363286  nElectrons: 375.000000  magneticMoment: [ Abs: 44.05400  Tot: +0.00000 ]
	SubspaceRotationAdjust: set factor to 2.84
ElecMinimize: Iter: 170  F: -2439.919100872130002  |grad|_K:  4.224e-07  alpha:  1.732e-01  linmin: -1.089e-05  t[s]:  13187.43
	FillingsUpdate:  mu: +0.115575893  nElectrons: 375.000000  magneticMoment: [ Abs: 44.05453  Tot: -0.00000 ]
	SubspaceRotationAdjust: set factor to 3.4
ElecMinimize: Iter: 171  F: -2439.919108384521678  |grad|_K:  4.061e-07  alpha:  2.495e-01  linmin: -2.935e-06  t[s]:  13261.15
	FillingsUpdate:  mu: +0.116050415  nElectrons: 375.000000  magneticMoment: [ Abs: 44.05487  Tot: -0.00000 ]
	SubspaceRotationAdjust: set factor to 3.45
ElecMinimize: Iter: 172  F: -2439.919115503324065  |grad|_K:  4.487e-07  alpha:  2.584e-01  linmin:  4.077e-06  t[s]:  13335.25
	FillingsUpdate:  mu: +0.115531811  nElectrons: 375.000000  magneticMoment: [ Abs: 44.05502  Tot: +0.00000 ]
	SubspaceRotationAdjust: set factor to 2.97
ElecMinimize: Iter: 173  F: -2439.919120239701897  |grad|_K:  4.589e-07  alpha:  1.431e-01  linmin:  3.562e-06  t[s]:  13410.95
	FillingsUpdate:  mu: +0.116063611  nElectrons: 375.000000  magneticMoment: [ Abs: 44.05522  Tot: +0.00000 ]
	SubspaceRotationAdjust: set factor to 3.44
ElecMinimize: Iter: 174  F: -2439.919125428608368  |grad|_K:  3.857e-07  alpha:  1.484e-01  linmin:  6.000e-06  t[s]:  13486.59
	FillingsUpdate:  mu: +0.116029035  nElectrons: 375.000000  magneticMoment: [ Abs: 44.05575  Tot: +0.00000 ]
	SubspaceRotationAdjust: set factor to 3.68
ElecMinimize: Iter: 175  F: -2439.919131200955690  |grad|_K:  3.857e-07  alpha:  2.346e-01  linmin:  2.594e-07  t[s]:  13561.22
	FillingsUpdate:  mu: +0.115836686  nElectrons: 375.000000  magneticMoment: [ Abs: 44.05681  Tot: -0.00000 ]
	SubspaceRotationAdjust: set factor to 3.2
ElecMinimize: Iter: 176  F: -2439.919136605715721  |grad|_K:  4.635e-07  alpha:  2.180e-01  linmin: -3.627e-06  t[s]:  13634.33
	FillingsUpdate:  mu: +0.116401673  nElectrons: 375.000000  magneticMoment: [ Abs: 44.05789  Tot: +0.00000 ]
	SubspaceRotationAdjust: set factor to 3.25
ElecMinimize: Iter: 177  F: -2439.919140968828287  |grad|_K:  4.202e-07  alpha:  1.204e-01  linmin: -3.347e-06  t[s]:  13708.23
	FillingsUpdate:  mu: +0.116082169  nElectrons: 375.000000  magneticMoment: [ Abs: 44.05883  Tot: -0.00000 ]
	SubspaceRotationAdjust: set factor to 4.18
ElecMinimize: Iter: 178  F: -2439.919146279379220  |grad|_K:  3.735e-07  alpha:  1.789e-01  linmin: -8.689e-06  t[s]:  13780.65
	FillingsUpdate:  mu: +0.116130310  nElectrons: 375.000000  magneticMoment: [ Abs: 44.05896  Tot: +0.00000 ]
	SubspaceRotationAdjust: set factor to 3.75
ElecMinimize: Iter: 179  F: -2439.919150604122933  |grad|_K:  4.105e-07  alpha:  1.840e-01  linmin: -1.013e-06  t[s]:  13857.00
	FillingsUpdate:  mu: +0.116529889  nElectrons: 375.000000  magneticMoment: [ Abs: 44.05906  Tot: +0.00000 ]
	SubspaceRotationAdjust: set factor to 3.63
ElecMinimize: Iter: 180  F: -2439.919153511212699  |grad|_K:  3.498e-07  alpha:  1.031e-01  linmin: -9.064e-07  t[s]:  13930.77
	FillingsUpdate:  mu: +0.116147932  nElectrons: 375.000000  magneticMoment: [ Abs: 44.05895  Tot: +0.00000 ]
	SubspaceRotationAdjust: set factor to 3.93
ElecMinimize: Iter: 181  F: -2439.919156289570310  |grad|_K:  2.966e-07  alpha:  1.359e-01  linmin: -2.180e-06  t[s]:  14003.08
	FillingsUpdate:  mu: +0.116337916  nElectrons: 375.000000  magneticMoment: [ Abs: 44.05870  Tot: -0.00000 ]
	SubspaceRotationAdjust: set factor to 3.74
ElecMinimize: Iter: 182  F: -2439.919158168088416  |grad|_K:  2.655e-07  alpha:  1.276e-01  linmin:  2.366e-07  t[s]:  14074.77
	FillingsUpdate:  mu: +0.116499696  nElectrons: 375.000000  magneticMoment: [ Abs: 44.05835  Tot: -0.00000 ]
	SubspaceRotationAdjust: set factor to 4
ElecMinimize: Iter: 183  F: -2439.919159879202653  |grad|_K:  2.375e-07  alpha:  1.457e-01  linmin:  6.847e-07  t[s]:  14146.85
	FillingsUpdate:  mu: +0.116179444  nElectrons: 375.000000  magneticMoment: [ Abs: 44.05786  Tot: -0.00000 ]
	SubspaceRotationAdjust: set factor to 3.77
ElecMinimize: Iter: 184  F: -2439.919160976552575  |grad|_K:  2.271e-07  alpha:  1.168e-01  linmin: -4.421e-07  t[s]:  14219.97
	FillingsUpdate:  mu: +0.116400925  nElectrons: 375.000000  magneticMoment: [ Abs: 44.05738  Tot: +0.00000 ]
	SubspaceRotationAdjust: set factor to 4.07
ElecMinimize: Iter: 185  F: -2439.919162002703160  |grad|_K:  1.745e-07  alpha:  1.193e-01  linmin:  8.209e-08  t[s]:  14293.27
	FillingsUpdate:  mu: +0.116451815  nElectrons: 375.000000  magneticMoment: [ Abs: 44.05730  Tot: -0.00000 ]
	SubspaceRotationAdjust: set factor to 3.91
ElecMinimize: Iter: 186  F: -2439.919162949986003  |grad|_K:  1.729e-07  alpha:  1.864e-01  linmin: -3.458e-07  t[s]:  14365.84
	FillingsUpdate:  mu: +0.116228484  nElectrons: 375.000000  magneticMoment: [ Abs: 44.05728  Tot: -0.00000 ]
	SubspaceRotationAdjust: set factor to 3.15
ElecMinimize: Iter: 187  F: -2439.919163514046886  |grad|_K:  1.770e-07  alpha:  1.132e-01  linmin:  1.686e-07  t[s]:  14437.71
	FillingsUpdate:  mu: +0.116410272  nElectrons: 375.000000  magneticMoment: [ Abs: 44.05733  Tot: +0.00000 ]
	SubspaceRotationAdjust: set factor to 4.02
ElecMinimize: Iter: 188  F: -2439.919164198605813  |grad|_K:  1.399e-07  alpha:  1.310e-01  linmin:  1.869e-07  t[s]:  14512.32
	FillingsUpdate:  mu: +0.116417801  nElectrons: 375.000000  magneticMoment: [ Abs: 44.05735  Tot: -0.00000 ]
	SubspaceRotationAdjust: set factor to 3.52
ElecMinimize: Iter: 189  F: -2439.919164855809413  |grad|_K:  1.525e-07  alpha:  2.013e-01  linmin: -2.960e-07  t[s]:  14586.57
	FillingsUpdate:  mu: +0.116244540  nElectrons: 375.000000  magneticMoment: [ Abs: 44.05728  Tot: +0.00000 ]
	SubspaceRotationAdjust: set factor to 3.14
ElecMinimize: Iter: 190  F: -2439.919165292164962  |grad|_K:  1.528e-07  alpha:  1.124e-01  linmin:  8.118e-08  t[s]:  14662.06
ElecMinimize: Converged (|Delta F|<1.000000e-06 for 5 iters).
Setting wave functions to eigenvectors of Hamiltonian

# Ionic positions in lattice coordinates:
ion Co   0.000000000000000   0.000000000000000   0.150000000000000 1
ion Co   0.500000000000000   0.000000000000000   0.150000000000000 1
ion Co   0.000000000000000   0.500000000000000   0.150000000000000 1
ion Co   0.500000000000000   0.500000000000000   0.150000000000000 1
ion Co   0.250000000000000   0.250000000000000   0.050000000000000 1
ion Co   0.250000000000000   0.750000000000000   0.050000000000000 1
ion Co  -0.250000000000000   0.250000000000000   0.050000000000000 1
ion Co  -0.250000000000000   0.750000000000000   0.050000000000000 1
ion Co   0.000000000000000   0.000000000000000  -0.050000000000000 0
ion Co   0.500000000000000   0.000000000000000  -0.050000000000000 0
ion Co   0.000000000000000   0.500000000000000  -0.050000000000000 0
ion Co   0.500000000000000   0.500000000000000  -0.050000000000000 0
ion Co   0.250000000000000   0.250000000000000  -0.150000000000000 0
ion Co   0.250000000000000   0.750000000000000  -0.150000000000000 0
ion Co  -0.250000000000000   0.250000000000000  -0.150000000000000 0
ion Co  -0.250000000000000   0.750000000000000  -0.150000000000000 0
ion O   0.250000000000000   0.250000000000000   0.150000000000000 1
ion O   0.250000000000000   0.750000000000000   0.150000000000000 1
ion O  -0.250000000000000   0.250000000000000   0.150000000000000 1
ion O  -0.250000000000000   0.750000000000000   0.150000000000000 1
ion O   0.000000000000000   0.000000000000000   0.050000000000000 1
ion O   0.500000000000000   0.000000000000000   0.050000000000000 1
ion O   0.000000000000000   0.500000000000000   0.050000000000000 1
ion O   0.500000000000000   0.500000000000000   0.050000000000000 1
ion O   0.250000000000000   0.250000000000000  -0.050000000000000 0
ion O   0.250000000000000   0.750000000000000  -0.050000000000000 0
ion O  -0.250000000000000   0.250000000000000  -0.050000000000000 0
ion O  -0.250000000000000   0.750000000000000  -0.050000000000000 0
ion O   0.000000000000000   0.000000000000000  -0.150000000000000 0
ion O   0.500000000000000   0.000000000000000  -0.150000000000000 0
ion O   0.000000000000000   0.500000000000000  -0.150000000000000 0
ion O   0.500000000000000   0.500000000000000  -0.150000000000000 0
ion O   0.000000000000000   0.000000000000000   0.230000000000000 1
ion H   0.100000000000000   0.100000000000000   0.250000000000000 1

# Forces in Lattice coordinates:
force Co   0.050210356300344  -0.014360875279028  -1.994973782262647 1
force Co  -0.002179754255337  -0.018724518739570   0.370116913511136 1
force Co  -0.038366540177130   0.029437272890694   0.386799364942951 1
force Co  -0.008644684685136   0.019005624645133   0.305736273398118 1
force Co   0.024921935473656   0.023287072989011   0.108355457953006 1
force Co   0.023498900059875  -0.021828439624761   0.181427649112687 1
force Co  -0.016711400528616   0.022235369529680   0.127150910959635 1
force Co  -0.015790279706801  -0.021157791062451   0.148939230027998 1
force Co  -0.012801267066585  -0.001947729608330  -0.175305526000683 0
force Co  -0.004440430447861  -0.000769581526484  -0.071126154056181 0
force Co  -0.002533312719950   0.000357626898102  -0.074899964932595 0
force Co  -0.004685071734174   0.000486273233782  -0.062256350102674 0
force Co   0.028202242227365   0.001661739052116  -0.295460783512972 0
force Co   0.028234066907249  -0.001943367667701  -0.292925649379479 0
force Co   0.028059843250531   0.001433022278101  -0.296810418350049 0
force Co   0.028033359096208  -0.001406847518786  -0.295261350931675 0
force O   0.065277610865322   0.057394715813276   0.046363942668536 1
force O   0.078627650227114  -0.070612459511011  -0.176431441268779 1
force O  -0.086242519893199   0.080304829556280  -0.172297155473068 1
force O  -0.075942256572282  -0.071609279372350  -0.119505662719678 1
force O  -0.002704197537280   0.004665540427482   0.501515164097445 1
force O   0.002858015431379   0.003031019300222  -0.042938992137140 1
force O   0.016153268506520  -0.003949539245820  -0.063535284931464 1
force O   0.001778069690169  -0.005027905439972  -0.082426517948611 1
force O  -0.017183505972077  -0.004807616946511   0.023143524938555 0
force O  -0.016591015715328   0.004421454093955   0.016096082390787 0
force O  -0.007595461447096  -0.005535306947387   0.001908780394678 0
[...]
-------------------------------------
     Etot =    -2439.9652161234030245
       TS =        0.0005398816277464
-------------------------------------
        F =    -2439.9657560050309257

IonicMinimize: Iter:  25  F: -2439.965756005030926  |grad|_K:  6.984e-04  alpha:  1.000e+00  linmin:  2.844e-02  t[s]:  75273.87

#--- Lowdin population analysis ---
# oxidation-state Co +1.335 +1.248 +1.241 +1.242 +1.215 +1.213 +1.221 +1.220 +1.226 +1.207 +1.224 +1.207 +1.227 +1.227 +1.226 +1.227
# magnetic-moments Co +2.771 -2.690 +2.678 -2.662 +2.654 +2.652 -2.672 -2.669 -2.680 +2.623 -2.675 +2.609 -2.665 -2.665 +2.662 +2.662
# oxidation-state O -1.070 -1.076 -1.064 -1.074 -1.077 -1.075 -1.081 -1.071 -1.077 -1.077 -1.077 -1.077 -1.087 -1.080 -1.086 -1.078 -0.822
# magnetic-moments O +0.067 +0.050 -0.032 -0.041 -0.075 -0.034 -0.011 -0.040 -0.060 -0.059 +0.022 +0.021 -0.058 +0.028 -0.064 +0.021 +0.327
# oxidation-state H +0.400
# magnetic-moments H -0.003


-------- Electronic minimization -----------
	FillingsUpdate:  mu: +0.101550387  nElectrons: 375.000000  magneticMoment: [ Abs: 44.76585  Tot: +0.00000 ]
ElecMinimize: Iter:   0  F: -2439.965374121878540  |grad|_K:  3.366e-06  alpha:  1.000e+00
	FillingsUpdate:  mu: +0.101770932  nElectrons: 375.000000  magneticMoment: [ Abs: 44.76474  Tot: +0.00000 ]
	SubspaceRotationAdjust: set factor to 1.49
ElecMinimize: Iter:   1  F: -2439.965732243197181  |grad|_K:  1.046e-06  alpha:  1.894e-01  linmin: -8.611e-05  t[s]:  75394.85
	FillingsUpdate:  mu: +0.101579860  nElectrons: 375.000000  magneticMoment: [ Abs: 44.76501  Tot: -0.00000 ]
	SubspaceRotationAdjust: set factor to 1.55
ElecMinimize: Iter:   2  F: -2439.965775494508307  |grad|_K:  5.066e-07  alpha:  2.370e-01  linmin:  2.076e-06  t[s]:  75464.75
	FillingsUpdate:  mu: +0.102074653  nElectrons: 375.000000  magneticMoment: [ Abs: 44.76551  Tot: +0.00000 ]
	SubspaceRotationAdjust: set factor to 1.14
ElecMinimize: Iter:   3  F: -2439.965785873598634  |grad|_K:  4.767e-07  alpha:  2.426e-01  linmin: -8.333e-07  t[s]:  75538.04
	FillingsUpdate:  mu: +0.101682712  nElectrons: 375.000000  magneticMoment: [ Abs: 44.76552  Tot: +0.00000 ]
	SubspaceRotationAdjust: set factor to 0.748
ElecMinimize: Iter:   4  F: -2439.965791548385369  |grad|_K:  2.136e-07  alpha:  1.496e-01  linmin: -2.051e-06  t[s]:  75613.03
	FillingsUpdate:  mu: +0.101752114  nElectrons: 375.000000  magneticMoment: [ Abs: 44.76609  Tot: +0.00000 ]
	SubspaceRotationAdjust: set factor to 0.698
ElecMinimize: Iter:   5  F: -2439.965794298539549  |grad|_K:  1.472e-07  alpha:  3.615e-01  linmin:  4.090e-06  t[s]:  75686.87
	FillingsUpdate:  mu: +0.101792697  nElectrons: 375.000000  magneticMoment: [ Abs: 44.76622  Tot: +0.00000 ]
	SubspaceRotationAdjust: set factor to 0.686
ElecMinimize: Iter:   6  F: -2439.965795533104028  |grad|_K:  1.074e-07  alpha:  3.419e-01  linmin:  2.033e-06  t[s]:  75761.48
	FillingsUpdate:  mu: +0.101723268  nElectrons: 375.000000  magneticMoment: [ Abs: 44.76633  Tot: -0.00000 ]
	SubspaceRotationAdjust: set factor to 0.742
ElecMinimize: Iter:   7  F: -2439.965796211653924  |grad|_K:  8.416e-08  alpha:  3.530e-01  linmin: -1.590e-06  t[s]:  75833.36
	FillingsUpdate:  mu: +0.101756305  nElectrons: 375.000000  magneticMoment: [ Abs: 44.76661  Tot: +0.00000 ]
	SubspaceRotationAdjust: set factor to 0.82
ElecMinimize: Iter:   8  F: -2439.965796661317654  |grad|_K:  6.591e-08  alpha:  3.807e-01  linmin: -2.416e-06  t[s]:  75908.25
	FillingsUpdate:  mu: +0.101759474  nElectrons: 375.000000  magneticMoment: [ Abs: 44.76670  Tot: +0.00000 ]
	SubspaceRotationAdjust: set factor to 0.988
ElecMinimize: Iter:   9  F: -2439.965796923500875  |grad|_K:  5.692e-08  alpha:  3.616e-01  linmin:  6.243e-06  t[s]:  75982.70
	FillingsUpdate:  mu: +0.101736657  nElectrons: 375.000000  magneticMoment: [ Abs: 44.76666  Tot: -0.00000 ]
	SubspaceRotationAdjust: set factor to 1.11
ElecMinimize: Iter:  10  F: -2439.965797098017902  |grad|_K:  4.944e-08  alpha:  3.231e-01  linmin: -1.834e-05  t[s]:  76059.01
	FillingsUpdate:  mu: +0.101767317  nElectrons: 375.000000  magneticMoment: [ Abs: 44.76672  Tot: -0.00000 ]
	SubspaceRotationAdjust: set factor to 1.26
ElecMinimize: Iter:  11  F: -2439.965797255209054  |grad|_K:  4.801e-08  alpha:  3.850e-01  linmin: -7.739e-06  t[s]:  76131.33
ElecMinimize: Converged (|Delta F|<1.000000e-06 for 5 iters).
Setting wave functions to eigenvectors of Hamiltonian

# Ionic positions in lattice coordinates:
ion Co   0.001183291595084  -0.006374757452049   0.187987999753286 1
ion Co   0.499479113910579   0.000748377689558   0.163205824379669 1
ion Co  -0.002838791397758   0.499546426866192   0.162492108300751 1
ion Co   0.498938172567119   0.501297521139404   0.164964743755603 1
ion Co   0.252582591435603   0.245065251156822   0.059156086734346 1
ion Co   0.252195837375198   0.750595591332385   0.058791113165452 1
ion Co  -0.244096404412643   0.245890851620727   0.059271079453717 1
ion Co  -0.243774908601284   0.749856725928542   0.059027343255931 1
ion Co   0.000000000000000   0.000000000000000  -0.050000000000000 0
ion Co   0.500000000000000   0.000000000000000  -0.050000000000000 0
ion Co   0.000000000000000   0.500000000000000  -0.050000000000000 0
ion Co   0.500000000000000   0.500000000000000  -0.050000000000000 0
ion Co   0.250000000000000   0.250000000000000  -0.150000000000000 0
ion Co   0.250000000000000   0.750000000000000  -0.150000000000000 0
ion Co  -0.250000000000000   0.250000000000000  -0.150000000000000 0
ion Co  -0.250000000000000   0.750000000000000  -0.150000000000000 0
ion O   0.252127548032625   0.252955475257847   0.163253445744613 1
ion O   0.252668122897561   0.748273220584758   0.162518195722777 1
ion O  -0.255381574167929   0.253585857136951   0.162213035500544 1
ion O  -0.252864534838279   0.750035032310846   0.162284415046172 1
ion O   0.002384244902743  -0.002132867526052   0.052051560364761 1
ion O   0.504443538798927  -0.003471282377840   0.054778171016620 1
ion O   0.004109073021888   0.497098798554081   0.056775177747488 1
ion O   0.503259920288442   0.496849552153318   0.053319857423205 1
ion O   0.250000000000000   0.250000000000000  -0.050000000000000 0
ion O   0.250000000000000   0.750000000000000  -0.050000000000000 0
ion O  -0.250000000000000   0.250000000000000  -0.050000000000000 0
ion O  -0.250000000000000   0.750000000000000  -0.050000000000000 0
ion O   0.000000000000000   0.000000000000000  -0.150000000000000 0
ion O   0.500000000000000   0.000000000000000  -0.150000000000000 0
ion O   0.000000000000000   0.500000000000000  -0.150000000000000 0
ion O   0.500000000000000   0.500000000000000  -0.150000000000000 0
ion O  -0.009499316045720  -0.002377035079100   0.277243588596575 1
ion H   0.079107766273561   0.112090055249422   0.297379905608579 1

# Forces in Lattice coordinates:
force Co  -0.000695616378727   0.001839401006227  -0.027179125490264 1
force Co  -0.004068246586908  -0.000765537939771  -0.019586372564663 1
force Co  -0.002390877044565  -0.003928309296921  -0.026695573154417 1
force Co  -0.002319500609044  -0.002370959831014  -0.029131938589633 1
force Co  -0.003341962730938   0.000322479020191  -0.016543500209541 1
force Co  -0.002631791418133   0.001309220179703  -0.007275188212541 1
force Co   0.003169177198662  -0.001177160798677  -0.000095200699759 1
force Co   0.001571352641409   0.003542419384198   0.006953089334879 1
force Co  -0.003102121322611  -0.000377062616092   0.429210056461471 0
force Co   0.003561358986438  -0.001966680277138   0.422335465141318 0
force Co  -0.001902283179967  -0.005854444588617   0.422527813513243 0
force Co   0.004635471884774  -0.005722558285815   0.413860707886585 0
force Co   0.025270105122218  -0.003696321736210  -0.218369509324636 0
force Co   0.025313748351688   0.003022229622373  -0.221670999866879 0
force Co   0.031962878598634  -0.002671194052398  -0.221691516318492 0
force Co   0.031966001292973   0.002410880453390  -0.225919659444117 0
force O  -0.001338763631885  -0.002486652562140  -0.024218644886872 1
force O  -0.001756499700515  -0.002827859208846   0.001518181288329 1
force O  -0.003178336839774  -0.001126968836168  -0.019799616356782 1
force O  -0.001996593671508   0.000321228675541  -0.002464739627749 1
force O  -0.000806794643208   0.001411916489316   0.031050485454740 1
force O   0.000560805282711   0.000289426404100  -0.029578499840453 1
force O  -0.000682319788398   0.001204979374156   0.008980553941464 1
force O   0.003093666260500   0.001166295903271   0.010390355575160 1
force O  -0.007128205056706   0.010474136416539   0.202707711212990 0
force O  -0.007596609417117  -0.014060102622063   0.203698545965480 0
force O  -0.010084502069479   0.007710955762076   0.180940804387315 0
force O  -0.009965590291093  -0.015324489630315   0.188289393979244 0
force O  -0.003238901643032  -0.000221054771369  -0.385747175737352 0
force O  -0.009664683868148   0.000476948822132  -0.338267579795182 0
force O  -0.002268230357074   0.000567830861218  -0.369602033776633 0
force O  -0.009763613148034   0.001200060317323  -0.317150282037348 0
force O   0.002368060841199  -0.003064744263456  -0.008596171179406 1
force H  -0.003545991609443   0.001047867016761   0.010486108878776 1

# Energy components:
   Eewald =     5907.7681316888538277
       EH =     8112.8701925859404582
     Eloc =   -16550.9144866798160365
      Enl =     -753.6708468764942381
   Epulay =        0.0001960516836434
      Exc =     -282.4401521885044986
       KE =     1125.9927032724658602
        U =        0.4290074488665243
-------------------------------------
     Etot =    -2439.9652546970037292
       TS =        0.0005425582055477
-------------------------------------
        F =    -2439.9657972552090541

IonicMinimize: Iter:  26  F: -2439.965797255209054  |grad|_K:  3.131e-04  alpha:  1.000e+00  linmin:  7.065e-03  t[s]:  76140.49

#--- Lowdin population analysis ---
# oxidation-state Co +1.336 +1.248 +1.241 +1.242 +1.215 +1.213 +1.221 +1.220 +1.226 +1.207 +1.224 +1.207 +1.227 +1.227 +1.226 +1.227
# magnetic-moments Co +2.772 -2.691 +2.678 -2.663 +2.654 +2.652 -2.672 -2.669 -2.680 +2.622 -2.675 +2.609 -2.665 -2.665 +2.662 +2.662
# oxidation-state O -1.070 -1.076 -1.064 -1.074 -1.077 -1.075 -1.081 -1.072 -1.077 -1.077 -1.077 -1.077 -1.087 -1.080 -1.086 -1.078 -0.824
# magnetic-moments O +0.067 +0.050 -0.032 -0.041 -0.075 -0.034 -0.011 -0.040 -0.060 -0.059 +0.022 +0.021 -0.058 +0.027 -0.064 +0.022 +0.327
# oxidation-state H +0.401
# magnetic-moments H -0.003


-------- Electronic minimization -----------
	FillingsUpdate:  mu: +0.101869613  nElectrons: 375.000000  magneticMoment: [ Abs: 44.76598  Tot: -0.00000 ]
ElecMinimize: Iter:   0  F: -2439.965609389919337  |grad|_K:  2.344e-06  alpha:  1.000e+00
	FillingsUpdate:  mu: +0.101779024  nElectrons: 375.000000  magneticMoment: [ Abs: 44.76774  Tot: -0.00000 ]
	SubspaceRotationAdjust: set factor to 1.31
ElecMinimize: Iter:   1  F: -2439.965782293523262  |grad|_K:  7.224e-07  alpha:  1.889e-01  linmin:  5.940e-05  t[s]:  76258.73
	FillingsUpdate:  mu: +0.101809656  nElectrons: 375.000000  magneticMoment: [ Abs: 44.76726  Tot: -0.00000 ]
	SubspaceRotationAdjust: set factor to 1.56
ElecMinimize: Iter:   2  F: -2439.965803696046805  |grad|_K:  3.398e-07  alpha:  2.462e-01  linmin:  6.795e-07  t[s]:  76331.70
	FillingsUpdate:  mu: +0.101828049  nElectrons: 375.000000  magneticMoment: [ Abs: 44.76799  Tot: +0.00000 ]
	SubspaceRotationAdjust: set factor to 1.65
ElecMinimize: Iter:   3  F: -2439.965811569653852  |grad|_K:  2.065e-07  alpha:  4.088e-01  linmin:  1.180e-06  t[s]:  76406.72
	FillingsUpdate:  mu: +0.101830996  nElectrons: 375.000000  magneticMoment: [ Abs: 44.76754  Tot: -0.00000 ]
	SubspaceRotationAdjust: set factor to 1.27
ElecMinimize: Iter:   4  F: -2439.965813593812072  |grad|_K:  1.671e-07  alpha:  2.847e-01  linmin: -2.882e-07  t[s]:  76480.54
	FillingsUpdate:  mu: +0.101827790  nElectrons: 375.000000  magneticMoment: [ Abs: 44.76814  Tot: +0.00000 ]
	SubspaceRotationAdjust: set factor to 0.92
ElecMinimize: Iter:   5  F: -2439.965814684358065  |grad|_K:  1.027e-07  alpha:  2.343e-01  linmin: -2.226e-06  t[s]:  76556.86
	FillingsUpdate:  mu: +0.101815678  nElectrons: 375.000000  magneticMoment: [ Abs: 44.76814  Tot: -0.00000 ]
	SubspaceRotationAdjust: set factor to 1.13
ElecMinimize: Iter:   6  F: -2439.965815460225713  |grad|_K:  8.190e-08  alpha:  4.413e-01  linmin:  8.936e-06  t[s]:  76631.87
	FillingsUpdate:  mu: +0.101821976  nElectrons: 375.000000  magneticMoment: [ Abs: 44.76805  Tot: +0.00000 ]
	SubspaceRotationAdjust: set factor to 1.3
ElecMinimize: Iter:   7  F: -2439.965815899375229  |grad|_K:  7.281e-08  alpha:  3.929e-01  linmin: -9.259e-07  t[s]:  76701.92
	FillingsUpdate:  mu: +0.101827350  nElectrons: 375.000000  magneticMoment: [ Abs: 44.76822  Tot: +0.00000 ]
	SubspaceRotationAdjust: set factor to 1.41
ElecMinimize: Iter:   8  F: -2439.965816203601207  |grad|_K:  5.893e-08  alpha:  3.440e-01  linmin:  5.242e-06  t[s]:  76775.43
	FillingsUpdate:  mu: +0.101811013  nElectrons: 375.000000  magneticMoment: [ Abs: 44.76813  Tot: +0.00000 ]
	SubspaceRotationAdjust: set factor to 1.54
ElecMinimize: Iter:   9  F: -2439.965816433218606  |grad|_K:  5.473e-08  alpha:  3.962e-01  linmin: -1.223e-05  t[s]:  76849.95
	FillingsUpdate:  mu: +0.101849512  nElectrons: 375.000000  magneticMoment: [ Abs: 44.76815  Tot: -0.00000 ]
	SubspaceRotationAdjust: set factor to 1.7
ElecMinimize: Iter:  10  F: -2439.965816625341176  |grad|_K:  5.962e-08  alpha:  3.844e-01  linmin: -5.075e-06  t[s]:  76925.05
ElecMinimize: Converged (|Delta F|<1.000000e-06 for 5 iters).
Setting wave functions to eigenvectors of Hamiltonian

# Ionic positions in lattice coordinates:
ion Co   0.001164012661693  -0.006245705587080   0.187874039530581 1
ion Co   0.499229270233473   0.000643204356700   0.163118003289791 1
ion Co  -0.002958462250035   0.499331436191638   0.162381405160452 1
ion Co   0.498934096254863   0.501257251896005   0.164790131134047 1
ion Co   0.252595076078935   0.245257838527399   0.059002101302763 1
ion Co   0.252058364738718   0.750634898650423   0.058687391124526 1
ion Co  -0.244128667061717   0.246073929346420   0.059226551444021 1
ion Co  -0.243763801061228   0.749988897812181   0.059029210732614 1
ion Co   0.000000000000000   0.000000000000000  -0.050000000000000 0
ion Co   0.500000000000000   0.000000000000000  -0.050000000000000 0
ion Co   0.000000000000000   0.500000000000000  -0.050000000000000 0
ion Co   0.500000000000000   0.500000000000000  -0.050000000000000 0
ion Co   0.250000000000000   0.250000000000000  -0.150000000000000 0
ion Co   0.250000000000000   0.750000000000000  -0.150000000000000 0
ion Co  -0.250000000000000   0.250000000000000  -0.150000000000000 0
ion Co  -0.250000000000000   0.750000000000000  -0.150000000000000 0
ion O   0.251941160295181   0.252698754634966   0.163067639613353 1
ion O   0.252445667160142   0.748118228910996   0.162547062714868 1
ion O  -0.255548815769109   0.253411582048888   0.162190576071562 1
ion O  -0.252907974350683   0.750174539729550   0.162344693718904 1
ion O   0.002451014318951  -0.002184019556132   0.052033344325215 1
ion O   0.504480729816596  -0.003618464062735   0.054576825486634 1
ion O   0.004111426360286   0.497436091156007   0.056747227792787 1
ion O   0.503421866029643   0.497001309850443   0.053430934280727 1
ion O   0.250000000000000   0.250000000000000  -0.050000000000000 0
ion O   0.250000000000000   0.750000000000000  -0.050000000000000 0
ion O  -0.250000000000000   0.250000000000000  -0.050000000000000 0
ion O  -0.250000000000000   0.750000000000000  -0.050000000000000 0
ion O   0.000000000000000   0.000000000000000  -0.150000000000000 0
ion O   0.500000000000000   0.000000000000000  -0.150000000000000 0
ion O   0.000000000000000   0.500000000000000  -0.150000000000000 0
ion O   0.500000000000000   0.500000000000000  -0.150000000000000 0
ion O  -0.009194287248310  -0.002531316516864   0.277159267886389 1
ion H   0.078493196732795   0.111907984332412   0.297480975982034 1

# Forces in Lattice coordinates:
force Co  -0.000934036099767  -0.000090959880928   0.009268975076058 1
force Co  -0.004774578397844  -0.002363344536441   0.003777656582216 1
force Co  -0.002313286515522  -0.001237188231497  -0.001433068436238 1
force Co  -0.005064062655721  -0.001358793400160  -0.008611587590373 1
force Co  -0.003337288972483  -0.001318823155999  -0.004914193484100 1
force Co  -0.001246590663225   0.002160181698271   0.007051921651139 1
force Co   0.002835268641460  -0.003574836323519   0.009727394586804 1
force Co   0.000858997079973   0.004828518427483   0.018669973158957 1
force Co  -0.003940371063533  -0.001310071271098   0.422005630668543 0
force Co   0.004631987802908  -0.002881449553086   0.414822563621426 0
force Co  -0.002859390441902  -0.004631485326398   0.413212591252436 0
force Co   0.005548869629885  -0.004549706283352   0.406317539804851 0
force Co   0.026167563496156  -0.003047216649964  -0.232938347033666 0
force Co   0.026222991919004   0.002364758795723  -0.234804622850107 0
force Co   0.031204079746702  -0.002068854700942  -0.234543485654230 0
force Co   0.031193486973049   0.001821096349869  -0.237304807149336 0
force O  -0.001776077159412  -0.002624703994423   0.011056247560547 1
force O   0.000582053394984  -0.001120069713493  -0.017010820704300 1
force O  -0.000768772229695   0.000161722596343  -0.014531779141610 1
force O  -0.001173813222243  -0.000320457304015  -0.024518158902503 1
force O  -0.001069210006602   0.003483854292714   0.021256295599719 1
force O  -0.000879168832234   0.003363517817924  -0.016998940416564 1
force O  -0.000697870516988  -0.002917793943610   0.011972869704649 1
force O   0.001067180433902  -0.000865383263587  -0.005978089753063 1
force O  -0.007327781120430   0.010783442730911   0.205653055837814 0
force O  -0.007728511109200  -0.014058033113329   0.202667142117374 0
force O  -0.009845964012316   0.007902299235756   0.181033453724938 0
force O  -0.009737144087387  -0.015319272448556   0.184276192730244 0
force O  -0.003007890437499  -0.000099218631120  -0.386391911509021 0
force O  -0.009843320337602   0.000611848147778  -0.337974251872008 0
force O  -0.002048451468680   0.000393944747420  -0.371529643006697 0
force O  -0.009836222094046   0.001075781769787  -0.320720611900809 0
force O  -0.010361896782433  -0.013978645636186  -0.013818486610840 1
force H   0.004485262691606   0.011666017200763   0.029881149765806 1

# Energy components:
   Eewald =     5911.1804409118558397
       EH =     8116.2696324121361613
     Eloc =   -16557.7292707293781859
      Enl =     -753.6732185491507607
   Epulay =        0.0001960516836434
      Exc =     -282.4420980854474124
       KE =     1125.9999751745408503
        U =        0.4290725468939265
-------------------------------------
     Etot =    -2439.9652702668668098
       TS =        0.0005463584744743
-------------------------------------
        F =    -2439.9658166253411764

IonicMinimize: Iter:  27  F: -2439.965816625341176  |grad|_K:  3.703e-04  alpha:  1.000e+00  linmin:  2.949e-03  t[s]:  76933.96
IonicMinimize: Converged (|Delta F|<1.000000e-04 for 3 iters).

#--- Lowdin population analysis ---
# oxidation-state Co +1.337 +1.248 +1.241 +1.242 +1.215 +1.213 +1.221 +1.220 +1.226 +1.207 +1.223 +1.207 +1.227 +1.227 +1.226 +1.227
# magnetic-moments Co +2.772 -2.691 +2.678 -2.663 +2.654 +2.652 -2.672 -2.669 -2.680 +2.622 -2.674 +2.610 -2.665 -2.665 +2.662 +2.662
# oxidation-state O -1.070 -1.076 -1.064 -1.074 -1.077 -1.074 -1.081 -1.072 -1.077 -1.077 -1.077 -1.077 -1.087 -1.080 -1.086 -1.078 -0.824
# magnetic-moments O +0.067 +0.050 -0.033 -0.041 -0.075 -0.034 -0.011 -0.040 -0.060 -0.059 +0.022 +0.021 -0.058 +0.027 -0.064 +0.022 +0.327
# oxidation-state H +0.402
# magnetic-moments H -0.003


Dumping 'OH.ionpos' ... done
Dumping 'OH.lattice' ... done
Dumping 'OH.Ecomponents' ... done
End date and time: Sun May 18 05:29:56 2025  (Duration: 0-21:22:16.94)
Done!
