
*************** JDFTx 1.7.0  ***************

Start date and time: Tue Apr 29 22:17:56 2025
Executable /data2/jt577/jdftx_eat_withLibXC/build/jdftx with command-line: -i /data2/jt577/March_2025/pure_RSO/ionic_relax_noMagnetism/pure_CoO/runs/calc_20250429-221755/O/O.in
Running on hosts (process indices):  node3221 (0-8)
Divided in process groups (process indices):  0 (0)  1 (1)  2 (2)  3 (3)  4 (4)  5 (5)  6 (6)  7 (7)  8 (8)
Resource initialization completed at t[s]:      0.00
Run totals: 9 processes, 36 threads, 0 GPUs


Input parsed successfully to the following command list (including defaults):

add-mix 
basis kpoint-dependent
coords-type Lattice
core-overlap-check vector
coulomb-interaction Periodic
davidson-band-ratio 1.1
dump End IonicPositions Lattice Ecomponents
dump-name O.$VAR
elec-cutoff 30
elec-eigen-algo Davidson
elec-ex-corr gga-x-rpbe gga-c-pbe
elec-smearing Fermi 0.001
electronic-minimize  \
	dirUpdateScheme      FletcherReeves \
	linminMethod         DirUpdateRecommended \
	nIterations          1000 \
	history              15 \
	knormThreshold       0 \
	energyDiffThreshold  1e-06 \
	nEnergyDiff          5 \
	alphaTstart          1 \
	alphaTmin            1e-10 \
	updateTestStepSize   yes \
	alphaTreduceFactor   0.1 \
	alphaTincreaseFactor 3 \
	nAlphaAdjustMax      3 \
	wolfeEnergy          0.0001 \
	wolfeGradient        0.9 \
	fdTest               no
exchange-regularization WignerSeitzTruncated
fluid None
fluid-ex-corr (null) lda-PZ
fluid-gummel-loop 10 1.000000e-05
fluid-minimize  \
	dirUpdateScheme      PolakRibiere \
	linminMethod         DirUpdateRecommended \
	nIterations          100 \
	history              15 \
	knormThreshold       0 \
	energyDiffThreshold  0 \
	nEnergyDiff          2 \
	alphaTstart          1 \
	alphaTmin            1e-10 \
	updateTestStepSize   yes \
	alphaTreduceFactor   0.1 \
	alphaTincreaseFactor 3 \
	nAlphaAdjustMax      3 \
	wolfeEnergy          0.0001 \
	wolfeGradient        0.9 \
	fdTest               no
fluid-solvent H2O 55.338 ScalarEOS \
	epsBulk 78.4 \
	pMol 0.92466 \
	epsInf 1.77 \
	Pvap 1.06736e-10 \
	sigmaBulk 4.62e-05 \
	Rvdw 2.61727 \
	Res 1.42 \
	tauNuc 343133 \
	poleEl 15 7 1
forces-output-coords Positions
initial-state O.$VAR
ion Co  0.000000000000000   0.000000000000000   0.150000000000000 1
ion Co  0.500000000000000   0.000000000000000   0.150000000000000 1
ion Co  0.000000000000000   0.500000000000000   0.150000000000000 1
ion Co  0.500000000000000   0.500000000000000   0.150000000000000 1
ion Co  0.250000000000000   0.250000000000000   0.050000000000000 1
ion Co  0.250000000000000   0.750000000000000   0.050000000000000 1
ion Co -0.250000000000000   0.250000000000000   0.050000000000000 1
ion Co -0.250000000000000   0.750000000000000   0.050000000000000 1
ion Co  0.000000000000000   0.000000000000000  -0.050000000000000 0
ion Co  0.500000000000000   0.000000000000000  -0.050000000000000 0
ion Co  0.000000000000000   0.500000000000000  -0.050000000000000 0
ion Co  0.500000000000000   0.500000000000000  -0.050000000000000 0
ion Co  0.250000000000000   0.250000000000000  -0.150000000000000 0
ion Co  0.250000000000000   0.750000000000000  -0.150000000000000 0
ion Co -0.250000000000000   0.250000000000000  -0.150000000000000 0
ion Co -0.250000000000000   0.750000000000000  -0.150000000000000 0
ion O  0.250000000000000   0.250000000000000   0.150000000000000 1
ion O  0.250000000000000   0.750000000000000   0.150000000000000 1
ion O -0.250000000000000   0.250000000000000   0.150000000000000 1
ion O -0.250000000000000   0.750000000000000   0.150000000000000 1
ion O  0.000000000000000   0.000000000000000   0.050000000000000 1
ion O  0.500000000000000   0.000000000000000   0.050000000000000 1
ion O  0.000000000000000   0.500000000000000   0.050000000000000 1
ion O  0.500000000000000   0.500000000000000   0.050000000000000 1
ion O  0.250000000000000   0.250000000000000  -0.050000000000000 0
ion O  0.250000000000000   0.750000000000000  -0.050000000000000 0
ion O -0.250000000000000   0.250000000000000  -0.050000000000000 0
ion O -0.250000000000000   0.750000000000000  -0.050000000000000 0
ion O  0.000000000000000   0.000000000000000  -0.150000000000000 0
ion O  0.500000000000000   0.000000000000000  -0.150000000000000 0
ion O  0.000000000000000   0.500000000000000  -0.150000000000000 0
ion O  0.500000000000000   0.500000000000000  -0.150000000000000 0
ion O  0.000000000000000   0.000000000000000   0.230000000000000 1
ion-species SG15/$ID_ONCV_PBE.upf
ion-width 0
ionic-minimize  \
	dirUpdateScheme      L-BFGS \
	linminMethod         DirUpdateRecommended \
	nIterations          1000 \
	history              15 \
	knormThreshold       0.0001 \
	energyDiffThreshold  0.0001 \
	nEnergyDiff          3 \
	alphaTstart          1 \
	alphaTmin            1e-10 \
	updateTestStepSize   yes \
	alphaTreduceFactor   0.1 \
	alphaTincreaseFactor 3 \
	nAlphaAdjustMax      3 \
	wolfeEnergy          0.0001 \
	wolfeGradient        0.9 \
	fdTest               no
kpoint   0.500000000000   0.500000000000   0.500000000000  1.00000000000000
kpoint-folding 3 3 1 
latt-move-scale 1 1 1
latt-scale 1 1 1 
lattice  \
	   8.010000000000000    8.010000000000000    0.000000000000000  \
	   8.010000000000000   -8.010000000000000    0.000000000000000  \
	   0.000000000000000    0.000000000000000   40.049999999999997 
lattice-minimize  \
	dirUpdateScheme      L-BFGS \
	linminMethod         DirUpdateRecommended \
	nIterations          0 \
	history              15 \
	knormThreshold       0 \
	energyDiffThreshold  1e-06 \
	nEnergyDiff          2 \
	alphaTstart          1 \
	alphaTmin            1e-10 \
	updateTestStepSize   yes \
	alphaTreduceFactor   0.1 \
	alphaTincreaseFactor 3 \
	nAlphaAdjustMax      3 \
	wolfeEnergy          0.0001 \
	wolfeGradient        0.9 \
	fdTest               no
lcao-params -1 1e-06 0.001
pcm-variant GLSSA13
spintype no-spin
subspace-rotation-factor 1 yes
symmetries none
symmetry-threshold 0.0001


Applied RMS atom displacement 0 bohrs to make symmetries exact.

---------- Initializing the Grid ----------
R = 
[         8.01         8.01            0  ]
[         8.01        -8.01            0  ]
[            0            0        40.05  ]
unit cell volume = 5139.22
G =
[   0.392209   0.392209         -0  ]
[   0.392209  -0.392209         -0  ]
[         -0         -0   0.156884  ]
Minimum fftbox size, Smin = [  56  56  200  ]
Chosen fftbox size, S = [  56  56  200  ]

---------- Exchange Correlation functional ----------
Initialized LibXC exchange functional 'Hammer, Hansen, and Norskov'
Initialized LibXC correlation functional 'Perdew, Burke & Ernzerhof'

---------- Setting up pseudopotentials ----------
Width of ionic core gaussian charges (only for fluid interactions / plotting) set to 0

Reading pseudopotential file '/data2/jt577/jdftx_eat_withLibXC/build/pseudopotentials/SG15/Co_ONCV_PBE.upf':
  'Co' pseudopotential, 'PBE' functional
  Generated using ONCVPSP code by D. R. Hamann
  Author: Martin Schlipf and Francois Gygi  Date: 150915.
  17 valence electrons, 4 orbitals, 6 projectors, 1388 radial grid points, with lMax = 2
  Transforming local potential to a uniform radial grid of dG=0.02 with 1355 points.
  Transforming nonlocal projectors to a uniform radial grid of dG=0.02 with 528 points.
    3S    l: 0   occupation:  2.0   eigenvalue: -3.763303
    3P    l: 1   occupation:  6.0   eigenvalue: -2.412101
    4S    l: 0   occupation:  2.0   eigenvalue: -0.201022
    3D    l: 2   occupation:  7.0   eigenvalue: -0.301498
  Transforming atomic orbitals to a uniform radial grid of dG=0.02 with 528 points.
  Core radius for overlap checks: 1.94 bohrs.
  Reading pulay file /data2/jt577/jdftx_eat_withLibXC/build/pseudopotentials/SG15/Co_ONCV_PBE.pulay ... using dE_dnG = -9.787391e-05 computed for Ecut = 30.

Reading pseudopotential file '/data2/jt577/jdftx_eat_withLibXC/build/pseudopotentials/SG15/O_ONCV_PBE.upf':
  'O' pseudopotential, 'PBE' functional
  Generated using ONCVPSP code by D. R. Hamann
  Author: Martin Schlipf and Francois Gygi  Date: 150915.
  6 valence electrons, 2 orbitals, 4 projectors, 936 radial grid points, with lMax = 1
  Transforming local potential to a uniform radial grid of dG=0.02 with 1355 points.
  Transforming nonlocal projectors to a uniform radial grid of dG=0.02 with 528 points.
    2S    l: 0   occupation:  2.0   eigenvalue: -0.880572
    2P    l: 1   occupation:  4.0   eigenvalue: -0.331869
  Transforming atomic orbitals to a uniform radial grid of dG=0.02 with 528 points.
  Core radius for overlap checks: 1.29 bohrs.
  Reading pulay file /data2/jt577/jdftx_eat_withLibXC/build/pseudopotentials/SG15/O_ONCV_PBE.pulay ... using dE_dnG = -8.209514e-03 computed for Ecut = 30.

Initialized 2 species with 33 total atoms.

Folded 1 k-points by 3x3x1 to 9 k-points.

---------- Setting up k-points, bands, fillings ----------
No reducable k-points. 
Computing the number of bands and number of electrons
Calculating initial fillings.
nElectrons: 374.000000   nBands: 228   nStates: 9

----- Setting up reduced wavefunction bases (one per k-point) -----
average nbasis = 40341.333 , ideal nbasis = 40334.198

---------- Setting up ewald sum ----------
Optimum gaussian width for ewald sums = 3.844061 bohr.
Real space sum over 605 unit cells with max indices [  5  5  2  ]
Reciprocal space sum over 5915 terms with max indices [  6  6  17  ]

---------- Allocating electronic variables ----------
Initializing wave functions:  linear combination of atomic orbitals
Co pseudo-atom occupations:   s ( 2 0 )  p ( 6 )  d ( 9 )
O pseudo-atom occupations:   s ( 2 )  p ( 4 )
	FillingsUpdate:  mu: -0.367927443  nElectrons: 374.000000
LCAOMinimize: Iter:   0  F: -2402.3100492383632627  |grad|_K:  5.051e-02  alpha:  1.000e+00
LCAOMinimize: 	Step increased F by 2.547052e+02, reducing alpha to 4.381051e-02.
LCAOMinimize: 	Step increased F by 8.051121e+01, reducing alpha to 4.381051e-03.
	FillingsUpdate:  mu: -0.088088710  nElectrons: 374.000000
LCAOMinimize: Iter:   1  F: -2406.5275731335937053  |grad|_K:  2.599e-02  alpha:  4.381e-03  linmin: -1.684e-01  cgtest:  8.535e-01  t[s]:     52.26
LCAOMinimize: Encountered beta<0, resetting CG.
	FillingsUpdate:  mu: +0.268250331  nElectrons: 374.000000
LCAOMinimize: Iter:   2  F: -2407.8068471803107968  |grad|_K:  2.035e-02  alpha:  9.520e-03  linmin:  3.077e-02  cgtest: -2.663e-01  t[s]:     63.40
	FillingsUpdate:  mu: +0.375574869  nElectrons: 374.000000
LCAOMinimize: Iter:   3  F: -2409.3382214364614811  |grad|_K:  5.061e-02  alpha:  2.335e-02  linmin: -4.782e-04  cgtest:  3.129e-01  t[s]:     74.58
LCAOMinimize: 	Step increased F by 4.272568e+01, reducing alpha to 5.788579e-03.
	FillingsUpdate:  mu: +0.334223424  nElectrons: 374.000000
LCAOMinimize: Iter:   4  F: -2416.6278447031786527  |grad|_K:  4.226e-02  alpha:  5.789e-03  linmin: -1.696e-02  cgtest:  8.443e-01  t[s]:     93.79
LCAOMinimize: Encountered beta<0, resetting CG.
	FillingsUpdate:  mu: +0.191570751  nElectrons: 374.000000
LCAOMinimize: Iter:   5  F: -2418.6533698856901538  |grad|_K:  3.470e-02  alpha:  4.565e-03  linmin:  8.841e-03  cgtest: -4.009e-02  t[s]:    104.99
	FillingsUpdate:  mu: +0.065032661  nElectrons: 374.000000
LCAOMinimize: Iter:   6  F: -2419.8182759342435020  |grad|_K:  1.862e-02  alpha:  4.328e-03  linmin:  2.832e-03  cgtest:  2.650e-01  t[s]:    116.32
LCAOMinimize: 	Predicted alpha/alphaT>3.000000, increasing alphaT to 1.298335e-02.
	FillingsUpdate:  mu: +0.126558080  nElectrons: 374.000000
LCAOMinimize: Iter:   7  F: -2421.0639509840007122  |grad|_K:  4.146e-02  alpha:  1.542e-02  linmin:  6.950e-04  cgtest: -2.551e-02  t[s]:    130.57
	FillingsUpdate:  mu: +0.620290171  nElectrons: 374.000000
LCAOMinimize: Iter:   8  F: -2423.8272046911210964  |grad|_K:  4.861e-02  alpha:  8.703e-03  linmin:  6.659e-04  cgtest:  1.883e-01  t[s]:    141.81
	FillingsUpdate:  mu: +0.722830161  nElectrons: 374.000000
LCAOMinimize: Iter:   9  F: -2433.9771710428117331  |grad|_K:  2.197e-02  alpha:  1.526e-02  linmin: -1.177e-02  cgtest:  1.147e+00  t[s]:    153.07
LCAOMinimize: Encountered beta<0, resetting CG.
	FillingsUpdate:  mu: +0.262294446  nElectrons: 374.000000
LCAOMinimize: Iter:  10  F: -2435.7807026928403502  |grad|_K:  1.250e-02  alpha:  1.598e-02  linmin:  3.001e-02  cgtest: -4.371e-01  t[s]:    164.24
	FillingsUpdate:  mu: +0.231948107  nElectrons: 374.000000
LCAOMinimize: Iter:  11  F: -2436.1308701848647615  |grad|_K:  1.313e-02  alpha:  5.038e-03  linmin: -1.201e-01  cgtest:  8.691e-01  t[s]:    175.72
LCAOMinimize: 	Predicted alpha/alphaT>3.000000, increasing alphaT to 1.511496e-02.
	FillingsUpdate:  mu: +0.235010180  nElectrons: 374.000000
LCAOMinimize: Iter:  12  F: -2436.6522985451692875  |grad|_K:  1.126e-02  alpha:  8.564e-03  linmin:  2.283e-02  cgtest:  3.694e-01  t[s]:    190.34
	FillingsUpdate:  mu: +0.184669453  nElectrons: 374.000000
LCAOMinimize: Iter:  13  F: -2436.8429008107868867  |grad|_K:  6.259e-03  alpha:  6.372e-03  linmin:  6.072e-03  cgtest:  8.750e-02  t[s]:    201.65
LCAOMinimize: 	Predicted alpha/alphaT>3.000000, increasing alphaT to 1.911703e-02.
	FillingsUpdate:  mu: +0.240809061  nElectrons: 374.000000
LCAOMinimize: Iter:  14  F: -2437.0195756199409516  |grad|_K:  7.572e-03  alpha:  1.957e-02  linmin:  5.982e-03  cgtest:  1.243e-01  t[s]:    216.18
	FillingsUpdate:  mu: +0.242549892  nElectrons: 374.000000
LCAOMinimize: Iter:  15  F: -2437.1277184820432922  |grad|_K:  8.390e-03  alpha:  9.378e-03  linmin:  2.527e-03  cgtest:  7.207e-02  t[s]:    227.49
	FillingsUpdate:  mu: +0.143556397  nElectrons: 374.000000
LCAOMinimize: Iter:  16  F: -2437.4431086739664352  |grad|_K:  2.583e-03  alpha:  1.723e-02  linmin: -5.643e-02  cgtest:  1.072e-01  t[s]:    238.64
LCAOMinimize: 	Predicted alpha/alphaT>3.000000, increasing alphaT to 5.169041e-02.
	FillingsUpdate:  mu: +0.196274685  nElectrons: 374.000000
LCAOMinimize: Iter:  17  F: -2437.5344435031233843  |grad|_K:  4.368e-03  alpha:  4.921e-02  linmin:  4.504e-03  cgtest: -1.156e-01  t[s]:    253.16
	FillingsUpdate:  mu: +0.214708873  nElectrons: 374.000000
LCAOMinimize: Iter:  18  F: -2437.5903219048377650  |grad|_K:  3.806e-03  alpha:  1.258e-02  linmin: -5.619e-03  cgtest:  8.838e-01  t[s]:    264.30
LCAOMinimize: Encountered beta<0, resetting CG.
	FillingsUpdate:  mu: +0.177773569  nElectrons: 374.000000
LCAOMinimize: Iter:  19  F: -2437.6319487911500801  |grad|_K:  1.326e-03  alpha:  1.218e-02  linmin: -5.076e-03  cgtest: -2.484e-03  t[s]:    275.41
	FillingsUpdate:  mu: +0.183649431  nElectrons: 374.000000
LCAOMinimize: Iter:  20  F: -2437.6363106084872925  |grad|_K:  1.413e-03  alpha:  1.042e-02  linmin:  7.952e-06  cgtest:  2.216e-02  t[s]:    286.91
	FillingsUpdate:  mu: +0.181752777  nElectrons: 374.000000
LCAOMinimize: Iter:  21  F: -2437.6466863457244472  |grad|_K:  8.954e-04  alpha:  2.139e-02  linmin: -8.156e-03  cgtest: -4.073e-02  t[s]:    298.17
LCAOMinimize: 	Predicted alpha/alphaT>3.000000, increasing alphaT to 6.416899e-02.
	FillingsUpdate:  mu: +0.187793334  nElectrons: 374.000000
LCAOMinimize: Iter:  22  F: -2437.6609290869555480  |grad|_K:  9.189e-04  alpha:  7.116e-02  linmin:  5.600e-04  cgtest: -1.258e-01  t[s]:    312.51
	FillingsUpdate:  mu: +0.187152413  nElectrons: 374.000000
LCAOMinimize: Iter:  23  F: -2437.6626303260541135  |grad|_K:  8.521e-04  alpha:  8.860e-03  linmin:  1.013e-03  cgtest:  1.295e-02  t[s]:    324.03
LCAOMinimize: 	Predicted alpha/alphaT>3.000000, increasing alphaT to 2.658070e-02.
	FillingsUpdate:  mu: +0.184152880  nElectrons: 374.000000
LCAOMinimize: Iter:  24  F: -2437.6672068099001081  |grad|_K:  2.455e-04  alpha:  2.735e-02  linmin:  9.079e-04  cgtest:  1.272e-01  t[s]:    338.67
	FillingsUpdate:  mu: +0.188879412  nElectrons: 374.000000
LCAOMinimize: Iter:  25  F: -2437.6680887560405608  |grad|_K:  4.930e-04  alpha:  6.182e-02  linmin: -4.513e-04  cgtest: -3.585e-03  t[s]:    350.01
	FillingsUpdate:  mu: +0.188275986  nElectrons: 374.000000
LCAOMinimize: Iter:  26  F: -2437.6685723288901499  |grad|_K:  3.294e-04  alpha:  7.392e-03  linmin: -1.022e-02  cgtest:  1.837e-01  t[s]:    361.52
LCAOMinimize: 	Predicted alpha/alphaT>3.000000, increasing alphaT to 2.217675e-02.
	FillingsUpdate:  mu: +0.186195172  nElectrons: 374.000000
LCAOMinimize: Iter:  27  F: -2437.6698141210263202  |grad|_K:  3.944e-04  alpha:  4.550e-02  linmin:  2.573e-03  cgtest: -2.252e-01  t[s]:    375.93
	FillingsUpdate:  mu: +0.185986438  nElectrons: 374.000000
LCAOMinimize: Iter:  28  F: -2437.6707892032031850  |grad|_K:  3.637e-04  alpha:  2.775e-02  linmin: -1.763e-04  cgtest:  3.128e-01  t[s]:    387.51
	FillingsUpdate:  mu: +0.188338097  nElectrons: 374.000000
LCAOMinimize: Iter:  29  F: -2437.6717859543123268  |grad|_K:  4.079e-04  alpha:  3.199e-02  linmin:  8.657e-04  cgtest: -2.756e-02  t[s]:    398.98
	FillingsUpdate:  mu: +0.186222147  nElectrons: 374.000000
LCAOMinimize: Iter:  30  F: -2437.6720356009004718  |grad|_K:  2.222e-04  alpha:  6.172e-03  linmin: -3.556e-03  cgtest:  1.160e-01  t[s]:    410.12
LCAOMinimize: None of the convergence criteria satisfied after 30 iterations.


---- Citations for features of the code used in this run ----

   Software package:
      R. Sundararaman, K. Letchworth-Weaver, K.A. Schwarz, D. Gunceler, Y. Ozhabes and T.A. Arias, 'JDFTx: software for joint density-functional theory', SoftwareX 6, 278 (2017)

   LibXC library of exchange-correlation functions:
      M. A. L. Marques, M. J. T. Oliveira and T. Burnus, Comput. Phys. Commun. 183, 2272 (2012)

   Hammer, Hansen, and Norskov exchange functional:
      B. Hammer, L. B. Hansen, and J. K. Nørskov, Phys. Rev. B 59, 7413 (1999)

   Perdew, Burke & Ernzerhof correlation functional:
      J. P. Perdew, K. Burke, and M. Ernzerhof, Phys. Rev. Lett. 77, 3865 (1996)

   Pseudopotentials:
      M Schlipf and F Gygi, Comput. Phys. Commun. 196, 36 (2015)

   Total energy minimization with Auxiliary Hamiltonian:
      C. Freysoldt, S. Boeck, and J. Neugebauer, Phys. Rev. B 79, 241103(R) (2009)

This list may not be complete. Please suggest additional citations or
report any other bugs at https://github.com/shankar1729/jdftx/issues

Initialization completed successfully at t[s]:    415.51


-------- Electronic minimization -----------
	FillingsUpdate:  mu: +0.186222162  nElectrons: 374.000000
ElecMinimize: Iter:   0  F: -2437.672035600903200  |grad|_K:  1.789e-04  alpha:  1.000e+00
	FillingsUpdate:  mu: +0.134025899  nElectrons: 374.000000
	SubspaceRotationAdjust: set factor to 0.541
ElecMinimize: Iter:   1  F: -2438.556906916573098  |grad|_K:  4.105e-04  alpha:  3.447e-01  linmin:  9.185e-05  t[s]:    457.71
ElecMinimize: 	Step increased F by 5.799610e-02, reducing alpha to 1.253280e-03.
	FillingsUpdate:  mu: +0.125477610  nElectrons: 374.000000
	SubspaceRotationAdjust: set factor to 0.333
ElecMinimize: Iter:   2  F: -2438.585350516822928  |grad|_K:  2.613e-04  alpha:  1.253e-03  linmin: -2.829e-03  t[s]:    505.96
ElecMinimize: 	Predicted alpha/alphaT>3.000000, increasing alphaT to 3.759840e-03.
	FillingsUpdate:  mu: +0.128878417  nElectrons: 374.000000
	SubspaceRotationAdjust: set factor to 0.2
ElecMinimize: Iter:   3  F: -2438.648316021024129  |grad|_K:  1.739e-04  alpha:  6.693e-03  linmin:  9.381e-04  t[s]:    543.74
	FillingsUpdate:  mu: +0.168542793  nElectrons: 374.000000
	SubspaceRotationAdjust: set factor to 0.144
ElecMinimize: Iter:   4  F: -2438.663841387705816  |grad|_K:  1.921e-04  alpha:  8.907e-03  linmin:  3.942e-05  t[s]:    573.71
	FillingsUpdate:  mu: +0.216875705  nElectrons: 374.000000
	SubspaceRotationAdjust: set factor to 0.0926
	SubspaceRotationAdjust: resetting CG because factor has changed by 0.0925839
ElecMinimize: 	State modified externally: resetting search direction.
ElecMinimize: Iter:   5  F: -2438.714380587109645  |grad|_K:  1.666e-04  alpha:  1.663e-02
ElecMinimize: 	Predicted alpha/alphaT>3.000000, increasing alphaT to 4.987552e-02.
	FillingsUpdate:  mu: +0.181356478  nElectrons: 374.000000
	SubspaceRotationAdjust: set factor to 0.0405
ElecMinimize: Iter:   6  F: -2438.848984580121851  |grad|_K:  9.702e-05  alpha:  5.851e-02  linmin:  3.778e-04  t[s]:    653.54
	FillingsUpdate:  mu: +0.152223651  nElectrons: 374.000000
	SubspaceRotationAdjust: set factor to 0.0257
ElecMinimize: Iter:   7  F: -2438.980557335603862  |grad|_K:  6.439e-05  alpha:  1.731e-01  linmin:  1.278e-03  t[s]:    683.07
	FillingsUpdate:  mu: +0.131811942  nElectrons: 374.000000
	SubspaceRotationAdjust: set factor to 0.0309
ElecMinimize: Iter:   8  F: -2439.145750555944232  |grad|_K:  5.213e-05  alpha:  5.033e-01  linmin:  1.888e-04  t[s]:    712.86
	FillingsUpdate:  mu: +0.117890727  nElectrons: 374.000000
	SubspaceRotationAdjust: set factor to 0.0331
ElecMinimize: Iter:   9  F: -2439.208784486197601  |grad|_K:  2.954e-05  alpha:  2.815e-01  linmin:  2.157e-05  t[s]:    742.99
	FillingsUpdate:  mu: +0.122724359  nElectrons: 374.000000
	SubspaceRotationAdjust: set factor to 0.0322
ElecMinimize: Iter:  10  F: -2439.231474160327707  |grad|_K:  2.560e-05  alpha:  3.137e-01  linmin:  3.763e-05  t[s]:    772.62
	FillingsUpdate:  mu: +0.118001919  nElectrons: 374.000000
	SubspaceRotationAdjust: set factor to 0.0286
ElecMinimize: Iter:  11  F: -2439.248578040053417  |grad|_K:  2.185e-05  alpha:  3.152e-01  linmin: -1.624e-05  t[s]:    802.44
	FillingsUpdate:  mu: +0.113765650  nElectrons: 374.000000
	SubspaceRotationAdjust: set factor to 0.0297
ElecMinimize: Iter:  12  F: -2439.260394781073956  |grad|_K:  1.617e-05  alpha:  2.977e-01  linmin: -4.584e-05  t[s]:    832.38
	FillingsUpdate:  mu: +0.110087902  nElectrons: 374.000000
	SubspaceRotationAdjust: set factor to 0.0341
ElecMinimize: Iter:  13  F: -2439.269476772202779  |grad|_K:  1.574e-05  alpha:  4.158e-01  linmin: -6.419e-05  t[s]:    862.29
	FillingsUpdate:  mu: +0.109857464  nElectrons: 374.000000
	SubspaceRotationAdjust: set factor to 0.0378
ElecMinimize: Iter:  14  F: -2439.280109629379695  |grad|_K:  1.706e-05  alpha:  5.103e-01  linmin: -7.455e-05  t[s]:    891.97
	FillingsUpdate:  mu: +0.115038483  nElectrons: 374.000000
	SubspaceRotationAdjust: set factor to 0.0356
ElecMinimize: Iter:  15  F: -2439.289319888141563  |grad|_K:  1.849e-05  alpha:  3.732e-01  linmin: -6.540e-05  t[s]:    921.85
	FillingsUpdate:  mu: +0.109719366  nElectrons: 374.000000
	SubspaceRotationAdjust: set factor to 0.028
ElecMinimize: Iter:  16  F: -2439.296416129303907  |grad|_K:  1.740e-05  alpha:  2.431e-01  linmin: -4.837e-05  t[s]:    951.53
	FillingsUpdate:  mu: +0.105771068  nElectrons: 374.000000
	SubspaceRotationAdjust: set factor to 0.0279
ElecMinimize: Iter:  17  F: -2439.306248913685067  |grad|_K:  1.616e-05  alpha:  3.829e-01  linmin: -4.833e-05  t[s]:    981.41
	FillingsUpdate:  mu: +0.106263141  nElectrons: 374.000000
	SubspaceRotationAdjust: set factor to 0.0305
ElecMinimize: Iter:  18  F: -2439.315873082520739  |grad|_K:  1.513e-05  alpha:  4.328e-01  linmin: -3.329e-05  t[s]:   1011.55
	FillingsUpdate:  mu: +0.108656561  nElectrons: 374.000000
	SubspaceRotationAdjust: set factor to 0.0283
ElecMinimize: Iter:  19  F: -2439.322842594837311  |grad|_K:  1.493e-05  alpha:  3.605e-01  linmin: -4.932e-06  t[s]:   1041.24
	FillingsUpdate:  mu: +0.109591875  nElectrons: 374.000000
	SubspaceRotationAdjust: set factor to 0.0215
ElecMinimize: Iter:  20  F: -2439.327548063733957  |grad|_K:  1.281e-05  alpha:  2.527e-01  linmin: -1.513e-06  t[s]:   1071.13
	FillingsUpdate:  mu: +0.106017630  nElectrons: 374.000000
	SubspaceRotationAdjust: set factor to 0.0211
ElecMinimize: Iter:  21  F: -2439.331780794234874  |grad|_K:  9.916e-06  alpha:  3.109e-01  linmin:  6.903e-06  t[s]:   1100.66
	FillingsUpdate:  mu: +0.107216392  nElectrons: 374.000000
	SubspaceRotationAdjust: set factor to 0.0231
ElecMinimize: Iter:  22  F: -2439.334524138056167  |grad|_K:  8.417e-06  alpha:  3.371e-01  linmin: -2.380e-07  t[s]:   1130.59
	FillingsUpdate:  mu: +0.107980875  nElectrons: 374.000000
	SubspaceRotationAdjust: set factor to 0.0214
ElecMinimize: Iter:  23  F: -2439.336395897737020  |grad|_K:  7.507e-06  alpha:  3.182e-01  linmin: -1.705e-06  t[s]:   1160.30
	FillingsUpdate:  mu: +0.107270090  nElectrons: 374.000000
	SubspaceRotationAdjust: set factor to 0.0207
ElecMinimize: Iter:  24  F: -2439.337909886777652  |grad|_K:  6.127e-06  alpha:  3.234e-01  linmin: -1.457e-06  t[s]:   1189.82
	FillingsUpdate:  mu: +0.107029235  nElectrons: 374.000000
	SubspaceRotationAdjust: set factor to 0.0234
ElecMinimize: Iter:  25  F: -2439.339047588817721  |grad|_K:  5.481e-06  alpha:  3.649e-01  linmin: -3.720e-06  t[s]:   1219.61
	FillingsUpdate:  mu: +0.107699944  nElectrons: 374.000000
	SubspaceRotationAdjust: set factor to 0.0253
ElecMinimize: Iter:  26  F: -2439.339922812239365  |grad|_K:  5.327e-06  alpha:  3.505e-01  linmin: -4.013e-06  t[s]:   1249.26
	FillingsUpdate:  mu: +0.108410331  nElectrons: 374.000000
	SubspaceRotationAdjust: set factor to 0.0257
ElecMinimize: Iter:  27  F: -2439.340731892215899  |grad|_K:  5.018e-06  alpha:  3.430e-01  linmin: -5.731e-06  t[s]:   1279.02
	FillingsUpdate:  mu: +0.108759319  nElectrons: 374.000000
	SubspaceRotationAdjust: set factor to 0.0263
ElecMinimize: Iter:  28  F: -2439.341561793945857  |grad|_K:  5.269e-06  alpha:  3.960e-01  linmin: -5.006e-06  t[s]:   1308.63
	FillingsUpdate:  mu: +0.109424901  nElectrons: 374.000000
	SubspaceRotationAdjust: set factor to 0.0276
ElecMinimize: Iter:  29  F: -2439.342455392958072  |grad|_K:  5.497e-06  alpha:  3.867e-01  linmin: -4.920e-06  t[s]:   1338.29
	FillingsUpdate:  mu: +0.110395937  nElectrons: 374.000000
	SubspaceRotationAdjust: set factor to 0.0296
ElecMinimize: Iter:  30  F: -2439.343477319259364  |grad|_K:  5.579e-06  alpha:  4.061e-01  linmin: -3.388e-06  t[s]:   1367.98
	FillingsUpdate:  mu: +0.111580820  nElectrons: 374.000000
	SubspaceRotationAdjust: set factor to 0.0305
ElecMinimize: Iter:  31  F: -2439.344524825826738  |grad|_K:  5.753e-06  alpha:  4.044e-01  linmin: -2.442e-06  t[s]:   1397.51
	FillingsUpdate:  mu: +0.112960539  nElectrons: 374.000000
	SubspaceRotationAdjust: set factor to 0.028
ElecMinimize: Iter:  32  F: -2439.345436525056812  |grad|_K:  5.692e-06  alpha:  3.313e-01  linmin: -1.613e-06  t[s]:   1427.22
	FillingsUpdate:  mu: +0.112982613  nElectrons: 374.000000
	SubspaceRotationAdjust: set factor to 0.0232
ElecMinimize: Iter:  33  F: -2439.346197018343901  |grad|_K:  5.007e-06  alpha:  2.825e-01  linmin: -1.515e-06  t[s]:   1456.80
	FillingsUpdate:  mu: +0.112828868  nElectrons: 374.000000
	SubspaceRotationAdjust: set factor to 0.0219
ElecMinimize: Iter:  34  F: -2439.346797854181204  |grad|_K:  4.101e-06  alpha:  2.884e-01  linmin:  4.793e-07  t[s]:   1486.56
	FillingsUpdate:  mu: +0.113211352  nElectrons: 374.000000
	SubspaceRotationAdjust: set factor to 0.0236
ElecMinimize: Iter:  35  F: -2439.347233252865863  |grad|_K:  3.388e-06  alpha:  3.120e-01  linmin:  8.914e-07  t[s]:   1516.16
	FillingsUpdate:  mu: +0.113559543  nElectrons: 374.000000
	SubspaceRotationAdjust: set factor to 0.0224
ElecMinimize: Iter:  36  F: -2439.347532396738643  |grad|_K:  2.784e-06  alpha:  3.141e-01  linmin:  5.993e-07  t[s]:   1545.86
	FillingsUpdate:  mu: +0.113664414  nElectrons: 374.000000
	SubspaceRotationAdjust: set factor to 0.0204
ElecMinimize: Iter:  37  F: -2439.347711512597925  |grad|_K:  2.212e-06  alpha:  2.784e-01  linmin:  1.105e-06  t[s]:   1575.49
	FillingsUpdate:  mu: +0.113452194  nElectrons: 374.000000
	SubspaceRotationAdjust: set factor to 0.0226
ElecMinimize: Iter:  38  F: -2439.347834779593995  |grad|_K:  1.737e-06  alpha:  3.036e-01  linmin:  1.013e-06  t[s]:   1605.42
	FillingsUpdate:  mu: +0.113331951  nElectrons: 374.000000
	SubspaceRotationAdjust: set factor to 0.0234
ElecMinimize: Iter:  39  F: -2439.347912130603618  |grad|_K:  1.420e-06  alpha:  3.091e-01  linmin:  6.013e-07  t[s]:   1635.33
	FillingsUpdate:  mu: +0.113285420  nElectrons: 374.000000
	SubspaceRotationAdjust: set factor to 0.0222
ElecMinimize: Iter:  40  F: -2439.347961508273784  |grad|_K:  1.196e-06  alpha:  2.950e-01  linmin: -1.476e-06  t[s]:   1665.12
	FillingsUpdate:  mu: +0.113145957  nElectrons: 374.000000
	SubspaceRotationAdjust: set factor to 0.0241
ElecMinimize: Iter:  41  F: -2439.348000512875842  |grad|_K:  1.022e-06  alpha:  3.285e-01  linmin: -1.509e-06  t[s]:   1695.14
	FillingsUpdate:  mu: +0.113092201  nElectrons: 374.000000
	SubspaceRotationAdjust: set factor to 0.0269
ElecMinimize: Iter:  42  F: -2439.348029830183350  |grad|_K:  9.253e-07  alpha:  3.379e-01  linmin: -3.244e-06  t[s]:   1724.79
	FillingsUpdate:  mu: +0.113088384  nElectrons: 374.000000
	SubspaceRotationAdjust: set factor to 0.0267
ElecMinimize: Iter:  43  F: -2439.348052453196942  |grad|_K:  8.484e-07  alpha:  3.181e-01  linmin: -5.274e-06  t[s]:   1754.47
	FillingsUpdate:  mu: +0.112943627  nElectrons: 374.000000
	SubspaceRotationAdjust: set factor to 0.0252
ElecMinimize: Iter:  44  F: -2439.348070945641211  |grad|_K:  7.673e-07  alpha:  3.092e-01  linmin: -2.882e-06  t[s]:   1784.30
	FillingsUpdate:  mu: +0.112872810  nElectrons: 374.000000
	SubspaceRotationAdjust: set factor to 0.0266
ElecMinimize: Iter:  45  F: -2439.348086810882705  |grad|_K:  6.917e-07  alpha:  3.244e-01  linmin: -5.525e-06  t[s]:   1814.00
	FillingsUpdate:  mu: +0.112774737  nElectrons: 374.000000
	SubspaceRotationAdjust: set factor to 0.0297
ElecMinimize: Iter:  46  F: -2439.348100962040917  |grad|_K:  6.354e-07  alpha:  3.560e-01  linmin: -5.835e-06  t[s]:   1843.79
	FillingsUpdate:  mu: +0.112653848  nElectrons: 374.000000
	SubspaceRotationAdjust: set factor to 0.0296
ElecMinimize: Iter:  47  F: -2439.348112717597814  |grad|_K:  6.357e-07  alpha:  3.504e-01  linmin: -5.346e-06  t[s]:   1873.48
	FillingsUpdate:  mu: +0.112629841  nElectrons: 374.000000
	SubspaceRotationAdjust: set factor to 0.026
ElecMinimize: Iter:  48  F: -2439.348122327424790  |grad|_K:  6.046e-07  alpha:  2.862e-01  linmin: -5.336e-06  t[s]:   1903.09
	FillingsUpdate:  mu: +0.112513068  nElectrons: 374.000000
	SubspaceRotationAdjust: set factor to 0.0256
ElecMinimize: Iter:  49  F: -2439.348131475687751  |grad|_K:  5.273e-07  alpha:  3.011e-01  linmin: -7.074e-06  t[s]:   1933.16
	FillingsUpdate:  mu: +0.112455736  nElectrons: 374.000000
	SubspaceRotationAdjust: set factor to 0.0287
ElecMinimize: Iter:  50  F: -2439.348139904690015  |grad|_K:  4.942e-07  alpha:  3.645e-01  linmin: -7.081e-06  t[s]:   1962.70
	FillingsUpdate:  mu: +0.112443474  nElectrons: 374.000000
	SubspaceRotationAdjust: set factor to 0.0298
ElecMinimize: Iter:  51  F: -2439.348146846473810  |grad|_K:  4.774e-07  alpha:  3.419e-01  linmin: -5.853e-06  t[s]:   1992.52
	FillingsUpdate:  mu: +0.112377272  nElectrons: 374.000000
	SubspaceRotationAdjust: set factor to 0.027
ElecMinimize: Iter:  52  F: -2439.348152654252317  |grad|_K:  4.700e-07  alpha:  3.065e-01  linmin: -6.167e-06  t[s]:   2022.05
	FillingsUpdate:  mu: +0.112374218  nElectrons: 374.000000
	SubspaceRotationAdjust: set factor to 0.0251
ElecMinimize: Iter:  53  F: -2439.348158120462358  |grad|_K:  4.324e-07  alpha:  2.976e-01  linmin: -3.296e-06  t[s]:   2051.59
	FillingsUpdate:  mu: +0.112321597  nElectrons: 374.000000
	SubspaceRotationAdjust: set factor to 0.0276
ElecMinimize: Iter:  54  F: -2439.348163421272602  |grad|_K:  3.819e-07  alpha:  3.412e-01  linmin: -3.826e-06  t[s]:   2081.58
	FillingsUpdate:  mu: +0.112276907  nElectrons: 374.000000
	SubspaceRotationAdjust: set factor to 0.0291
ElecMinimize: Iter:  55  F: -2439.348167668181304  |grad|_K:  3.544e-07  alpha:  3.503e-01  linmin: -2.175e-06  t[s]:   2111.39
	FillingsUpdate:  mu: +0.112286240  nElectrons: 374.000000
	SubspaceRotationAdjust: set factor to 0.0262
ElecMinimize: Iter:  56  F: -2439.348170774944265  |grad|_K:  3.362e-07  alpha:  2.978e-01  linmin: -1.169e-06  t[s]:   2141.02
	FillingsUpdate:  mu: +0.112242052  nElectrons: 374.000000
	SubspaceRotationAdjust: set factor to 0.0237
ElecMinimize: Iter:  57  F: -2439.348173396589118  |grad|_K:  2.880e-07  alpha:  2.792e-01  linmin: -1.390e-06  t[s]:   2170.94
	FillingsUpdate:  mu: +0.112236971  nElectrons: 374.000000
	SubspaceRotationAdjust: set factor to 0.0261
ElecMinimize: Iter:  58  F: -2439.348175687450748  |grad|_K:  2.487e-07  alpha:  3.327e-01  linmin:  2.859e-07  t[s]:   2200.47
	FillingsUpdate:  mu: +0.112241267  nElectrons: 374.000000
	SubspaceRotationAdjust: set factor to 0.0279
ElecMinimize: Iter:  59  F: -2439.348177372049577  |grad|_K:  2.244e-07  alpha:  3.282e-01  linmin: -5.863e-07  t[s]:   2230.18
	FillingsUpdate:  mu: +0.112224626  nElectrons: 374.000000
	SubspaceRotationAdjust: set factor to 0.0262
ElecMinimize: Iter:  60  F: -2439.348178639749221  |grad|_K:  2.075e-07  alpha:  3.033e-01  linmin: -2.029e-06  t[s]:   2260.16
	FillingsUpdate:  mu: +0.112237304  nElectrons: 374.000000
	SubspaceRotationAdjust: set factor to 0.0255
ElecMinimize: Iter:  61  F: -2439.348179718645952  |grad|_K:  1.892e-07  alpha:  3.018e-01  linmin:  1.165e-06  t[s]:   2289.98
	FillingsUpdate:  mu: +0.112223486  nElectrons: 374.000000
	SubspaceRotationAdjust: set factor to 0.0288
ElecMinimize: Iter:  62  F: -2439.348180761157892  |grad|_K:  1.752e-07  alpha:  3.509e-01  linmin: -1.969e-06  t[s]:   2319.50
	FillingsUpdate:  mu: +0.112204844  nElectrons: 374.000000
	SubspaceRotationAdjust: set factor to 0.0314
ElecMinimize: Iter:  63  F: -2439.348181698577719  |grad|_K:  1.751e-07  alpha:  3.678e-01  linmin: -1.454e-07  t[s]:   2349.02
	FillingsUpdate:  mu: +0.112207808  nElectrons: 374.000000
	SubspaceRotationAdjust: set factor to 0.0294
ElecMinimize: Iter:  64  F: -2439.348182502856616  |grad|_K:  1.809e-07  alpha:  3.159e-01  linmin:  9.609e-07  t[s]:   2378.57
	FillingsUpdate:  mu: +0.112180612  nElectrons: 374.000000
	SubspaceRotationAdjust: set factor to 0.0262
ElecMinimize: Iter:  65  F: -2439.348183289767803  |grad|_K:  1.733e-07  alpha:  2.897e-01  linmin: -1.484e-06  t[s]:   2408.46
	FillingsUpdate:  mu: +0.112172448  nElectrons: 374.000000
	SubspaceRotationAdjust: set factor to 0.0273
ElecMinimize: Iter:  66  F: -2439.348184121728536  |grad|_K:  1.585e-07  alpha:  3.335e-01  linmin:  1.659e-06  t[s]:   2438.65
	FillingsUpdate:  mu: +0.112159601  nElectrons: 374.000000
	SubspaceRotationAdjust: set factor to 0.0295
ElecMinimize: Iter:  67  F: -2439.348184858469722  |grad|_K:  1.458e-07  alpha:  3.533e-01  linmin: -7.566e-07  t[s]:   2468.18
ElecMinimize: Converged (|Delta F|<1.000000e-06 for 5 iters).
Setting wave functions to eigenvectors of Hamiltonian

# Ionic positions in lattice coordinates:
ion Co   0.000000000000000   0.000000000000000   0.150000000000000 1
ion Co   0.500000000000000   0.000000000000000   0.150000000000000 1
ion Co   0.000000000000000   0.500000000000000   0.150000000000000 1
ion Co   0.500000000000000   0.500000000000000   0.150000000000000 1
ion Co   0.250000000000000   0.250000000000000   0.050000000000000 1
ion Co   0.250000000000000   0.750000000000000   0.050000000000000 1
ion Co  -0.250000000000000   0.250000000000000   0.050000000000000 1
ion Co  -0.250000000000000   0.750000000000000   0.050000000000000 1
ion Co   0.000000000000000   0.000000000000000  -0.050000000000000 0
ion Co   0.500000000000000   0.000000000000000  -0.050000000000000 0
ion Co   0.000000000000000   0.500000000000000  -0.050000000000000 0
ion Co   0.500000000000000   0.500000000000000  -0.050000000000000 0
ion Co   0.250000000000000   0.250000000000000  -0.150000000000000 0
ion Co   0.250000000000000   0.750000000000000  -0.150000000000000 0
ion Co  -0.250000000000000   0.250000000000000  -0.150000000000000 0
ion Co  -0.250000000000000   0.750000000000000  -0.150000000000000 0
ion O   0.250000000000000   0.250000000000000   0.150000000000000 1
ion O   0.250000000000000   0.750000000000000   0.150000000000000 1
ion O  -0.250000000000000   0.250000000000000   0.150000000000000 1
ion O  -0.250000000000000   0.750000000000000   0.150000000000000 1
ion O   0.000000000000000   0.000000000000000   0.050000000000000 1
ion O   0.500000000000000   0.000000000000000   0.050000000000000 1
ion O   0.000000000000000   0.500000000000000   0.050000000000000 1
ion O   0.500000000000000   0.500000000000000   0.050000000000000 1
ion O   0.250000000000000   0.250000000000000  -0.050000000000000 0
ion O   0.250000000000000   0.750000000000000  -0.050000000000000 0
ion O  -0.250000000000000   0.250000000000000  -0.050000000000000 0
ion O  -0.250000000000000   0.750000000000000  -0.050000000000000 0
ion O   0.000000000000000   0.000000000000000  -0.150000000000000 0
ion O   0.500000000000000   0.000000000000000  -0.150000000000000 0
ion O   0.000000000000000   0.500000000000000  -0.150000000000000 0
ion O   0.500000000000000   0.500000000000000  -0.150000000000000 0
ion O   0.000000000000000   0.000000000000000   0.230000000000000 1

# Forces in Lattice coordinates:
force Co   0.000011233308845   0.000008688799388   1.849257137321613 1
force Co   0.000008863166648  -0.000008887208180   0.053134408178573 1
force Co  -0.000006242204790   0.000010250637604   0.053113709499526 1
force Co   0.000005294388384   0.000004777713038  -0.173139207565013 1
force Co   0.014829535435458   0.014830470863797   0.358264338641814 1
force Co   0.014829635817960  -0.014834351769208   0.358368957434454 1
force Co  -0.014834095196465   0.014835094517116   0.358382597975276 1
force Co  -0.014833997942832  -0.014838468337806   0.358488991348830 1
force Co  -0.000011062709859  -0.000007875106610  -0.576141256147265 0
force Co   0.000017862666311  -0.000016850322295  -0.339617335986151 0
force Co  -0.000014720150253   0.000017121393135  -0.339623281698938 0
force Co   0.000018789582802   0.000019614340218  -0.329895676097825 0
force Co   0.004401627336003   0.004409457783301   0.091416267582790 0
force Co   0.004400856615903  -0.004413373986402   0.091822027449920 0
force Co  -0.004404016025982   0.004405290000302   0.091881190420867 0
force Co  -0.004403558090115  -0.004407119739345   0.092325450230068 0
force O   0.070857696895340   0.070863293207078  -0.917887865768336 1
force O   0.070865965591174  -0.070883648428616  -0.917966755727418 1
force O  -0.070887528990700   0.070877942655339  -0.917899245683554 1
force O  -0.070890002934094  -0.070893364505078  -0.918559986876101 1
force O  -0.000010594324375   0.000020236078128  -0.160390449232009 1
force O   0.000034278626560  -0.000023796969111  -0.193928555716108 1
force O  -0.000043878169457   0.000004211788148  -0.193747126759366 1
force O   0.000035055834391   0.000008773905407  -0.051055230886985 1
force O  -0.002620911226507  -0.002617923753255   0.270353336964140 0
force O  -0.002606914661017   0.002606386466475   0.268429294609026 0
force O   0.002581300949500  -0.002616215030815   0.268222769613535 0
force O   0.002595918925151   0.002602605191236   0.265944340003773 0
force O  -0.000072965719335  -0.000079926336071   0.768200462119012 0
force O   0.000065071022257  -0.000075268710937   0.497673057816229 0
force O  -0.000097722717040   0.000098934111951   0.497672346958270 0
force O   0.000092675680645   0.000061898574840   0.423709531734289 0
force O  -0.000015533205571   0.000005178527483  -0.744809976834354 1

# Energy components:
   Eewald =     6601.2088265333986783
       EH =     8805.9551840077856468
     Eloc =   -17936.5436108424764825
      Enl =     -752.2487250443700759
   Epulay =        0.0001959371989449
      Exc =     -280.6367415736897328
       KE =     1122.9244386431030307
-------------------------------------
     Etot =    -2439.3404323390504942
       TS =        0.0077525194193335
-------------------------------------
        F =    -2439.3481848584697218

IonicMinimize: Iter:   0  F: -2439.348184858469722  |grad|_K:  1.021e-02  t[s]:   2477.30

#--- Lowdin population analysis ---
# oxidation-state Co +1.171 +0.974 +0.974 +0.955 +0.925 +0.925 +0.925 +0.925 +0.932 +0.922 +0.922 +0.919 +0.913 +0.914 +0.914 +0.915
# oxidation-state O -0.801 -0.801 -0.801 -0.801 -0.858 -0.818 -0.818 -0.816 -0.821 -0.821 -0.821 -0.821 -0.832 -0.837 -0.837 -0.840 -0.512


-------- Electronic minimization -----------
	FillingsUpdate:  mu: +0.139253458  nElectrons: 374.000000
ElecMinimize: Iter:   0  F: -2438.920951465120197  |grad|_K:  1.633e-04  alpha:  1.000e+00
	FillingsUpdate:  mu: +0.127375066  nElectrons: 374.000000
	SubspaceRotationAdjust: set factor to 0.0208
ElecMinimize: Iter:   1  F: -2439.308895239034882  |grad|_K:  4.099e-05  alpha:  1.790e-01  linmin:  5.043e-02  t[s]:   2527.74
	FillingsUpdate:  mu: +0.120265079  nElectrons: 374.000000
	SubspaceRotationAdjust: set factor to 0.0106
ElecMinimize: Iter:   2  F: -2439.328099071732595  |grad|_K:  1.875e-05  alpha:  1.413e-01  linmin: -8.730e-04  t[s]:   2557.31
	FillingsUpdate:  mu: +0.113470879  nElectrons: 374.000000
	SubspaceRotationAdjust: set factor to 0.0153
ElecMinimize: Iter:   3  F: -2439.334717448612537  |grad|_K:  8.928e-06  alpha:  2.263e-01  linmin: -1.029e-04  t[s]:   2586.90
	FillingsUpdate:  mu: +0.114100498  nElectrons: 374.000000
	SubspaceRotationAdjust: set factor to 0.0153
ElecMinimize: Iter:   4  F: -2439.336360758410592  |grad|_K:  5.093e-06  alpha:  2.483e-01  linmin: -1.692e-04  t[s]:   2616.64
	FillingsUpdate:  mu: +0.113455175  nElectrons: 374.000000
	SubspaceRotationAdjust: set factor to 0.0181
ElecMinimize: Iter:   5  F: -2439.337139161770210  |grad|_K:  3.795e-06  alpha:  3.614e-01  linmin:  1.639e-05  t[s]:   2646.45
	FillingsUpdate:  mu: +0.113578344  nElectrons: 374.000000
	SubspaceRotationAdjust: set factor to 0.0223
ElecMinimize: Iter:   6  F: -2439.337676431694945  |grad|_K:  3.938e-06  alpha:  4.494e-01  linmin: -1.260e-06  t[s]:   2676.04
	FillingsUpdate:  mu: +0.113824008  nElectrons: 374.000000
	SubspaceRotationAdjust: set factor to 0.0265
ElecMinimize: Iter:   7  F: -2439.338265717565719  |grad|_K:  4.394e-06  alpha:  4.576e-01  linmin: -3.191e-05  t[s]:   2705.93
	FillingsUpdate:  mu: +0.113972712  nElectrons: 374.000000
	SubspaceRotationAdjust: set factor to 0.0281
ElecMinimize: Iter:   8  F: -2439.339180835314892  |grad|_K:  5.984e-06  alpha:  5.728e-01  linmin:  2.062e-04  t[s]:   2735.89
	FillingsUpdate:  mu: +0.114832408  nElectrons: 374.000000
	SubspaceRotationAdjust: set factor to 0.0272
ElecMinimize: Iter:   9  F: -2439.340463844572241  |grad|_K:  7.308e-06  alpha:  4.459e-01  linmin: -1.342e-04  t[s]:   2765.69
	FillingsUpdate:  mu: +0.115828806  nElectrons: 374.000000
	SubspaceRotationAdjust: set factor to 0.0245
ElecMinimize: Iter:  10  F: -2439.342257220957435  |grad|_K:  8.723e-06  alpha:  3.868e-01  linmin:  4.297e-04  t[s]:   2795.50
	FillingsUpdate:  mu: +0.115791512  nElectrons: 374.000000
	SubspaceRotationAdjust: set factor to 0.0314
ElecMinimize: Iter:  11  F: -2439.344287718865417  |grad|_K:  9.941e-06  alpha:  3.391e-01  linmin:  1.091e-04  t[s]:   2825.06
	FillingsUpdate:  mu: +0.116132564  nElectrons: 374.000000
	SubspaceRotationAdjust: set factor to 0.0401
ElecMinimize: Iter:  12  F: -2439.346235602825800  |grad|_K:  9.391e-06  alpha:  2.389e-01  linmin: -9.091e-05  t[s]:   2854.79
	FillingsUpdate:  mu: +0.115245896  nElectrons: 374.000000
	SubspaceRotationAdjust: set factor to 0.0536
ElecMinimize: Iter:  13  F: -2439.348013576322046  |grad|_K:  8.995e-06  alpha:  2.393e-01  linmin: -1.126e-04  t[s]:   2884.92
	FillingsUpdate:  mu: +0.113284510  nElectrons: 374.000000
	SubspaceRotationAdjust: set factor to 0.0688
ElecMinimize: Iter:  14  F: -2439.349504987696946  |grad|_K:  7.375e-06  alpha:  2.192e-01  linmin: -2.061e-04  t[s]:   2914.73
	FillingsUpdate:  mu: +0.113475320  nElectrons: 374.000000
	SubspaceRotationAdjust: set factor to 0.0581
ElecMinimize: Iter:  15  F: -2439.350388178797402  |grad|_K:  7.007e-06  alpha:  1.928e-01  linmin: -2.955e-04  t[s]:   2944.41
	FillingsUpdate:  mu: +0.113837988  nElectrons: 374.000000
	SubspaceRotationAdjust: set factor to 0.0403
ElecMinimize: Iter:  16  F: -2439.350904744979744  |grad|_K:  6.608e-06  alpha:  1.187e-01  linmin: -5.369e-05  t[s]:   2974.39
	FillingsUpdate:  mu: +0.112752152  nElectrons: 374.000000
	SubspaceRotationAdjust: set factor to 0.0494
ElecMinimize: Iter:  17  F: -2439.351490337558516  |grad|_K:  4.405e-06  alpha:  1.600e-01  linmin: -9.946e-05  t[s]:   3004.15
	FillingsUpdate:  mu: +0.113860627  nElectrons: 374.000000
	SubspaceRotationAdjust: set factor to 0.0485
ElecMinimize: Iter:  18  F: -2439.351852232918191  |grad|_K:  4.578e-06  alpha:  2.216e-01  linmin: -1.714e-04  t[s]:   3033.99
	FillingsUpdate:  mu: +0.112753981  nElectrons: 374.000000
	SubspaceRotationAdjust: set factor to 0.0372
ElecMinimize: Iter:  19  F: -2439.352068696735387  |grad|_K:  3.411e-06  alpha:  1.218e-01  linmin: -4.026e-05  t[s]:   3063.80
	FillingsUpdate:  mu: +0.112712137  nElectrons: 374.000000
	SubspaceRotationAdjust: set factor to 0.0435
ElecMinimize: Iter:  20  F: -2439.352267428240339  |grad|_K:  2.495e-06  alpha:  2.049e-01  linmin: -8.210e-05  t[s]:   3093.68
	FillingsUpdate:  mu: +0.113108093  nElectrons: 374.000000
	SubspaceRotationAdjust: set factor to 0.0409
ElecMinimize: Iter:  21  F: -2439.352380621631255  |grad|_K:  2.443e-06  alpha:  2.182e-01  linmin: -2.738e-05  t[s]:   3123.77
	FillingsUpdate:  mu: +0.112856088  nElectrons: 374.000000
	SubspaceRotationAdjust: set factor to 0.0342
ElecMinimize: Iter:  22  F: -2439.352453266692464  |grad|_K:  1.803e-06  alpha:  1.463e-01  linmin:  9.351e-06  t[s]:   3153.63
	FillingsUpdate:  mu: +0.112890476  nElectrons: 374.000000
	SubspaceRotationAdjust: set factor to 0.043
ElecMinimize: Iter:  23  F: -2439.352515420398504  |grad|_K:  1.432e-06  alpha:  2.303e-01  linmin: -1.164e-05  t[s]:   3183.38
	FillingsUpdate:  mu: +0.113073728  nElectrons: 374.000000
	SubspaceRotationAdjust: set factor to 0.0431
ElecMinimize: Iter:  24  F: -2439.352554699813027  |grad|_K:  1.402e-06  alpha:  2.306e-01  linmin: -3.427e-05  t[s]:   3213.05
	FillingsUpdate:  mu: +0.113027388  nElectrons: 374.000000
	SubspaceRotationAdjust: set factor to 0.041
ElecMinimize: Iter:  25  F: -2439.352581881806600  |grad|_K:  1.188e-06  alpha:  1.664e-01  linmin:  4.572e-06  t[s]:   3242.55
	FillingsUpdate:  mu: +0.113110425  nElectrons: 374.000000
	SubspaceRotationAdjust: set factor to 0.0494
ElecMinimize: Iter:  26  F: -2439.352610947724315  |grad|_K:  1.042e-06  alpha:  2.481e-01  linmin: -7.422e-06  t[s]:   3272.46
	FillingsUpdate:  mu: +0.113226211  nElectrons: 374.000000
	SubspaceRotationAdjust: set factor to 0.0566
ElecMinimize: Iter:  27  F: -2439.352637588058769  |grad|_K:  1.125e-06  alpha:  2.952e-01  linmin: -1.380e-05  t[s]:   3302.36
	FillingsUpdate:  mu: +0.113240809  nElectrons: 374.000000
	SubspaceRotationAdjust: set factor to 0.0517
ElecMinimize: Iter:  28  F: -2439.352657363949220  |grad|_K:  1.282e-06  alpha:  1.879e-01  linmin: -2.591e-06  t[s]:   3331.98
	FillingsUpdate:  mu: +0.113305802  nElectrons: 374.000000
	SubspaceRotationAdjust: set factor to 0.0486
ElecMinimize: Iter:  29  F: -2439.352680293440699  |grad|_K:  1.118e-06  alpha:  1.682e-01  linmin: -2.023e-05  t[s]:   3361.97
	FillingsUpdate:  mu: +0.113368678  nElectrons: 374.000000
	SubspaceRotationAdjust: set factor to 0.0538
ElecMinimize: Iter:  30  F: -2439.352710925071733  |grad|_K:  1.118e-06  alpha:  2.949e-01  linmin:  2.114e-05  t[s]:   3391.91
	FillingsUpdate:  mu: +0.113425182  nElectrons: 374.000000
	SubspaceRotationAdjust: set factor to 0.0585
ElecMinimize: Iter:  31  F: -2439.352742184012186  |grad|_K:  1.142e-06  alpha:  3.023e-01  linmin:  3.417e-06  t[s]:   3421.99
	FillingsUpdate:  mu: +0.113543702  nElectrons: 374.000000
	SubspaceRotationAdjust: set factor to 0.0556
ElecMinimize: Iter:  32  F: -2439.352770215480632  |grad|_K:  1.334e-06  alpha:  2.595e-01  linmin: -2.135e-05  t[s]:   3451.68
	FillingsUpdate:  mu: +0.113459411  nElectrons: 374.000000
	SubspaceRotationAdjust: set factor to 0.0424
ElecMinimize: Iter:  33  F: -2439.352790225619628  |grad|_K:  1.230e-06  alpha:  1.343e-01  linmin: -1.776e-05  t[s]:   3481.72
	FillingsUpdate:  mu: +0.113466206  nElectrons: 374.000000
	SubspaceRotationAdjust: set factor to 0.0431
ElecMinimize: Iter:  34  F: -2439.352815504491900  |grad|_K:  9.997e-07  alpha:  2.002e-01  linmin: -2.560e-05  t[s]:   3511.61
	FillingsUpdate:  mu: +0.113520549  nElectrons: 374.000000
	SubspaceRotationAdjust: set factor to 0.0465
ElecMinimize: Iter:  35  F: -2439.352838380901176  |grad|_K:  9.243e-07  alpha:  2.744e-01  linmin: -1.033e-05  t[s]:   3541.22
	FillingsUpdate:  mu: +0.113473858  nElectrons: 374.000000
	SubspaceRotationAdjust: set factor to 0.0406
ElecMinimize: Iter:  36  F: -2439.352852019958391  |grad|_K:  9.108e-07  alpha:  1.918e-01  linmin:  1.784e-06  t[s]:   3571.04
	FillingsUpdate:  mu: +0.113459473  nElectrons: 374.000000
	SubspaceRotationAdjust: set factor to 0.0364
ElecMinimize: Iter:  37  F: -2439.352863812898704  |grad|_K:  7.173e-07  alpha:  1.714e-01  linmin: -1.154e-05  t[s]:   3600.74
	FillingsUpdate:  mu: +0.113419279  nElectrons: 374.000000
	SubspaceRotationAdjust: set factor to 0.0423
ElecMinimize: Iter:  38  F: -2439.352874298131610  |grad|_K:  5.876e-07  alpha:  2.451e-01  linmin:  2.770e-06  t[s]:   3630.37
	FillingsUpdate:  mu: +0.113387262  nElectrons: 374.000000
	SubspaceRotationAdjust: set factor to 0.0422
ElecMinimize: Iter:  39  F: -2439.352881138519479  |grad|_K:  5.782e-07  alpha:  2.387e-01  linmin:  7.476e-06  t[s]:   3660.00
	FillingsUpdate:  mu: +0.113398020  nElectrons: 374.000000
	SubspaceRotationAdjust: set factor to 0.0381
ElecMinimize: Iter:  40  F: -2439.352885877663084  |grad|_K:  4.830e-07  alpha:  1.710e-01  linmin: -7.195e-07  t[s]:   3689.82
	FillingsUpdate:  mu: +0.113350889  nElectrons: 374.000000
	SubspaceRotationAdjust: set factor to 0.044
ElecMinimize: Iter:  41  F: -2439.352890379538621  |grad|_K:  4.052e-07  alpha:  2.325e-01  linmin:  3.233e-06  t[s]:   3719.50
	FillingsUpdate:  mu: +0.113307597  nElectrons: 374.000000
	SubspaceRotationAdjust: set factor to 0.0509
ElecMinimize: Iter:  42  F: -2439.352894178777660  |grad|_K:  3.915e-07  alpha:  2.789e-01  linmin:  3.791e-06  t[s]:   3749.25
	FillingsUpdate:  mu: +0.113305699  nElectrons: 374.000000
	SubspaceRotationAdjust: set factor to 0.0486
ElecMinimize: Iter:  43  F: -2439.352896779002094  |grad|_K:  4.166e-07  alpha:  2.045e-01  linmin:  6.259e-07  t[s]:   3778.83
	FillingsUpdate:  mu: +0.113252216  nElectrons: 374.000000
	SubspaceRotationAdjust: set factor to 0.0457
ElecMinimize: Iter:  44  F: -2439.352899259392416  |grad|_K:  3.646e-07  alpha:  1.721e-01  linmin:  6.325e-06  t[s]:   3808.78
	FillingsUpdate:  mu: +0.113232196  nElectrons: 374.000000
	SubspaceRotationAdjust: set factor to 0.0523
ElecMinimize: Iter:  45  F: -2439.352902092957720  |grad|_K:  3.352e-07  alpha:  2.570e-01  linmin: -2.815e-06  t[s]:   3838.35
	FillingsUpdate:  mu: +0.113208050  nElectrons: 374.000000
	SubspaceRotationAdjust: set factor to 0.0593
ElecMinimize: Iter:  46  F: -2439.352904925475741  |grad|_K:  3.376e-07  alpha:  3.036e-01  linmin: -8.427e-07  t[s]:   3868.00
	FillingsUpdate:  mu: +0.113175881  nElectrons: 374.000000
	SubspaceRotationAdjust: set factor to 0.0597
ElecMinimize: Iter:  47  F: -2439.352907389333723  |grad|_K:  3.779e-07  alpha:  2.603e-01  linmin:  4.837e-06  t[s]:   3897.43
	FillingsUpdate:  mu: +0.113188169  nElectrons: 374.000000
	SubspaceRotationAdjust: set factor to 0.0479
ElecMinimize: Iter:  48  F: -2439.352909042039300  |grad|_K:  3.740e-07  alpha:  1.395e-01  linmin:  3.323e-06  t[s]:   3927.23
	FillingsUpdate:  mu: +0.113157696  nElectrons: 374.000000
	SubspaceRotationAdjust: set factor to 0.0456
ElecMinimize: Iter:  49  F: -2439.352911155481252  |grad|_K:  3.002e-07  alpha:  1.821e-01  linmin:  6.475e-06  t[s]:   3957.03
	FillingsUpdate:  mu: +0.113153116  nElectrons: 374.000000
	SubspaceRotationAdjust: set factor to 0.0497
ElecMinimize: Iter:  50  F: -2439.352913146614810  |grad|_K:  2.662e-07  alpha:  2.665e-01  linmin:  5.465e-06  t[s]:   3986.83
	FillingsUpdate:  mu: +0.113162006  nElectrons: 374.000000
	SubspaceRotationAdjust: set factor to 0.0496
ElecMinimize: Iter:  51  F: -2439.352914596389837  |grad|_K:  2.526e-07  alpha:  2.465e-01  linmin: -4.939e-07  t[s]:   4016.31
	FillingsUpdate:  mu: +0.113149036  nElectrons: 374.000000
	SubspaceRotationAdjust: set factor to 0.0404
ElecMinimize: Iter:  52  F: -2439.352915457948711  |grad|_K:  2.356e-07  alpha:  1.626e-01  linmin:  3.401e-07  t[s]:   4046.10
	FillingsUpdate:  mu: +0.113159827  nElectrons: 374.000000
	SubspaceRotationAdjust: set factor to 0.038
ElecMinimize: Iter:  53  F: -2439.352916259676931  |grad|_K:  1.765e-07  alpha:  1.739e-01  linmin: -1.001e-05  t[s]:   4075.84
	FillingsUpdate:  mu: +0.113163364  nElectrons: 374.000000
	SubspaceRotationAdjust: set factor to 0.0437
ElecMinimize: Iter:  54  F: -2439.352916890924007  |grad|_K:  1.460e-07  alpha:  2.432e-01  linmin: -3.719e-05  t[s]:   4105.84
	FillingsUpdate:  mu: +0.113161957  nElectrons: 374.000000
	SubspaceRotationAdjust: set factor to 0.0433
ElecMinimize: Iter:  55  F: -2439.352917293052997  |grad|_K:  1.395e-07  alpha:  2.266e-01  linmin: -6.837e-06  t[s]:   4135.52
	FillingsUpdate:  mu: +0.113173478  nElectrons: 374.000000
	SubspaceRotationAdjust: set factor to 0.0397
ElecMinimize: Iter:  56  F: -2439.352917568229714  |grad|_K:  1.184e-07  alpha:  1.703e-01  linmin:  2.950e-07  t[s]:   4165.30
ElecMinimize: Converged (|Delta F|<1.000000e-06 for 5 iters).
Setting wave functions to eigenvectors of Hamiltonian

# Ionic positions in lattice coordinates:
ion Co   0.000000087541235   0.000000067711860   0.151152901655279 1
ion Co   0.500000069070705  -0.000000069258061   0.150033126138007 1
ion Co  -0.000000048645535   0.500000079883273   0.150033113233614 1
ion Co   0.500000041259197   0.500000037232743   0.149892058018884 1
ion Co   0.250115566648396   0.250115573938194   0.050223356471478 1
ion Co   0.250115567430677   0.749884395817890   0.050223421695062 1
ion Co  -0.250115602182637   0.250115609970349   0.050223430199127 1
ion Co  -0.250115601424739   0.749884363737449   0.050223496529057 1
ion Co   0.000000000000000   0.000000000000000  -0.050000000000000 0
ion Co   0.500000000000000   0.000000000000000  -0.050000000000000 0
ion Co   0.000000000000000   0.500000000000000  -0.050000000000000 0
ion Co   0.500000000000000   0.500000000000000  -0.050000000000000 0
ion Co   0.250000000000000   0.250000000000000  -0.150000000000000 0
ion Co   0.250000000000000   0.750000000000000  -0.150000000000000 0
ion Co  -0.250000000000000   0.250000000000000  -0.150000000000000 0
ion Co  -0.250000000000000   0.750000000000000  -0.150000000000000 0
ion O   0.250552194408171   0.250552238020258   0.149427751599035 1
ion O   0.250552258846161   0.749447603351393   0.149427702415846 1
ion O  -0.250552426889848   0.250552352183486   0.149427744504336 1
ion O  -0.250552446169302   0.749447527633957   0.149427332571566 1
ion O  -0.000000082561626   0.000000157699864   0.049900006110195 1
ion O   0.500000267133519  -0.000000185449907   0.049879097098841 1
ion O  -0.000000341942808   0.500000032822487   0.049879210208987 1
ion O   0.500000273190304   0.500000068375091   0.049968170105167 1
ion O   0.250000000000000   0.250000000000000  -0.050000000000000 0
ion O   0.250000000000000   0.750000000000000  -0.050000000000000 0
ion O  -0.250000000000000   0.250000000000000  -0.050000000000000 0
ion O  -0.250000000000000   0.750000000000000  -0.050000000000000 0
ion O   0.000000000000000   0.000000000000000  -0.150000000000000 0
ion O   0.500000000000000   0.000000000000000  -0.150000000000000 0
ion O   0.000000000000000   0.500000000000000  -0.150000000000000 0
ion O   0.500000000000000   0.500000000000000  -0.150000000000000 0
ion O  -0.000000121050353   0.000000040356292   0.229535655351638 1

# Forces in Lattice coordinates:
force Co   0.000005592128132  -0.000003557900002   1.081979750568081 1
force Co  -0.000003126437142   0.000007047984520   0.020777980559522 1
force Co   0.000000532291020  -0.000001883797721   0.020759924413527 1
force Co   0.000000830909012  -0.000001993657416  -0.154678178955892 1
force Co   0.010967394755059   0.010973384486050   0.319992665683737 1
force Co   0.010965114556580  -0.010967998526965   0.319878459622775 1
force Co  -0.010965110001768   0.010967105886834   0.319874558167659 1
force Co  -0.010958918173726  -0.010964627904709   0.319989672483423 1
force Co   0.000001277859179   0.000001131641188  -0.542172321692477 0
force Co  -0.000001190028083   0.000003349011396  -0.317090430320234 0
force Co   0.000001025807804  -0.000002285686209  -0.317076187190487 0
force Co  -0.000002540727333  -0.000002733011907  -0.318442798152716 0
force Co   0.004391858341529   0.004392903411827   0.099271574719181 0
force Co   0.004391942117943  -0.004391271047949   0.099265817724365 0
force Co  -0.004391173382539   0.004392745375583   0.099271154400671 0
force Co  -0.004391908292133  -0.004392576576402   0.099248409825854 0
force O   0.068727857013346   0.068749003336377  -0.926285607964854 1
force O   0.068787304785751  -0.068770967838331  -0.927072036872119 1
force O  -0.068775247238881   0.068767653906669  -0.926887994441183 1
force O  -0.068765572416679  -0.068747057752155  -0.926170257584889 1
force O   0.000039993580135   0.000087918446283  -0.160582599128428 1
force O  -0.000000815658966   0.000010080454540  -0.213838849303357 1
force O   0.000022171686115  -0.000016421033339  -0.213754200492729 1
force O   0.000001806042247  -0.000024426575530  -0.079752793895265 1
force O  -0.002456426642147  -0.002477311106824   0.260606361536882 0
force O  -0.002464325578930   0.002467800786502   0.261094676538845 0
force O   0.002461699307337  -0.002473312735224   0.260985805396273 0
force O   0.002450774383272   0.002462482481523   0.260818969234695 0
force O  -0.000002324031986  -0.000002227396749   0.771733880336026 0
force O  -0.000000855252127   0.000004213242561   0.486478076216494 0
force O  -0.000006867046959   0.000001101790443   0.486495473634264 0
force O  -0.000000691785334   0.000009635014854   0.408800956792428 0
force O   0.000009062668585  -0.000009940257265  -0.142149094367472 1

# Energy components:
   Eewald =     6599.8364477091381559
       EH =     8804.8682584893904277
     Eloc =   -17934.1117304953331768
      Enl =     -752.2498966300324810
   Epulay =        0.0001959371989449
      Exc =     -280.6508166677656391
       KE =     1122.9623438207863728
-------------------------------------
     Etot =    -2439.3451978366174444
       TS =        0.0077197316121765
-------------------------------------
        F =    -2439.3529175682297137

IonicMinimize: Iter:   1  F: -2439.352917568229714  |grad|_K:  8.324e-03  alpha:  1.000e+00  linmin: -8.104e-01  t[s]:   4174.41

#--- Lowdin population analysis ---
# oxidation-state Co +1.170 +0.967 +0.967 +0.948 +0.928 +0.928 +0.928 +0.928 +0.933 +0.922 +0.922 +0.919 +0.914 +0.914 +0.914 +0.914
# oxidation-state O -0.801 -0.801 -0.801 -0.801 -0.860 -0.817 -0.817 -0.815 -0.821 -0.821 -0.821 -0.821 -0.831 -0.837 -0.837 -0.840 -0.502


-------- Electronic minimization -----------
	FillingsUpdate:  mu: +0.160175801  nElectrons: 374.000000
ElecMinimize: Iter:   0  F: -2436.125427131075412  |grad|_K:  4.431e-04  alpha:  1.000e+00
	FillingsUpdate:  mu: +0.147702004  nElectrons: 374.000000
	SubspaceRotationAdjust: set factor to 0.0353
ElecMinimize: Iter:   1  F: -2438.947489638806928  |grad|_K:  1.521e-04  alpha:  2.077e-01  linmin:  2.185e-01  t[s]:   4224.82
	FillingsUpdate:  mu: +0.154604190  nElectrons: 374.000000
	SubspaceRotationAdjust: set factor to 0.0208
ElecMinimize: Iter:   2  F: -2439.164131314459155  |grad|_K:  8.580e-05  alpha:  1.373e-01  linmin: -1.986e-04  t[s]:   4254.76
	FillingsUpdate:  mu: +0.114104202  nElectrons: 374.000000
	SubspaceRotationAdjust: set factor to 0.0216
ElecMinimize: Iter:   3  F: -2439.246002183905603  |grad|_K:  3.013e-05  alpha:  1.339e-01  linmin:  1.049e-03  t[s]:   4284.87
	FillingsUpdate:  mu: +0.122384599  nElectrons: 374.000000
	SubspaceRotationAdjust: set factor to 0.0236
ElecMinimize: Iter:   4  F: -2439.264891589246872  |grad|_K:  1.886e-05  alpha:  2.511e-01  linmin: -2.453e-04  t[s]:   4315.13
	FillingsUpdate:  mu: +0.121752774  nElectrons: 374.000000
	SubspaceRotationAdjust: set factor to 0.0196
ElecMinimize: Iter:   5  F: -2439.273105974443752  |grad|_K:  1.484e-05  alpha:  2.778e-01  linmin: -9.482e-05  t[s]:   4345.06
	FillingsUpdate:  mu: +0.116266700  nElectrons: 374.000000
	SubspaceRotationAdjust: set factor to 0.0232
ElecMinimize: Iter:   6  F: -2439.277912754928821  |grad|_K:  1.082e-05  alpha:  2.628e-01  linmin: -2.049e-04  t[s]:   4375.11
	FillingsUpdate:  mu: +0.117854368  nElectrons: 374.000000
	SubspaceRotationAdjust: set factor to 0.0287
ElecMinimize: Iter:   7  F: -2439.282388452470968  |grad|_K:  1.087e-05  alpha:  4.582e-01  linmin: -1.879e-04  t[s]:   4404.92
	FillingsUpdate:  mu: +0.120876409  nElectrons: 374.000000
	SubspaceRotationAdjust: set factor to 0.0257
ElecMinimize: Iter:   8  F: -2439.286117596677741  |grad|_K:  1.375e-05  alpha:  3.758e-01  linmin:  1.502e-04  t[s]:   4435.00
	FillingsUpdate:  mu: +0.115290432  nElectrons: 374.000000
	SubspaceRotationAdjust: set factor to 0.0274
ElecMinimize: Iter:   9  F: -2439.291499935958655  |grad|_K:  1.315e-05  alpha:  3.472e-01  linmin: -3.365e-04  t[s]:   4465.12
	FillingsUpdate:  mu: +0.116601644  nElectrons: 374.000000
	SubspaceRotationAdjust: set factor to 0.0296
ElecMinimize: Iter:  10  F: -2439.300145705521118  |grad|_K:  1.708e-05  alpha:  5.908e-01  linmin:  1.579e-04  t[s]:   4494.83
	FillingsUpdate:  mu: +0.123102499  nElectrons: 374.000000
	SubspaceRotationAdjust: set factor to 0.0306
ElecMinimize: Iter:  11  F: -2439.308107724973070  |grad|_K:  1.859e-05  alpha:  2.684e-01  linmin: -1.374e-03  t[s]:   4524.48
	FillingsUpdate:  mu: +0.118942309  nElectrons: 374.000000
	SubspaceRotationAdjust: set factor to 0.0384
ElecMinimize: Iter:  12  F: -2439.317823780618710  |grad|_K:  2.065e-05  alpha:  2.892e-01  linmin: -1.375e-04  t[s]:   4554.17
	FillingsUpdate:  mu: +0.124354319  nElectrons: 374.000000
	SubspaceRotationAdjust: set factor to 0.0438
ElecMinimize: Iter:  13  F: -2439.327965168230094  |grad|_K:  2.155e-05  alpha:  2.789e-01  linmin:  3.398e-04  t[s]:   4583.74
	FillingsUpdate:  mu: +0.122704947  nElectrons: 374.000000
	SubspaceRotationAdjust: set factor to 0.0348
ElecMinimize: Iter:  14  F: -2439.334057050884439  |grad|_K:  2.208e-05  alpha:  1.505e-01  linmin: -4.532e-04  t[s]:   4613.43
	FillingsUpdate:  mu: +0.119500119  nElectrons: 374.000000
	SubspaceRotationAdjust: set factor to 0.0516
ElecMinimize: Iter:  15  F: -2439.340381303639333  |grad|_K:  1.819e-05  alpha:  1.465e-01  linmin: -3.478e-04  t[s]:   4642.94
	FillingsUpdate:  mu: +0.116147067  nElectrons: 374.000000
	SubspaceRotationAdjust: set factor to 0.0643
ElecMinimize: Iter:  16  F: -2439.346510434759239  |grad|_K:  1.486e-05  alpha:  2.033e-01  linmin: -8.850e-04  t[s]:   4672.73
	FillingsUpdate:  mu: +0.114861756  nElectrons: 374.000000
	SubspaceRotationAdjust: set factor to 0.0727
ElecMinimize: Iter:  17  F: -2439.351703620271110  |grad|_K:  1.284e-05  alpha:  2.527e-01  linmin: -2.044e-04  t[s]:   4702.54
	FillingsUpdate:  mu: +0.115728428  nElectrons: 374.000000
	SubspaceRotationAdjust: set factor to 0.0718
ElecMinimize: Iter:  18  F: -2439.355380469609827  |grad|_K:  1.180e-05  alpha:  2.617e-01  linmin: -2.020e-04  t[s]:   4732.37
	FillingsUpdate:  mu: +0.119670581  nElectrons: 374.000000
	SubspaceRotationAdjust: set factor to 0.0587
ElecMinimize: Iter:  19  F: -2439.357448809529615  |grad|_K:  1.435e-05  alpha:  1.696e-01  linmin: -2.656e-05  t[s]:   4762.12
	FillingsUpdate:  mu: +0.114927104  nElectrons: 374.000000
	SubspaceRotationAdjust: set factor to 0.0472
ElecMinimize: Iter:  20  F: -2439.359075585565279  |grad|_K:  8.749e-06  alpha:  9.793e-02  linmin:  9.399e-05  t[s]:   4791.96
	FillingsUpdate:  mu: +0.115442530  nElectrons: 374.000000
	SubspaceRotationAdjust: set factor to 0.0516
ElecMinimize: Iter:  21  F: -2439.360533359910278  |grad|_K:  7.188e-06  alpha:  2.310e-01  linmin: -3.636e-05  t[s]:   4821.78
	FillingsUpdate:  mu: +0.116720931  nElectrons: 374.000000
	SubspaceRotationAdjust: set factor to 0.0434
ElecMinimize: Iter:  22  F: -2439.361284604482080  |grad|_K:  7.259e-06  alpha:  1.738e-01  linmin:  4.089e-05  t[s]:   4851.57
	FillingsUpdate:  mu: +0.115215150  nElectrons: 374.000000
	SubspaceRotationAdjust: set factor to 0.037
ElecMinimize: Iter:  23  F: -2439.361849274877386  |grad|_K:  4.730e-06  alpha:  1.298e-01  linmin: -2.538e-05  t[s]:   4881.64
	FillingsUpdate:  mu: +0.115516531  nElectrons: 374.000000
	SubspaceRotationAdjust: set factor to 0.0423
ElecMinimize: Iter:  24  F: -2439.362293261940067  |grad|_K:  4.058e-06  alpha:  2.385e-01  linmin: -5.192e-05  t[s]:   4911.58
	FillingsUpdate:  mu: +0.115705778  nElectrons: 374.000000
	SubspaceRotationAdjust: set factor to 0.0362
ElecMinimize: Iter:  25  F: -2439.362538013132053  |grad|_K:  3.593e-06  alpha:  1.785e-01  linmin:  1.716e-05  t[s]:   4941.29
	FillingsUpdate:  mu: +0.115415689  nElectrons: 374.000000
	SubspaceRotationAdjust: set factor to 0.0363
ElecMinimize: Iter:  26  F: -2439.362723714348704  |grad|_K:  2.650e-06  alpha:  1.733e-01  linmin: -2.956e-05  t[s]:   4970.85
	FillingsUpdate:  mu: +0.115476451  nElectrons: 374.000000
	SubspaceRotationAdjust: set factor to 0.0431
ElecMinimize: Iter:  27  F: -2439.362871943596929  |grad|_K:  2.278e-06  alpha:  2.542e-01  linmin:  2.926e-07  t[s]:   5000.34
	FillingsUpdate:  mu: +0.115480311  nElectrons: 374.000000
	SubspaceRotationAdjust: set factor to 0.0408
ElecMinimize: Iter:  28  F: -2439.362957581257888  |grad|_K:  2.213e-06  alpha:  1.988e-01  linmin:  1.384e-05  t[s]:   5030.11
	FillingsUpdate:  mu: +0.115426949  nElectrons: 374.000000
	SubspaceRotationAdjust: set factor to 0.0412
ElecMinimize: Iter:  29  F: -2439.363037167901439  |grad|_K:  1.892e-06  alpha:  1.959e-01  linmin: -3.905e-05  t[s]:   5059.85
	FillingsUpdate:  mu: +0.115472691  nElectrons: 374.000000
	SubspaceRotationAdjust: set factor to 0.0504
ElecMinimize: Iter:  30  F: -2439.363116891520349  |grad|_K:  1.736e-06  alpha:  2.681e-01  linmin:  2.146e-06  t[s]:   5089.60
	FillingsUpdate:  mu: +0.115583826  nElectrons: 374.000000
	SubspaceRotationAdjust: set factor to 0.0533
ElecMinimize: Iter:  31  F: -2439.363185880406945  |grad|_K:  1.946e-06  alpha:  2.758e-01  linmin:  5.316e-06  t[s]:   5119.40
	FillingsUpdate:  mu: +0.115672428  nElectrons: 374.000000
	SubspaceRotationAdjust: set factor to 0.0463
ElecMinimize: Iter:  32  F: -2439.363238827948862  |grad|_K:  2.001e-06  alpha:  1.688e-01  linmin:  6.889e-06  t[s]:   5149.46
	FillingsUpdate:  mu: +0.115587663  nElectrons: 374.000000
	SubspaceRotationAdjust: set factor to 0.0448
ElecMinimize: Iter:  33  F: -2439.363308047404189  |grad|_K:  1.808e-06  alpha:  2.083e-01  linmin:  9.465e-07  t[s]:   5179.04
	FillingsUpdate:  mu: +0.115644964  nElectrons: 374.000000
	SubspaceRotationAdjust: set factor to 0.049
ElecMinimize: Iter:  34  F: -2439.363385855894194  |grad|_K:  1.728e-06  alpha:  2.865e-01  linmin: -2.811e-05  t[s]:   5208.72
	FillingsUpdate:  mu: +0.115761115  nElectrons: 374.000000
	SubspaceRotationAdjust: set factor to 0.0495
ElecMinimize: Iter:  35  F: -2439.363457622229362  |grad|_K:  1.789e-06  alpha:  2.888e-01  linmin: -1.984e-05  t[s]:   5238.70
	FillingsUpdate:  mu: +0.115800593  nElectrons: 374.000000
	SubspaceRotationAdjust: set factor to 0.0414
ElecMinimize: Iter:  36  F: -2439.363509757427437  |grad|_K:  1.830e-06  alpha:  1.957e-01  linmin:  6.523e-07  t[s]:   5268.39
	FillingsUpdate:  mu: +0.115774636  nElectrons: 374.000000
	SubspaceRotationAdjust: set factor to 0.0349
ElecMinimize: Iter:  37  F: -2439.363555725190054  |grad|_K:  1.450e-06  alpha:  1.655e-01  linmin: -2.281e-05  t[s]:   5298.12
	FillingsUpdate:  mu: +0.115795247  nElectrons: 374.000000
	SubspaceRotationAdjust: set factor to 0.0378
ElecMinimize: Iter:  38  F: -2439.363600121815125  |grad|_K:  1.224e-06  alpha:  2.539e-01  linmin: -7.113e-06  t[s]:   5328.01
	FillingsUpdate:  mu: +0.115833481  nElectrons: 374.000000
	SubspaceRotationAdjust: set factor to 0.0365
ElecMinimize: Iter:  39  F: -2439.363629435225448  |grad|_K:  1.123e-06  alpha:  2.355e-01  linmin:  8.765e-06  t[s]:   5357.90
	FillingsUpdate:  mu: +0.115863707  nElectrons: 374.000000
	SubspaceRotationAdjust: set factor to 0.032
ElecMinimize: Iter:  40  F: -2439.363649333760804  |grad|_K:  9.306e-07  alpha:  1.902e-01  linmin: -6.344e-06  t[s]:   5387.59
	FillingsUpdate:  mu: +0.115843448  nElectrons: 374.000000
	SubspaceRotationAdjust: set factor to 0.036
ElecMinimize: Iter:  41  F: -2439.363665810641578  |grad|_K:  7.391e-07  alpha:  2.291e-01  linmin:  4.350e-06  t[s]:   5417.81
	FillingsUpdate:  mu: +0.115840980  nElectrons: 374.000000
	SubspaceRotationAdjust: set factor to 0.0385
ElecMinimize: Iter:  42  F: -2439.363677586375161  |grad|_K:  6.926e-07  alpha:  2.597e-01  linmin:  2.755e-06  t[s]:   5447.66
	FillingsUpdate:  mu: +0.115855973  nElectrons: 374.000000
	SubspaceRotationAdjust: set factor to 0.0368
ElecMinimize: Iter:  43  F: -2439.363685672110933  |grad|_K:  6.150e-07  alpha:  2.031e-01  linmin: -3.915e-06  t[s]:   5477.51
	FillingsUpdate:  mu: +0.115830739  nElectrons: 374.000000
	SubspaceRotationAdjust: set factor to 0.0413
ElecMinimize: Iter:  44  F: -2439.363693049783251  |grad|_K:  5.411e-07  alpha:  2.350e-01  linmin:  7.657e-06  t[s]:   5507.34
	FillingsUpdate:  mu: +0.115813219  nElectrons: 374.000000
	SubspaceRotationAdjust: set factor to 0.0492
ElecMinimize: Iter:  45  F: -2439.363700011649144  |grad|_K:  5.227e-07  alpha:  2.866e-01  linmin:  3.322e-06  t[s]:   5537.13
	FillingsUpdate:  mu: +0.115817832  nElectrons: 374.000000
	SubspaceRotationAdjust: set factor to 0.0501
ElecMinimize: Iter:  46  F: -2439.363705753060003  |grad|_K:  5.970e-07  alpha:  2.532e-01  linmin: -4.194e-06  t[s]:   5566.87
	FillingsUpdate:  mu: +0.115776550  nElectrons: 374.000000
	SubspaceRotationAdjust: set factor to 0.0449
ElecMinimize: Iter:  47  F: -2439.363711176110883  |grad|_K:  5.854e-07  alpha:  1.831e-01  linmin:  2.438e-06  t[s]:   5596.53
	FillingsUpdate:  mu: +0.115756738  nElectrons: 374.000000
	SubspaceRotationAdjust: set factor to 0.0466
ElecMinimize: Iter:  48  F: -2439.363717806721525  |grad|_K:  5.407e-07  alpha:  2.331e-01  linmin: -9.789e-06  t[s]:   5626.24
	FillingsUpdate:  mu: +0.115721002  nElectrons: 374.000000
	SubspaceRotationAdjust: set factor to 0.0504
ElecMinimize: Iter:  49  F: -2439.363725292287199  |grad|_K:  5.491e-07  alpha:  3.082e-01  linmin:  6.616e-06  t[s]:   5655.85
	FillingsUpdate:  mu: +0.115680594  nElectrons: 374.000000
	SubspaceRotationAdjust: set factor to 0.0515
ElecMinimize: Iter:  50  F: -2439.363732282194178  |grad|_K:  5.531e-07  alpha:  2.794e-01  linmin:  5.770e-06  t[s]:   5685.47
	FillingsUpdate:  mu: +0.115676003  nElectrons: 374.000000
	SubspaceRotationAdjust: set factor to 0.0439
ElecMinimize: Iter:  51  F: -2439.363737516150650  |grad|_K:  5.862e-07  alpha:  2.064e-01  linmin: -2.533e-06  t[s]:   5715.15
	FillingsUpdate:  mu: +0.115633170  nElectrons: 374.000000
	SubspaceRotationAdjust: set factor to 0.0349
ElecMinimize: Iter:  52  F: -2439.363742020376776  |grad|_K:  4.715e-07  alpha:  1.577e-01  linmin:  5.979e-06  t[s]:   5744.74
	FillingsUpdate:  mu: +0.115616827  nElectrons: 374.000000
	SubspaceRotationAdjust: set factor to 0.0371
ElecMinimize: Iter:  53  F: -2439.363746310096758  |grad|_K:  3.893e-07  alpha:  2.326e-01  linmin: -2.585e-06  t[s]:   5774.69
	FillingsUpdate:  mu: +0.115612312  nElectrons: 374.000000
	SubspaceRotationAdjust: set factor to 0.0365
ElecMinimize: Iter:  54  F: -2439.363749290344458  |grad|_K:  3.450e-07  alpha:  2.368e-01  linmin: -2.648e-06  t[s]:   5804.26
	FillingsUpdate:  mu: +0.115592837  nElectrons: 374.000000
	SubspaceRotationAdjust: set factor to 0.0316
ElecMinimize: Iter:  55  F: -2439.363751150285225  |grad|_K:  2.886e-07  alpha:  1.881e-01  linmin:  3.292e-06  t[s]:   5833.93
	FillingsUpdate:  mu: +0.115586249  nElectrons: 374.000000
	SubspaceRotationAdjust: set factor to 0.0338
ElecMinimize: Iter:  56  F: -2439.363752652245239  |grad|_K:  2.233e-07  alpha:  2.172e-01  linmin: -8.166e-06  t[s]:   5863.75
	FillingsUpdate:  mu: +0.115584231  nElectrons: 374.000000
	SubspaceRotationAdjust: set factor to 0.0359
ElecMinimize: Iter:  57  F: -2439.363753649413866  |grad|_K:  1.966e-07  alpha:  2.408e-01  linmin: -3.375e-06  t[s]:   5893.82
	FillingsUpdate:  mu: +0.115577109  nElectrons: 374.000000
	SubspaceRotationAdjust: set factor to 0.0344
ElecMinimize: Iter:  58  F: -2439.363754304344639  |grad|_K:  1.673e-07  alpha:  2.039e-01  linmin:  7.402e-06  t[s]:   5923.83
	FillingsUpdate:  mu: +0.115577860  nElectrons: 374.000000
	SubspaceRotationAdjust: set factor to 0.0392
ElecMinimize: Iter:  59  F: -2439.363754814903132  |grad|_K:  1.373e-07  alpha:  2.199e-01  linmin: -1.418e-05  t[s]:   5953.65
	FillingsUpdate:  mu: +0.115578553  nElectrons: 374.000000
	SubspaceRotationAdjust: set factor to 0.0465
ElecMinimize: Iter:  60  F: -2439.363755229324397  |grad|_K:  1.282e-07  alpha:  2.644e-01  linmin:  1.820e-06  t[s]:   5983.61
	FillingsUpdate:  mu: +0.115576688  nElectrons: 374.000000
	SubspaceRotationAdjust: set factor to 0.0476
ElecMinimize: Iter:  61  F: -2439.363755527832382  |grad|_K:  1.323e-07  alpha:  2.189e-01  linmin: -5.918e-06  t[s]:   6013.36
ElecMinimize: Converged (|Delta F|<1.000000e-06 for 5 iters).
Setting wave functions to eigenvectors of Hamiltonian

# Ionic positions in lattice coordinates:
ion Co   0.000000242781533  -0.000000088436761   0.153649780555876 1
ion Co   0.499999927408349   0.000000209898877   0.150075967276468 1
ion Co  -0.000000007376513   0.499999976734511   0.150075909758367 1
ion Co   0.500000051189791   0.499999950065210   0.149508663606181 1
ion Co   0.250446120842007   0.250446334617123   0.051016485837580 1
ion Co   0.250446041364472   0.749553837920177   0.051016200600919 1
ion Co  -0.250446059798708   0.250446133899484   0.051016194214692 1
ion Co  -0.250445842437150   0.749553938859278   0.051016552384246 1
ion Co   0.000000000000000   0.000000000000000  -0.050000000000000 0
ion Co   0.500000000000000   0.000000000000000  -0.050000000000000 0
ion Co   0.000000000000000   0.500000000000000  -0.050000000000000 0
ion Co   0.500000000000000   0.500000000000000  -0.050000000000000 0
ion Co   0.250000000000000   0.250000000000000  -0.150000000000000 0
ion Co   0.250000000000000   0.750000000000000  -0.150000000000000 0
ion Co  -0.250000000000000   0.250000000000000  -0.150000000000000 0
ion Co  -0.250000000000000   0.750000000000000  -0.150000000000000 0
ion O   0.252703610275331   0.252704374557738   0.147097325112731 1
ion O   0.252705727748627   0.747294770952829   0.147095094336997 1
ion O  -0.252705395173891   0.252705089139203   0.147095632750611 1
ion O  -0.252705066492239   0.747295568228432   0.147097424256368 1
ion O   0.000001357164727   0.000003164959154   0.049496365342897 1
ion O   0.500000114348273   0.000000253986114   0.049335894035342 1
ion O   0.000000593921312   0.499999442183338   0.049336191835678 1
ion O   0.500000209450958   0.499999180698599   0.049759412345313 1
ion O   0.250000000000000   0.250000000000000  -0.050000000000000 0
ion O   0.250000000000000   0.750000000000000  -0.050000000000000 0
ion O  -0.250000000000000   0.250000000000000  -0.050000000000000 0
ion O  -0.250000000000000   0.750000000000000  -0.050000000000000 0
ion O   0.000000000000000   0.000000000000000  -0.150000000000000 0
ion O   0.500000000000000   0.000000000000000  -0.150000000000000 0
ion O   0.000000000000000   0.500000000000000  -0.150000000000000 0
ion O   0.500000000000000   0.500000000000000  -0.150000000000000 0
ion O   0.000000252780420  -0.000000326705218   0.229353093068264 1

# Forces in Lattice coordinates:
force Co  -0.000001725978464  -0.000011496488398  -0.485750115488825 1
force Co   0.000004110707538  -0.000008024946827  -0.028242716965019 1
force Co  -0.000005956021843   0.000007512879340  -0.028232095924552 1
force Co   0.000012131091474   0.000011538082802  -0.082947796928374 1
force Co   0.001783984637779   0.001787099432559   0.182278642842169 1
force Co   0.001774326823912  -0.001779412062155   0.182234721885217 1
force Co  -0.001781210102975   0.001779981485933   0.182235347994900 1
force Co  -0.001777435005387  -0.001783805996361   0.182316914072479 1
force Co   0.000002483317465   0.000001183385064  -0.490396000111138 0
force Co  -0.000001870029504   0.000001607383435  -0.298675226515920 0
force Co  -0.000000193049241  -0.000001963469259  -0.298643975939746 0
force Co   0.000000069725265   0.000000071405783  -0.338424213324772 0
force Co   0.005016626458778   0.005021179356712   0.100714930683584 0
force Co   0.005016982662610  -0.005019760704763   0.100687731641381 0
force Co  -0.005016886940096   0.005019766072688   0.100693803599343 0
force Co  -0.005016717511288  -0.005019921064885   0.100697019049813 0
force O   0.061644774867425   0.061640737193782  -0.626767134724645 1
force O   0.061622094313381  -0.061621448229502  -0.626890373968283 1
force O  -0.061611734899245   0.061615141833550  -0.626655505103930 1
force O  -0.061571497929567  -0.061593938484311  -0.626968306458199 1
force O   0.000087715153318   0.000117672539506  -0.194882882774120 1
force O   0.000013565237441   0.000025750971975  -0.335462481766913 1
force O   0.000001438718256  -0.000013599318966  -0.335143327595630 1
force O   0.000023590429891   0.000020171463716  -0.183791072610984 1
force O  -0.001336748426466  -0.001344650600687   0.176240910014633 0
force O  -0.001338603471988   0.001360455551550   0.176129602606760 0
force O   0.001337470699987  -0.001372561802044   0.176175529971919 0
force O   0.001348946829218   0.001365489057351   0.176052776017404 0
force O  -0.000001989956012   0.000002290820652   0.779777638779937 0
force O  -0.000003328770689   0.000000230696094   0.488015714229501 0
force O   0.000001476502920   0.000000470361803   0.488083845403905 0
force O   0.000003683238313   0.000003977630429   0.420371383434290 0
force O   0.000017902239451  -0.000007502662461   1.108592358458104 1

# Energy components:
   Eewald =     6602.6470664344233228
       EH =     8808.3442119377086783
     Eloc =   -17940.4763387474413321
      Enl =     -752.2674121396607916
   Epulay =        0.0001959371989449
      Exc =     -280.6938996179226251
       KE =     1123.0900658932755505
-------------------------------------
     Etot =    -2439.3561103024180738
       TS =        0.0076452254142234
-------------------------------------
        F =    -2439.3637555278323816

IonicMinimize: Iter:   2  F: -2439.363755527832382  |grad|_K:  6.864e-03  alpha:  5.086e-01  linmin: -4.648e-01  t[s]:   6022.51

#--- Lowdin population analysis ---
# oxidation-state Co +1.144 +0.930 +0.930 +0.933 +0.934 +0.934 +0.934 +0.934 +0.941 +0.930 +0.930 +0.926 +0.936 +0.936 +0.936 +0.936
# oxidation-state O -0.802 -0.802 -0.802 -0.802 -0.861 -0.818 -0.818 -0.815 -0.823 -0.823 -0.823 -0.823 -0.831 -0.836 -0.836 -0.838 -0.520


-------- Electronic minimization -----------
	FillingsUpdate:  mu: +0.113203944  nElectrons: 374.000000
ElecMinimize: Iter:   0  F: -2436.904288666635694  |grad|_K:  3.861e-04  alpha:  1.000e+00
	FillingsUpdate:  mu: +0.129991483  nElectrons: 374.000000
	SubspaceRotationAdjust: set factor to 0.0451
ElecMinimize: Iter:   1  F: -2439.075685185883231  |grad|_K:  1.200e-04  alpha:  2.042e-01  linmin:  1.843e-01  t[s]:   6072.89
	FillingsUpdate:  mu: +0.142998537  nElectrons: 374.000000
	SubspaceRotationAdjust: set factor to 0.0339
ElecMinimize: Iter:   2  F: -2439.268067863065880  |grad|_K:  5.817e-05  alpha:  1.867e-01  linmin: -3.619e-03  t[s]:   6102.78
	FillingsUpdate:  mu: +0.130022444  nElectrons: 374.000000
	SubspaceRotationAdjust: set factor to 0.018
ElecMinimize: Iter:   3  F: -2439.295127944115848  |grad|_K:  2.961e-05  alpha:  9.683e-02  linmin:  1.333e-03  t[s]:   6132.52
[...]
	FillingsUpdate:  mu: +0.117511425  nElectrons: 375.000000
	SubspaceRotationAdjust: set factor to 0.0251
ElecMinimize: Iter:   2  F: -2440.195595762785160  |grad|_K:  1.200e-05  alpha:  2.192e-01  linmin:  2.180e-04  t[s]: 148408.61
	FillingsUpdate:  mu: +0.118702023  nElectrons: 375.000000
	SubspaceRotationAdjust: set factor to 0.0156
ElecMinimize: Iter:   3  F: -2440.197903430683255  |grad|_K:  6.465e-06  alpha:  1.923e-01  linmin: -1.092e-04  t[s]: 148439.87
	FillingsUpdate:  mu: +0.116279310  nElectrons: 375.000000
	SubspaceRotationAdjust: set factor to 0.02
ElecMinimize: Iter:   4  F: -2440.198929219250203  |grad|_K:  4.450e-06  alpha:  2.942e-01  linmin: -9.400e-06  t[s]: 148471.38
	FillingsUpdate:  mu: +0.115690012  nElectrons: 375.000000
	SubspaceRotationAdjust: set factor to 0.0232
ElecMinimize: Iter:   5  F: -2440.199467116970936  |grad|_K:  3.441e-06  alpha:  3.258e-01  linmin: -1.279e-05  t[s]: 148502.96
	FillingsUpdate:  mu: +0.117404950  nElectrons: 375.000000
	SubspaceRotationAdjust: set factor to 0.025
ElecMinimize: Iter:   6  F: -2440.199937958636383  |grad|_K:  3.625e-06  alpha:  4.772e-01  linmin:  4.286e-05  t[s]: 148534.46
	FillingsUpdate:  mu: +0.116153671  nElectrons: 375.000000
	SubspaceRotationAdjust: set factor to 0.028
ElecMinimize: Iter:   7  F: -2440.200459206091637  |grad|_K:  4.255e-06  alpha:  4.763e-01  linmin: -2.572e-05  t[s]: 148565.86
	FillingsUpdate:  mu: +0.116079967  nElectrons: 375.000000
	SubspaceRotationAdjust: set factor to 0.0314
ElecMinimize: Iter:   8  F: -2440.201434310891273  |grad|_K:  5.550e-06  alpha:  6.447e-01  linmin: -1.919e-05  t[s]: 148597.12
	FillingsUpdate:  mu: +0.120322653  nElectrons: 375.000000
	SubspaceRotationAdjust: set factor to 0.03
ElecMinimize: Iter:   9  F: -2440.202772927646947  |grad|_K:  7.244e-06  alpha:  5.162e-01  linmin:  6.016e-05  t[s]: 148628.45
	FillingsUpdate:  mu: +0.115954056  nElectrons: 375.000000
	SubspaceRotationAdjust: set factor to 0.0245
ElecMinimize: Iter:  10  F: -2440.204373452986147  |grad|_K:  7.477e-06  alpha:  3.767e-01  linmin: -5.108e-05  t[s]: 148659.86
	FillingsUpdate:  mu: +0.117343540  nElectrons: 375.000000
	SubspaceRotationAdjust: set factor to 0.0231
ElecMinimize: Iter:  11  F: -2440.206350435687455  |grad|_K:  6.692e-06  alpha:  4.227e-01  linmin:  1.835e-04  t[s]: 148691.29
	FillingsUpdate:  mu: +0.118726095  nElectrons: 375.000000
	SubspaceRotationAdjust: set factor to 0.025
ElecMinimize: Iter:  12  F: -2440.207981061204464  |grad|_K:  5.702e-06  alpha:  4.496e-01  linmin:  6.455e-05  t[s]: 148722.67
	FillingsUpdate:  mu: +0.116037399  nElectrons: 375.000000
	SubspaceRotationAdjust: set factor to 0.0206
ElecMinimize: Iter:  13  F: -2440.208862227800182  |grad|_K:  4.307e-06  alpha:  3.306e-01  linmin: -3.578e-05  t[s]: 148753.93
	FillingsUpdate:  mu: +0.116997958  nElectrons: 375.000000
	SubspaceRotationAdjust: set factor to 0.018
ElecMinimize: Iter:  14  F: -2440.209381987290271  |grad|_K:  2.956e-06  alpha:  3.349e-01  linmin:  6.282e-05  t[s]: 148785.33
	FillingsUpdate:  mu: +0.116681144  nElectrons: 375.000000
	SubspaceRotationAdjust: set factor to 0.019
ElecMinimize: Iter:  15  F: -2440.209638529908261  |grad|_K:  2.047e-06  alpha:  3.536e-01  linmin: -8.166e-06  t[s]: 148816.69
	FillingsUpdate:  mu: +0.116296347  nElectrons: 375.000000
	SubspaceRotationAdjust: set factor to 0.0184
ElecMinimize: Iter:  16  F: -2440.209755963120642  |grad|_K:  1.433e-06  alpha:  3.358e-01  linmin: -9.559e-06  t[s]: 148847.97
	FillingsUpdate:  mu: +0.116532871  nElectrons: 375.000000
	SubspaceRotationAdjust: set factor to 0.0182
ElecMinimize: Iter:  17  F: -2440.209814589485632  |grad|_K:  1.022e-06  alpha:  3.421e-01  linmin:  7.982e-06  t[s]: 148879.37
	FillingsUpdate:  mu: +0.116512965  nElectrons: 375.000000
	SubspaceRotationAdjust: set factor to 0.0193
ElecMinimize: Iter:  18  F: -2440.209843043640376  |grad|_K:  7.343e-07  alpha:  3.268e-01  linmin:  9.777e-08  t[s]: 148910.83
	FillingsUpdate:  mu: +0.116402971  nElectrons: 375.000000
	SubspaceRotationAdjust: set factor to 0.0201
ElecMinimize: Iter:  19  F: -2440.209857394087521  |grad|_K:  5.491e-07  alpha:  3.192e-01  linmin: -7.721e-07  t[s]: 148942.08
	FillingsUpdate:  mu: +0.116446112  nElectrons: 375.000000
	SubspaceRotationAdjust: set factor to 0.022
ElecMinimize: Iter:  20  F: -2440.209865460988567  |grad|_K:  4.197e-07  alpha:  3.209e-01  linmin:  6.694e-06  t[s]: 148973.28
	FillingsUpdate:  mu: +0.116460082  nElectrons: 375.000000
	SubspaceRotationAdjust: set factor to 0.0252
ElecMinimize: Iter:  21  F: -2440.209870546711045  |grad|_K:  3.346e-07  alpha:  3.464e-01  linmin:  2.106e-07  t[s]: 149004.63
	FillingsUpdate:  mu: +0.116392406  nElectrons: 375.000000
	SubspaceRotationAdjust: set factor to 0.029
ElecMinimize: Iter:  22  F: -2440.209874011550710  |grad|_K:  2.901e-07  alpha:  3.713e-01  linmin:  7.007e-07  t[s]: 149035.80
	FillingsUpdate:  mu: +0.116434983  nElectrons: 375.000000
	SubspaceRotationAdjust: set factor to 0.0338
ElecMinimize: Iter:  23  F: -2440.209876945950327  |grad|_K:  2.715e-07  alpha:  4.180e-01  linmin:  1.961e-07  t[s]: 149067.44
	FillingsUpdate:  mu: +0.116376200  nElectrons: 375.000000
	SubspaceRotationAdjust: set factor to 0.039
ElecMinimize: Iter:  24  F: -2440.209879818330592  |grad|_K:  2.856e-07  alpha:  4.673e-01  linmin: -2.864e-06  t[s]: 149098.73
	FillingsUpdate:  mu: +0.116417976  nElectrons: 375.000000
	SubspaceRotationAdjust: set factor to 0.0438
ElecMinimize: Iter:  25  F: -2440.209882967494195  |grad|_K:  3.129e-07  alpha:  4.628e-01  linmin:  3.929e-07  t[s]: 149129.88
	FillingsUpdate:  mu: +0.116323139  nElectrons: 375.000000
	SubspaceRotationAdjust: set factor to 0.0457
ElecMinimize: Iter:  26  F: -2440.209886676494079  |grad|_K:  3.594e-07  alpha:  4.545e-01  linmin: -1.802e-06  t[s]: 149161.18
	FillingsUpdate:  mu: +0.116465080  nElectrons: 375.000000
	SubspaceRotationAdjust: set factor to 0.0408
ElecMinimize: Iter:  27  F: -2440.209890308735794  |grad|_K:  4.148e-07  alpha:  3.371e-01  linmin:  1.351e-06  t[s]: 149192.40
	FillingsUpdate:  mu: +0.116285203  nElectrons: 375.000000
	SubspaceRotationAdjust: set factor to 0.0324
ElecMinimize: Iter:  28  F: -2440.209894122762762  |grad|_K:  3.977e-07  alpha:  2.660e-01  linmin: -2.406e-06  t[s]: 149223.53
	FillingsUpdate:  mu: +0.116371186  nElectrons: 375.000000
	SubspaceRotationAdjust: set factor to 0.0319
ElecMinimize: Iter:  29  F: -2440.209898629828331  |grad|_K:  3.607e-07  alpha:  3.417e-01  linmin:  4.885e-06  t[s]: 149255.09
	FillingsUpdate:  mu: +0.116371528  nElectrons: 375.000000
	SubspaceRotationAdjust: set factor to 0.0345
ElecMinimize: Iter:  30  F: -2440.209902886571854  |grad|_K:  3.307e-07  alpha:  3.928e-01  linmin:  7.649e-07  t[s]: 149286.54
	FillingsUpdate:  mu: +0.116283582  nElectrons: 375.000000
	SubspaceRotationAdjust: set factor to 0.0332
ElecMinimize: Iter:  31  F: -2440.209906003205560  |grad|_K:  2.983e-07  alpha:  3.419e-01  linmin: -2.141e-06  t[s]: 149317.99
	FillingsUpdate:  mu: +0.116396126  nElectrons: 375.000000
	SubspaceRotationAdjust: set factor to 0.0282
ElecMinimize: Iter:  32  F: -2440.209908170043491  |grad|_K:  2.551e-07  alpha:  2.919e-01  linmin:  3.245e-06  t[s]: 149349.17
	FillingsUpdate:  mu: +0.116328260  nElectrons: 375.000000
	SubspaceRotationAdjust: set factor to 0.0274
ElecMinimize: Iter:  33  F: -2440.209909773020627  |grad|_K:  1.975e-07  alpha:  2.956e-01  linmin: -1.857e-06  t[s]: 149380.45
	FillingsUpdate:  mu: +0.116336201  nElectrons: 375.000000
	SubspaceRotationAdjust: set factor to 0.0316
ElecMinimize: Iter:  34  F: -2440.209910858091007  |grad|_K:  1.604e-07  alpha:  3.335e-01  linmin: -1.237e-07  t[s]: 149411.55
	FillingsUpdate:  mu: +0.116376562  nElectrons: 375.000000
	SubspaceRotationAdjust: set factor to 0.0332
ElecMinimize: Iter:  35  F: -2440.209911506929529  |grad|_K:  1.343e-07  alpha:  3.024e-01  linmin: -1.386e-06  t[s]: 149442.95
	FillingsUpdate:  mu: +0.116337051  nElectrons: 375.000000
	SubspaceRotationAdjust: set factor to 0.0335
ElecMinimize: Iter:  36  F: -2440.209911971739530  |grad|_K:  1.135e-07  alpha:  3.093e-01  linmin:  3.270e-06  t[s]: 149474.58
	FillingsUpdate:  mu: +0.116370859  nElectrons: 375.000000
	SubspaceRotationAdjust: set factor to 0.0372
ElecMinimize: Iter:  37  F: -2440.209912330578845  |grad|_K:  1.008e-07  alpha:  3.343e-01  linmin: -4.790e-06  t[s]: 149505.88
	FillingsUpdate:  mu: +0.116366351  nElectrons: 375.000000
	SubspaceRotationAdjust: set factor to 0.0454
ElecMinimize: Iter:  38  F: -2440.209912626349251  |grad|_K:  9.279e-08  alpha:  3.490e-01  linmin:  6.870e-06  t[s]: 149537.05
	FillingsUpdate:  mu: +0.116361205  nElectrons: 375.000000
	SubspaceRotationAdjust: set factor to 0.0541
ElecMinimize: Iter:  39  F: -2440.209912892538341  |grad|_K:  9.247e-08  alpha:  3.715e-01  linmin:  2.406e-05  t[s]: 149568.13
ElecMinimize: Converged (|Delta F|<1.000000e-06 for 5 iters).
Setting wave functions to eigenvectors of Hamiltonian

# Ionic positions in lattice coordinates:
ion Co  -0.029394819053445   0.240895627860972   0.166730990305209 1
ion Co   0.470608970784589   0.033755306371362   0.160103978451547 1
ion Co  -0.064590066057490   0.781771292282529   0.158822573114399 1
ion Co   0.459554787165449   0.544498459349671   0.164315343117715 1
ion Co   0.257957150159331   0.258632460064292   0.048033136973414 1
ion Co   0.254883072026954   0.755310647478440   0.050045512544265 1
ion Co  -0.225942756333575   0.457008371951518   0.092859967785833 1
ion Co  -0.223953438874958   1.026027297235737   0.083147995116381 1
ion Co   0.000000000000000   0.000000000000000  -0.050000000000000 0
ion Co   0.500000000000000   0.000000000000000  -0.050000000000000 0
ion Co   0.000000000000000   0.500000000000000  -0.050000000000000 0
ion Co   0.500000000000000   0.500000000000000  -0.050000000000000 0
ion Co   0.250000000000000   0.250000000000000  -0.150000000000000 0
ion Co   0.250000000000000   0.750000000000000  -0.150000000000000 0
ion Co  -0.250000000000000   0.250000000000000  -0.150000000000000 0
ion Co  -0.250000000000000   0.750000000000000  -0.150000000000000 0
ion O   0.269022422857677   0.272180357057665   0.139575195432459 1
ion O   0.252455185420481   0.777997317034162   0.142835277890935 1
ion O  -0.337668511796434   0.293716410993844   0.168866120738288 1
ion O  -0.350716554906716   0.787717456082381   0.184345740037019 1
ion O   0.042246439503075   0.007002435188814   0.038277060594646 1
ion O   0.483417619023148   0.006260536815370   0.038918874762207 1
ion O   0.030073908051037   0.503395544102998   0.040456561188043 1
ion O   0.477546221573825   0.498019681851113   0.039785088830019 1
ion O   0.250000000000000   0.250000000000000  -0.050000000000000 0
ion O   0.250000000000000   0.750000000000000  -0.050000000000000 0
ion O  -0.250000000000000   0.250000000000000  -0.050000000000000 0
ion O  -0.250000000000000   0.750000000000000  -0.050000000000000 0
ion O   0.000000000000000   0.000000000000000  -0.150000000000000 0
ion O   0.500000000000000   0.000000000000000  -0.150000000000000 0
ion O   0.000000000000000   0.500000000000000  -0.150000000000000 0
ion O   0.500000000000000   0.500000000000000  -0.150000000000000 0
ion O   0.040284280420030   0.187409628413049   0.248867283401419 1
ion H   0.200488347909751   0.183904108598132   0.256367403792871 1

# Forces in Lattice coordinates:
force Co   0.001767359214273   0.002028126132672  -0.038973831666741 1
force Co   0.003185484916024  -0.007873262713710  -0.008762089522342 1
force Co  -0.001916195171267   0.000720749214528  -0.020002480877644 1
force Co  -0.003974637142393  -0.003655128036275   0.006382162812928 1
force Co  -0.004034883080857  -0.000434762786844  -0.022027385399964 1
force Co  -0.002678773654640  -0.006057041407417  -0.039483108433514 1
force Co  -0.003579230495735  -0.000687498314449  -0.001083568420988 1
force Co  -0.003528917173054   0.005376595358282  -0.026897174607698 1
force Co  -0.090846283726592   0.005545672907537  -0.181561218115287 0
force Co   0.156798559813240   0.011179588170505  -0.150233954356560 0
force Co  -0.140242735551780   0.012764930876008   0.066748813568546 0
force Co   0.159320826946445   0.004444086677400   0.040379815350601 0
force Co   0.002000416573499  -0.003479991286182   0.024975612274863 0
force Co  -0.001097267582534  -0.000919432970451   0.026568701865214 0
force Co  -0.007858943222844  -0.000853129409705   0.637690682195346 0
force Co  -0.002485278260675   0.001114882160469   0.686650304572266 0
force O  -0.011406243515930   0.002142545389773  -0.035818760340593 1
force O  -0.000114675643673   0.005898292996619  -0.010720514884175 1
force O   0.000346032459365   0.002955101668511  -0.012544816606699 1
force O   0.006909650007415   0.004114680129609  -0.042106111551828 1
force O  -0.010778134281438  -0.002731258886667   0.005032967542065 1
force O  -0.006037583793395   0.006192734734722  -0.026152587455098 1
force O  -0.006131467084138  -0.003958127121366  -0.020815980061160 1
force O  -0.013519638193038   0.003523214934966  -0.041188251731378 1
force O   0.008498443137200   0.012229157630980  -0.310686006755565 0
force O   0.017801880473261  -0.008459605639541  -0.188533268151204 0
force O   0.005244533848326   0.010908246181767  -1.057760129752264 0
force O   0.003171714154995  -0.008147669739313  -1.142014303854753 0
force O  -0.009274998797731  -0.001411568173556   0.441958583516751 0
force O  -0.002992525271866  -0.003969821444176   0.428726649039817 0
force O  -0.003147295168158   0.001006896764588   0.507677534433888 0
force O   0.001606661173787   0.003314090930303   0.462244585552263 0
force O   0.010852147003028   0.001975171931026   0.009276896504685 1
force H  -0.015749572147728   0.004199623542000   0.007748624922952 1

# Energy components:
   Eewald =     6111.8280580593082050
       EH =     8317.6411663577873696
     Eloc =   -16959.8937028095933783
      Enl =     -750.6245329921234770
   Epulay =        0.0001960516836434
      Exc =     -280.8623730419280946
       KE =     1121.7071832492681551
-------------------------------------
     Etot =    -2440.2040051255980870
       TS =        0.0059077669403183
-------------------------------------
        F =    -2440.2099128925383411

IonicMinimize: Iter:  77  F: -2440.209912892538341  |grad|_K:  5.628e-04  alpha:  1.000e+00  linmin: -2.232e-02  t[s]: 149577.55

#--- Lowdin population analysis ---
# oxidation-state Co +0.839 +0.905 +0.679 +0.925 +1.091 +1.066 +0.703 +0.688 +0.999 +1.004 +1.001 +1.007 +0.924 +0.920 +0.944 +0.945
# oxidation-state O -0.767 -0.800 -0.742 -0.724 -0.733 -0.770 -0.747 -0.771 -0.820 -0.818 -0.776 -0.769 -0.856 -0.857 -0.853 -0.857 -0.732
# oxidation-state H +0.382


-------- Electronic minimization -----------
	FillingsUpdate:  mu: +0.109619768  nElectrons: 375.000000
ElecMinimize: Iter:   0  F: -2439.444939632436217  |grad|_K:  2.148e-04  alpha:  1.000e+00
	FillingsUpdate:  mu: +0.133215457  nElectrons: 375.000000
	SubspaceRotationAdjust: set factor to 0.0492
ElecMinimize: Iter:   1  F: -2440.138471128067522  |grad|_K:  4.616e-05  alpha:  1.853e-01  linmin:  4.556e-02  t[s]: 149630.55
	FillingsUpdate:  mu: +0.126404812  nElectrons: 375.000000
	SubspaceRotationAdjust: set factor to 0.0299
ElecMinimize: Iter:   2  F: -2440.162575986494176  |grad|_K:  3.195e-05  alpha:  1.389e-01  linmin:  3.215e-04  t[s]: 149662.12
	FillingsUpdate:  mu: +0.115414623  nElectrons: 375.000000
	SubspaceRotationAdjust: set factor to 0.0267
ElecMinimize: Iter:   3  F: -2440.175296143208016  |grad|_K:  1.361e-05  alpha:  1.496e-01  linmin: -3.116e-04  t[s]: 149693.47
	FillingsUpdate:  mu: +0.119887772  nElectrons: 375.000000
	SubspaceRotationAdjust: set factor to 0.0331
ElecMinimize: Iter:   4  F: -2440.179504166863808  |grad|_K:  9.199e-06  alpha:  2.721e-01  linmin:  5.411e-06  t[s]: 149724.77
	FillingsUpdate:  mu: +0.116084693  nElectrons: 375.000000
	SubspaceRotationAdjust: set factor to 0.0288
ElecMinimize: Iter:   5  F: -2440.181531238491061  |grad|_K:  7.838e-06  alpha:  2.873e-01  linmin:  4.698e-06  t[s]: 149755.87
	FillingsUpdate:  mu: +0.117385651  nElectrons: 375.000000
	SubspaceRotationAdjust: set factor to 0.0309
ElecMinimize: Iter:   6  F: -2440.183084726331799  |grad|_K:  6.878e-06  alpha:  3.033e-01  linmin:  3.324e-05  t[s]: 149787.20
	FillingsUpdate:  mu: +0.117811819  nElectrons: 375.000000
	SubspaceRotationAdjust: set factor to 0.039
ElecMinimize: Iter:   7  F: -2440.185175215588970  |grad|_K:  7.423e-06  alpha:  5.306e-01  linmin:  4.142e-06  t[s]: 149818.51
	FillingsUpdate:  mu: +0.118762004  nElectrons: 375.000000
	SubspaceRotationAdjust: set factor to 0.0317
ElecMinimize: Iter:   8  F: -2440.187512996647001  |grad|_K:  1.110e-05  alpha:  5.094e-01  linmin: -1.179e-04  t[s]: 149849.69
	FillingsUpdate:  mu: +0.120602713  nElectrons: 375.000000
	SubspaceRotationAdjust: set factor to 0.0241
ElecMinimize: Iter:   9  F: -2440.190413394807820  |grad|_K:  1.043e-05  alpha:  2.701e-01  linmin: -1.399e-04  t[s]: 149881.16
	FillingsUpdate:  mu: +0.120962468  nElectrons: 375.000000
	SubspaceRotationAdjust: set factor to 0.0291
ElecMinimize: Iter:  10  F: -2440.195305934416410  |grad|_K:  1.214e-05  alpha:  5.308e-01  linmin:  1.556e-05  t[s]: 149912.40
	FillingsUpdate:  mu: +0.117375658  nElectrons: 375.000000
	SubspaceRotationAdjust: set factor to 0.025
ElecMinimize: Iter:  11  F: -2440.200259261634528  |grad|_K:  1.180e-05  alpha:  4.149e-01  linmin: -1.518e-04  t[s]: 149943.66
	FillingsUpdate:  mu: +0.121168937  nElectrons: 375.000000
	SubspaceRotationAdjust: set factor to 0.0187
ElecMinimize: Iter:  12  F: -2440.203990723943662  |grad|_K:  9.662e-06  alpha:  3.074e-01  linmin:  8.054e-05  t[s]: 149975.16
	FillingsUpdate:  mu: +0.117361228  nElectrons: 375.000000
	SubspaceRotationAdjust: set factor to 0.021
ElecMinimize: Iter:  13  F: -2440.207060642015222  |grad|_K:  7.435e-06  alpha:  3.964e-01  linmin: -1.493e-04  t[s]: 150006.56
	FillingsUpdate:  mu: +0.115923342  nElectrons: 375.000000
	SubspaceRotationAdjust: set factor to 0.0202
ElecMinimize: Iter:  14  F: -2440.208475998254471  |grad|_K:  5.544e-06  alpha:  3.031e-01  linmin: -2.299e-05  t[s]: 150038.00
	FillingsUpdate:  mu: +0.116940394  nElectrons: 375.000000
	SubspaceRotationAdjust: set factor to 0.0193
ElecMinimize: Iter:  15  F: -2440.209316238710016  |grad|_K:  3.787e-06  alpha:  3.274e-01  linmin:  4.628e-05  t[s]: 150069.30
	FillingsUpdate:  mu: +0.116861908  nElectrons: 375.000000
	SubspaceRotationAdjust: set factor to 0.0201
ElecMinimize: Iter:  16  F: -2440.209705323306480  |grad|_K:  2.637e-06  alpha:  3.262e-01  linmin: -1.456e-06  t[s]: 150100.43
	FillingsUpdate:  mu: +0.116453193  nElectrons: 375.000000
	SubspaceRotationAdjust: set factor to 0.0198
ElecMinimize: Iter:  17  F: -2440.209891993492874  |grad|_K:  1.835e-06  alpha:  3.219e-01  linmin: -7.963e-06  t[s]: 150131.66
	FillingsUpdate:  mu: +0.116675721  nElectrons: 375.000000
	SubspaceRotationAdjust: set factor to 0.02
ElecMinimize: Iter:  18  F: -2440.209985517440145  |grad|_K:  1.321e-06  alpha:  3.331e-01  linmin:  5.344e-06  t[s]: 150162.82
	FillingsUpdate:  mu: +0.116675225  nElectrons: 375.000000
	SubspaceRotationAdjust: set factor to 0.021
ElecMinimize: Iter:  19  F: -2440.210032174093158  |grad|_K:  9.282e-07  alpha:  3.206e-01  linmin: -1.642e-07  t[s]: 150194.15
	FillingsUpdate:  mu: +0.116578429  nElectrons: 375.000000
	SubspaceRotationAdjust: set factor to 0.0218
ElecMinimize: Iter:  20  F: -2440.210055898190603  |grad|_K:  6.912e-07  alpha:  3.302e-01  linmin: -2.544e-06  t[s]: 150225.35
	FillingsUpdate:  mu: +0.116668517  nElectrons: 375.000000
	SubspaceRotationAdjust: set factor to 0.0231
ElecMinimize: Iter:  21  F: -2440.210069530455712  |grad|_K:  5.139e-07  alpha:  3.422e-01  linmin:  3.325e-06  t[s]: 150256.52
mpirun: Forwarding signal 18 to job
slurmstepd-node3221: error: *** JOB 43664 ON node3221 CANCELLED AT 2025-05-01T22:41:47 ***
