
*************** JDFTx 1.7.0  ***************

Start date and time: Fri Mar 28 13:56:47 2025
Executable /data2/jt577/jdftx_eat_withLibXC/build/jdftx with command-line: -i /data2/jt577/March_2025/pure_RSO/ionic_relax_magnetism/pure_CoO/runs/calc_20250328-135646/O/O.in
Running on hosts (process indices):  node3401 (0-8)
Divided in process groups (process indices):  0 (0)  1 (1)  2 (2)  3 (3)  4 (4)  5 (5)  6 (6)  7 (7)  8 (8)
Resource initialization completed at t[s]:      0.00
Run totals: 9 processes, 90 threads, 0 GPUs


Input parsed successfully to the following command list (including defaults):

add-mix 
add-U 	Co d 0.2
basis kpoint-dependent
coords-type Lattice
core-overlap-check vector
coulomb-interaction Periodic
davidson-band-ratio 1.1
dump End IonicPositions Lattice Ecomponents
dump-name O.$VAR
elec-cutoff 30
elec-eigen-algo Davidson
elec-ex-corr gga-x-rpbe gga-c-pbe
elec-smearing Fermi 0.001
electronic-minimize  \
	dirUpdateScheme      FletcherReeves \
	linminMethod         DirUpdateRecommended \
	nIterations          1000 \
	history              15 \
	knormThreshold       0 \
	energyDiffThreshold  1e-06 \
	nEnergyDiff          5 \
	alphaTstart          1 \
	alphaTmin            1e-10 \
	updateTestStepSize   yes \
	alphaTreduceFactor   0.1 \
	alphaTincreaseFactor 3 \
	nAlphaAdjustMax      3 \
	wolfeEnergy          0.0001 \
	wolfeGradient        0.9 \
	fdTest               no
exchange-regularization WignerSeitzTruncated
fluid None
fluid-ex-corr (null) lda-PZ
fluid-gummel-loop 10 1.000000e-05
fluid-minimize  \
	dirUpdateScheme      PolakRibiere \
	linminMethod         DirUpdateRecommended \
	nIterations          100 \
	history              15 \
	knormThreshold       0 \
	energyDiffThreshold  0 \
	nEnergyDiff          2 \
	alphaTstart          1 \
	alphaTmin            1e-10 \
	updateTestStepSize   yes \
	alphaTreduceFactor   0.1 \
	alphaTincreaseFactor 3 \
	nAlphaAdjustMax      3 \
	wolfeEnergy          0.0001 \
	wolfeGradient        0.9 \
	fdTest               no
fluid-solvent H2O 55.338 ScalarEOS \
	epsBulk 78.4 \
	pMol 0.92466 \
	epsInf 1.77 \
	Pvap 1.06736e-10 \
	sigmaBulk 4.62e-05 \
	Rvdw 2.61727 \
	Res 1.42 \
	tauNuc 343133 \
	poleEl 15 7 1
forces-output-coords Positions
initial-magnetic-moments  \
	Co 1 -1 1 -1 1 1 -1 -1 -1 1 -1 1 -1 -1 1 1
initial-state O.$VAR
ion Co  0.000000000000000   0.000000000000000   0.150000000000000 1
ion Co  0.500000000000000   0.000000000000000   0.150000000000000 1
ion Co  0.000000000000000   0.500000000000000   0.150000000000000 1
ion Co  0.500000000000000   0.500000000000000   0.150000000000000 1
ion Co  0.250000000000000   0.250000000000000   0.050000000000000 1
ion Co  0.250000000000000   0.750000000000000   0.050000000000000 1
ion Co -0.250000000000000   0.250000000000000   0.050000000000000 1
ion Co -0.250000000000000   0.750000000000000   0.050000000000000 1
ion Co  0.000000000000000   0.000000000000000  -0.050000000000000 0
ion Co  0.500000000000000   0.000000000000000  -0.050000000000000 0
ion Co  0.000000000000000   0.500000000000000  -0.050000000000000 0
ion Co  0.500000000000000   0.500000000000000  -0.050000000000000 0
ion Co  0.250000000000000   0.250000000000000  -0.150000000000000 0
ion Co  0.250000000000000   0.750000000000000  -0.150000000000000 0
ion Co -0.250000000000000   0.250000000000000  -0.150000000000000 0
ion Co -0.250000000000000   0.750000000000000  -0.150000000000000 0
ion O  0.250000000000000   0.250000000000000   0.150000000000000 1
ion O  0.250000000000000   0.750000000000000   0.150000000000000 1
ion O -0.250000000000000   0.250000000000000   0.150000000000000 1
ion O -0.250000000000000   0.750000000000000   0.150000000000000 1
ion O  0.000000000000000   0.000000000000000   0.050000000000000 1
ion O  0.500000000000000   0.000000000000000   0.050000000000000 1
ion O  0.000000000000000   0.500000000000000   0.050000000000000 1
ion O  0.500000000000000   0.500000000000000   0.050000000000000 1
ion O  0.250000000000000   0.250000000000000  -0.050000000000000 0
ion O  0.250000000000000   0.750000000000000  -0.050000000000000 0
ion O -0.250000000000000   0.250000000000000  -0.050000000000000 0
ion O -0.250000000000000   0.750000000000000  -0.050000000000000 0
ion O  0.000000000000000   0.000000000000000  -0.150000000000000 0
ion O  0.500000000000000   0.000000000000000  -0.150000000000000 0
ion O  0.000000000000000   0.500000000000000  -0.150000000000000 0
ion O  0.500000000000000   0.500000000000000  -0.150000000000000 0
ion O  0.000000000000000   0.000000000000000   0.230000000000000 1
ion-species SG15/$ID_ONCV_PBE.upf
ion-width 0
ionic-minimize  \
	dirUpdateScheme      L-BFGS \
	linminMethod         DirUpdateRecommended \
	nIterations          1000 \
	history              15 \
	knormThreshold       0.0001 \
	energyDiffThreshold  0.0001 \
	nEnergyDiff          3 \
	alphaTstart          1 \
	alphaTmin            1e-10 \
	updateTestStepSize   yes \
	alphaTreduceFactor   0.1 \
	alphaTincreaseFactor 3 \
	nAlphaAdjustMax      3 \
	wolfeEnergy          0.0001 \
	wolfeGradient        0.9 \
	fdTest               no
kpoint   0.500000000000   0.500000000000   0.500000000000  1.00000000000000
kpoint-folding 3 3 1 
latt-move-scale 1 1 1
latt-scale 1 1 1 
lattice  \
	   8.010000000000000    8.010000000000000    0.000000000000000  \
	   8.010000000000000   -8.010000000000000    0.000000000000000  \
	   0.000000000000000    0.000000000000000   40.049999999999997 
lattice-minimize  \
	dirUpdateScheme      L-BFGS \
	linminMethod         DirUpdateRecommended \
	nIterations          0 \
	history              15 \
	knormThreshold       0 \
	energyDiffThreshold  1e-06 \
	nEnergyDiff          2 \
	alphaTstart          1 \
	alphaTmin            1e-10 \
	updateTestStepSize   yes \
	alphaTreduceFactor   0.1 \
	alphaTincreaseFactor 3 \
	nAlphaAdjustMax      3 \
	wolfeEnergy          0.0001 \
	wolfeGradient        0.9 \
	fdTest               no
lcao-params -1 1e-06 0.001
pcm-variant GLSSA13
spintype z-spin
subspace-rotation-factor 1 yes
symmetries none
symmetry-threshold 0.0001


Applied RMS atom displacement 0 bohrs to make symmetries exact.

---------- Initializing the Grid ----------
R = 
[         8.01         8.01            0  ]
[         8.01        -8.01            0  ]
[            0            0        40.05  ]
unit cell volume = 5139.22
G =
[   0.392209   0.392209         -0  ]
[   0.392209  -0.392209         -0  ]
[         -0         -0   0.156884  ]
Minimum fftbox size, Smin = [  56  56  200  ]
Chosen fftbox size, S = [  56  56  200  ]

---------- Exchange Correlation functional ----------
Initialized LibXC exchange functional 'Hammer, Hansen, and Norskov'
Initialized LibXC correlation functional 'Perdew, Burke & Ernzerhof'

---------- Setting up pseudopotentials ----------
Width of ionic core gaussian charges (only for fluid interactions / plotting) set to 0

Reading pseudopotential file '/data2/jt577/jdftx_eat_withLibXC/build/pseudopotentials/SG15/Co_ONCV_PBE.upf':
  'Co' pseudopotential, 'PBE' functional
  Generated using ONCVPSP code by D. R. Hamann
  Author: Martin Schlipf and Francois Gygi  Date: 150915.
  17 valence electrons, 4 orbitals, 6 projectors, 1388 radial grid points, with lMax = 2
  Transforming local potential to a uniform radial grid of dG=0.02 with 1355 points.
  Transforming nonlocal projectors to a uniform radial grid of dG=0.02 with 528 points.
    3S    l: 0   occupation:  2.0   eigenvalue: -3.763303
    3P    l: 1   occupation:  6.0   eigenvalue: -2.412101
    4S    l: 0   occupation:  2.0   eigenvalue: -0.201022
    3D    l: 2   occupation:  7.0   eigenvalue: -0.301498
  Transforming atomic orbitals to a uniform radial grid of dG=0.02 with 528 points.
  Core radius for overlap checks: 1.94 bohrs.
  Reading pulay file /data2/jt577/jdftx_eat_withLibXC/build/pseudopotentials/SG15/Co_ONCV_PBE.pulay ... using dE_dnG = -9.787391e-05 computed for Ecut = 30.

Reading pseudopotential file '/data2/jt577/jdftx_eat_withLibXC/build/pseudopotentials/SG15/O_ONCV_PBE.upf':
  'O' pseudopotential, 'PBE' functional
  Generated using ONCVPSP code by D. R. Hamann
  Author: Martin Schlipf and Francois Gygi  Date: 150915.
  6 valence electrons, 2 orbitals, 4 projectors, 936 radial grid points, with lMax = 1
  Transforming local potential to a uniform radial grid of dG=0.02 with 1355 points.
  Transforming nonlocal projectors to a uniform radial grid of dG=0.02 with 528 points.
    2S    l: 0   occupation:  2.0   eigenvalue: -0.880572
    2P    l: 1   occupation:  4.0   eigenvalue: -0.331869
  Transforming atomic orbitals to a uniform radial grid of dG=0.02 with 528 points.
  Core radius for overlap checks: 1.29 bohrs.
  Reading pulay file /data2/jt577/jdftx_eat_withLibXC/build/pseudopotentials/SG15/O_ONCV_PBE.pulay ... using dE_dnG = -8.209514e-03 computed for Ecut = 30.

Initialized 2 species with 33 total atoms.

Folded 1 k-points by 3x3x1 to 9 k-points.

---------- Setting up k-points, bands, fillings ----------
No reducable k-points. 
Computing the number of bands and number of electrons
Calculating initial fillings.
nElectrons: 374.000000   nBands: 228   nStates: 18

----- Setting up reduced wavefunction bases (one per k-point) -----
average nbasis = 40341.333 , ideal nbasis = 40334.198

---------- Setting up ewald sum ----------
Optimum gaussian width for ewald sums = 3.844061 bohr.
Real space sum over 605 unit cells with max indices [  5  5  2  ]
Reciprocal space sum over 5915 terms with max indices [  6  6  17  ]

---------- Allocating electronic variables ----------
Initializing wave functions:  linear combination of atomic orbitals
Co (M=1) pseudo-atom majority spin occupations:   s ( 1 0 )  p ( 3 )  d ( 5 )
Co (M=1) pseudo-atom minority spin occupations:   s ( 1 0 )  p ( 3 )  d ( 4 )
O pseudo-atom occupations:   s ( 2 )  p ( 4 )
	FillingsUpdate:  mu: -0.170844448  nElectrons: 374.000000  magneticMoment: [ Abs: 37.86374  Tot: -0.00000 ]
LCAOMinimize: Iter:   0  F: -2403.1937749595499554  |grad|_K:  2.371e-02  alpha:  1.000e+00
LCAOMinimize: 	Step increased F by 1.734125e+02, reducing alpha to 3.954589e-02.
LCAOMinimize: 	Step increased F by 9.274891e+00, reducing alpha to 3.954589e-03.
	FillingsUpdate:  mu: -0.024720688  nElectrons: 374.000000  magneticMoment: [ Abs: 39.05465  Tot: +0.00000 ]
LCAOMinimize: Iter:   1  F: -2404.8620436642954701  |grad|_K:  1.476e-02  alpha:  3.955e-03  linmin: -1.085e-01  cgtest:  9.413e-01  t[s]:     55.69
LCAOMinimize: Encountered beta<0, resetting CG.
LCAOMinimize: 	Predicted alpha/alphaT>3.000000, increasing alphaT to 1.186377e-02.
	FillingsUpdate:  mu: +0.327842865  nElectrons: 374.000000  magneticMoment: [ Abs: 41.65028  Tot: -0.00000 ]
LCAOMinimize: Iter:   2  F: -2406.5012499278614087  |grad|_K:  1.253e-02  alpha:  1.545e-02  linmin: -1.081e-02  cgtest:  5.290e-02  t[s]:     72.36
LCAOMinimize: 	Wrong curvature in test step, increasing alphaT to 4.636289e-02.
	FillingsUpdate:  mu: +0.319733049  nElectrons: 374.000000  magneticMoment: [ Abs: 44.84603  Tot: +0.00000 ]
LCAOMinimize: Iter:   3  F: -2409.1493958734204170  |grad|_K:  1.172e-02  alpha: -1.422e-01  linmin: -6.926e-02  cgtest:  9.271e-01  t[s]:     84.09
	FillingsUpdate:  mu: +0.518151477  nElectrons: 374.000000  magneticMoment: [ Abs: 17.64678  Tot: -0.00000 ]
LCAOMinimize: Iter:   4  F: -2421.8314885897534623  |grad|_K:  1.493e-02  alpha:  3.906e-01  linmin:  3.103e-02  cgtest: -1.047e+00  t[s]:     96.82
LCAOMinimize: 	Step increased F by 1.766494e+01, reducing alpha to 3.354932e-03.
LCAOMinimize: 	Step increased F by 4.001001e-01, reducing alpha to 3.354932e-04.
	FillingsUpdate:  mu: +0.509062564  nElectrons: 374.000000  magneticMoment: [ Abs: 17.40589  Tot: +0.00000 ]
LCAOMinimize: Iter:   5  F: -2421.8376684703011961  |grad|_K:  1.469e-02  alpha:  3.355e-04  linmin: -6.046e-04  cgtest:  9.994e-01  t[s]:    127.76
LCAOMinimize: Encountered beta<0, resetting CG.
LCAOMinimize: 	Predicted alpha/alphaT>3.000000, increasing alphaT to 1.006480e-03.
LCAOMinimize: 	Predicted alpha/alphaT>3.000000, increasing alphaT to 3.019439e-03.
LCAOMinimize: 	Predicted alpha/alphaT>3.000000, increasing alphaT to 9.058316e-03.
LCAOMinimize: 	Step increased F by 4.671130e+01, reducing alpha to 1.065939e-02.
	FillingsUpdate:  mu: +0.635059428  nElectrons: 374.000000  magneticMoment: [ Abs: 17.73444  Tot: -0.00000 ]
LCAOMinimize: Iter:   6  F: -2423.8513496881951141  |grad|_K:  1.188e-02  alpha:  1.066e-02  linmin: -1.679e-01  cgtest:  7.915e-01  t[s]:    157.39
LCAOMinimize: 	Wrong curvature in test step, increasing alphaT to 3.197818e-02.
	FillingsUpdate:  mu: +0.651689473  nElectrons: 374.000000  magneticMoment: [ Abs: 18.24956  Tot: -0.00000 ]
LCAOMinimize: Iter:   7  F: -2425.3011124628465041  |grad|_K:  1.109e-02  alpha: -1.723e+00  linmin: -1.897e-01  cgtest:  8.877e-01  t[s]:    169.42
LCAOMinimize: 	Step increased F by 2.043772e+01, reducing alpha to 1.960084e-02.
	FillingsUpdate:  mu: +0.622928103  nElectrons: 374.000000  magneticMoment: [ Abs: 19.64877  Tot: -0.00000 ]
LCAOMinimize: Iter:   8  F: -2427.7341461022133444  |grad|_K:  1.023e-02  alpha:  1.960e-02  linmin: -2.426e-01  cgtest:  8.083e-01  t[s]:    191.33
LCAOMinimize: 	Wrong curvature in test step, increasing alphaT to 5.880251e-02.
	FillingsUpdate:  mu: +0.531655853  nElectrons: 374.000000  magneticMoment: [ Abs: 21.31941  Tot: +0.00000 ]
LCAOMinimize: Iter:   9  F: -2430.0757249191001392  |grad|_K:  1.038e-02  alpha: -1.393e-01  linmin: -2.653e-01  cgtest:  8.114e-01  t[s]:    203.09
LCAOMinimize: 	Step increased F by 1.549324e+01, reducing alpha to 2.350437e-02.
	FillingsUpdate:  mu: +0.228768029  nElectrons: 374.000000  magneticMoment: [ Abs: 24.47775  Tot: +0.00000 ]
LCAOMinimize: Iter:  10  F: -2433.0790630106594108  |grad|_K:  1.353e-02  alpha:  2.350e-02  linmin:  4.101e-02  cgtest:  2.117e-01  t[s]:    224.89
	FillingsUpdate:  mu: +0.102070089  nElectrons: 374.000000  magneticMoment: [ Abs: 25.45599  Tot: +0.00000 ]
LCAOMinimize: Iter:  11  F: -2433.7361783706510323  |grad|_K:  9.920e-03  alpha:  5.162e-03  linmin: -8.949e-02  cgtest:  1.152e+00  t[s]:    237.69
LCAOMinimize: Encountered beta<0, resetting CG.
LCAOMinimize: 	Wrong curvature in test step, increasing alphaT to 1.548683e-02.
	FillingsUpdate:  mu: +0.161776131  nElectrons: 374.000000  magneticMoment: [ Abs: 25.71170  Tot: +0.00000 ]
LCAOMinimize: Iter:  12  F: -2434.2184851410702322  |grad|_K:  8.760e-03  alpha: -4.423e-01  linmin: -1.699e-01  cgtest:  7.906e-01  t[s]:    249.62
LCAOMinimize: 	Step increased F by 2.994731e+01, reducing alpha to 1.297247e-02.
	FillingsUpdate:  mu: +0.380868903  nElectrons: 374.000000  magneticMoment: [ Abs: 26.72499  Tot: -0.00000 ]
LCAOMinimize: Iter:  13  F: -2434.8452842553379014  |grad|_K:  7.234e-03  alpha:  1.297e-02  linmin:  2.600e-02  cgtest: -9.225e-02  t[s]:    271.40
	FillingsUpdate:  mu: +0.424610881  nElectrons: 374.000000  magneticMoment: [ Abs: 29.49827  Tot: +0.00000 ]
LCAOMinimize: Iter:  14  F: -2435.3345773784835728  |grad|_K:  7.683e-03  alpha:  2.614e-02  linmin:  1.449e-02  cgtest:  2.875e-01  t[s]:    284.34
	FillingsUpdate:  mu: +0.306712824  nElectrons: 374.000000  magneticMoment: [ Abs: 32.32528  Tot: +0.00000 ]
LCAOMinimize: Iter:  15  F: -2435.8500042939417654  |grad|_K:  6.480e-03  alpha:  1.991e-02  linmin:  3.999e-03  cgtest:  3.342e-01  t[s]:    297.16
	FillingsUpdate:  mu: +0.213663247  nElectrons: 374.000000  magneticMoment: [ Abs: 32.86449  Tot: -0.00000 ]
LCAOMinimize: Iter:  16  F: -2436.0304447810176498  |grad|_K:  3.546e-03  alpha:  8.038e-03  linmin: -1.787e-02  cgtest:  3.512e-02  t[s]:    310.12
	FillingsUpdate:  mu: +0.180326592  nElectrons: 374.000000  magneticMoment: [ Abs: 33.74396  Tot: +0.00000 ]
LCAOMinimize: Iter:  17  F: -2436.1685841351982162  |grad|_K:  2.526e-03  alpha:  2.352e-02  linmin:  1.817e-02  cgtest:  2.961e-01  t[s]:    322.95
	FillingsUpdate:  mu: +0.169971213  nElectrons: 374.000000  magneticMoment: [ Abs: 33.92138  Tot: +0.00000 ]
LCAOMinimize: Iter:  18  F: -2436.1895078639327039  |grad|_K:  1.570e-03  alpha:  7.504e-03  linmin:  1.697e-03  cgtest:  8.853e-02  t[s]:    335.76
LCAOMinimize: 	Predicted alpha/alphaT>3.000000, increasing alphaT to 2.251256e-02.
	FillingsUpdate:  mu: +0.198610406  nElectrons: 374.000000  magneticMoment: [ Abs: 34.50409  Tot: +0.00000 ]
LCAOMinimize: Iter:  19  F: -2436.2279786997291922  |grad|_K:  1.580e-03  alpha:  3.281e-02  linmin: -5.089e-03  cgtest: -3.068e-03  t[s]:    352.49
	FillingsUpdate:  mu: +0.180844323  nElectrons: 374.000000  magneticMoment: [ Abs: 35.63998  Tot: +0.00000 ]
LCAOMinimize: Iter:  20  F: -2436.2877616154873976  |grad|_K:  1.914e-03  alpha:  4.643e-02  linmin: -9.367e-03  cgtest:  3.532e-02  t[s]:    365.54
	FillingsUpdate:  mu: +0.189467153  nElectrons: 374.000000  magneticMoment: [ Abs: 37.00074  Tot: -0.00000 ]
LCAOMinimize: Iter:  21  F: -2436.3510684976872653  |grad|_K:  2.768e-03  alpha:  3.578e-02  linmin: -3.032e-03  cgtest: -3.728e-01  t[s]:    378.53
	FillingsUpdate:  mu: +0.180922463  nElectrons: 374.000000  magneticMoment: [ Abs: 39.34125  Tot: -0.00000 ]
LCAOMinimize: Iter:  22  F: -2436.4535889594576474  |grad|_K:  1.645e-03  alpha:  2.795e-02  linmin: -5.774e-03  cgtest:  7.747e-01  t[s]:    391.61
LCAOMinimize: Encountered beta<0, resetting CG.
	FillingsUpdate:  mu: +0.198375531  nElectrons: 374.000000  magneticMoment: [ Abs: 39.21664  Tot: +0.00000 ]
LCAOMinimize: Iter:  23  F: -2436.5291878384641677  |grad|_K:  1.196e-03  alpha:  5.220e-02  linmin: -3.712e-02  cgtest:  5.989e-01  t[s]:    404.61
	FillingsUpdate:  mu: +0.184807569  nElectrons: 374.000000  magneticMoment: [ Abs: 39.25702  Tot: +0.00000 ]
LCAOMinimize: Iter:  24  F: -2436.5821753314285161  |grad|_K:  9.950e-04  alpha:  6.808e-02  linmin: -4.658e-02  cgtest:  3.234e-01  t[s]:    417.69
	FillingsUpdate:  mu: +0.191884430  nElectrons: 374.000000  magneticMoment: [ Abs: 39.24855  Tot: +0.00000 ]
LCAOMinimize: Iter:  25  F: -2436.6433994753606385  |grad|_K:  7.248e-04  alpha:  9.854e-02  linmin: -3.723e-02  cgtest:  4.708e-01  t[s]:    430.52
	FillingsUpdate:  mu: +0.181210066  nElectrons: 374.000000  magneticMoment: [ Abs: 39.52955  Tot: +0.00000 ]
LCAOMinimize: Iter:  26  F: -2436.6828400269464510  |grad|_K:  5.188e-04  alpha:  1.283e-01  linmin: -6.957e-02  cgtest:  4.692e-01  t[s]:    443.63
	FillingsUpdate:  mu: +0.196096205  nElectrons: 374.000000  magneticMoment: [ Abs: 40.00516  Tot: +0.00000 ]
LCAOMinimize: Iter:  27  F: -2436.7254898943569970  |grad|_K:  5.930e-04  alpha:  2.585e-01  linmin: -1.155e-02  cgtest:  3.292e-01  t[s]:    456.63
	FillingsUpdate:  mu: +0.174879141  nElectrons: 374.000000  magneticMoment: [ Abs: 40.53529  Tot: -0.00000 ]
LCAOMinimize: Iter:  28  F: -2436.7710149016411378  |grad|_K:  2.555e-04  alpha:  2.514e-01  linmin: -9.348e-02  cgtest:  1.974e-01  t[s]:    469.48
	FillingsUpdate:  mu: +0.205990910  nElectrons: 374.000000  magneticMoment: [ Abs: 40.84510  Tot: -0.00000 ]
LCAOMinimize: Iter:  29  F: -2436.7882619280062499  |grad|_K:  3.366e-04  alpha:  4.650e-01  linmin:  2.775e-03  cgtest:  7.014e-02  t[s]:    482.41
	FillingsUpdate:  mu: +0.177103228  nElectrons: 374.000000  magneticMoment: [ Abs: 41.20429  Tot: -0.00000 ]
LCAOMinimize: Iter:  30  F: -2436.8080314316762269  |grad|_K:  1.236e-04  alpha:  3.977e-01  linmin: -6.195e-02  cgtest: -3.819e-01  t[s]:    495.31
LCAOMinimize: None of the convergence criteria satisfied after 30 iterations.


---- Citations for features of the code used in this run ----

   Software package:
      R. Sundararaman, K. Letchworth-Weaver, K.A. Schwarz, D. Gunceler, Y. Ozhabes and T.A. Arias, 'JDFTx: software for joint density-functional theory', SoftwareX 6, 278 (2017)

   Simplified rotationally-invariant DFT+U:
      S. L. Dudarev et al., Phys. Rev. B 57, 1505 (1998)

   LibXC library of exchange-correlation functions:
      M. A. L. Marques, M. J. T. Oliveira and T. Burnus, Comput. Phys. Commun. 183, 2272 (2012)

   Hammer, Hansen, and Norskov exchange functional:
      B. Hammer, L. B. Hansen, and J. K. Nørskov, Phys. Rev. B 59, 7413 (1999)

   Perdew, Burke & Ernzerhof correlation functional:
      J. P. Perdew, K. Burke, and M. Ernzerhof, Phys. Rev. Lett. 77, 3865 (1996)

   Pseudopotentials:
      M Schlipf and F Gygi, Comput. Phys. Commun. 196, 36 (2015)

   Total energy minimization with Auxiliary Hamiltonian:
      C. Freysoldt, S. Boeck, and J. Neugebauer, Phys. Rev. B 79, 241103(R) (2009)

This list may not be complete. Please suggest additional citations or
report any other bugs at https://github.com/shankar1729/jdftx/issues

Initialization completed successfully at t[s]:    501.00


-------- Electronic minimization -----------
	FillingsUpdate:  mu: +0.177103281  nElectrons: 374.000000  magneticMoment: [ Abs: 41.20429  Tot: -0.00000 ]
ElecMinimize: Iter:   0  F: -2436.808031431685322  |grad|_K:  1.387e-04  alpha:  1.000e+00
	FillingsUpdate:  mu: +0.134146354  nElectrons: 374.000000  magneticMoment: [ Abs: 41.57554  Tot: +0.00000 ]
	SubspaceRotationAdjust: set factor to 0.982
ElecMinimize: Iter:   1  F: -2437.967269875145121  |grad|_K:  1.010e-04  alpha:  3.629e-01  linmin:  1.127e-05  t[s]:    587.26
	FillingsUpdate:  mu: +0.093033608  nElectrons: 374.000000  magneticMoment: [ Abs: 43.12346  Tot: +0.00000 ]
	SubspaceRotationAdjust: set factor to 1.15
ElecMinimize: Iter:   2  F: -2438.543169268426482  |grad|_K:  7.345e-05  alpha:  3.419e-01  linmin: -3.163e-05  t[s]:    661.24
	FillingsUpdate:  mu: +0.155986814  nElectrons: 374.000000  magneticMoment: [ Abs: 44.04026  Tot: +0.00000 ]
	SubspaceRotationAdjust: set factor to 0.916
ElecMinimize: Iter:   3  F: -2438.778723318870107  |grad|_K:  6.284e-05  alpha:  2.594e-01  linmin:  2.306e-06  t[s]:    737.91
	FillingsUpdate:  mu: +0.113095881  nElectrons: 374.000000  magneticMoment: [ Abs: 44.52225  Tot: +0.00000 ]
	SubspaceRotationAdjust: set factor to 0.532
ElecMinimize: Iter:   4  F: -2438.872394683388393  |grad|_K:  3.746e-05  alpha:  1.472e-01  linmin:  5.507e-05  t[s]:    813.44
	FillingsUpdate:  mu: +0.117526194  nElectrons: 374.000000  magneticMoment: [ Abs: 44.94142  Tot: +0.00000 ]
	SubspaceRotationAdjust: set factor to 0.557
ElecMinimize: Iter:   5  F: -2438.942541132464157  |grad|_K:  2.277e-05  alpha:  3.080e-01  linmin:  2.003e-05  t[s]:    887.95
	FillingsUpdate:  mu: +0.116031239  nElectrons: 374.000000  magneticMoment: [ Abs: 45.09801  Tot: +0.00000 ]
	SubspaceRotationAdjust: set factor to 0.598
ElecMinimize: Iter:   6  F: -2438.973597589810197  |grad|_K:  1.543e-05  alpha:  3.628e-01  linmin:  4.163e-05  t[s]:    963.01
	FillingsUpdate:  mu: +0.106427605  nElectrons: 374.000000  magneticMoment: [ Abs: 45.17079  Tot: +0.00000 ]
	SubspaceRotationAdjust: set factor to 0.528
ElecMinimize: Iter:   7  F: -2438.985186669912764  |grad|_K:  1.071e-05  alpha:  2.939e-01  linmin: -2.198e-06  t[s]:   1038.69
	FillingsUpdate:  mu: +0.109338639  nElectrons: 374.000000  magneticMoment: [ Abs: 45.22135  Tot: +0.00000 ]
	SubspaceRotationAdjust: set factor to 0.469
ElecMinimize: Iter:   8  F: -2438.991145560860332  |grad|_K:  7.815e-06  alpha:  3.129e-01  linmin:  6.313e-06  t[s]:   1114.17
	FillingsUpdate:  mu: +0.106054689  nElectrons: 374.000000  magneticMoment: [ Abs: 45.26767  Tot: +0.00000 ]
	SubspaceRotationAdjust: set factor to 0.52
ElecMinimize: Iter:   9  F: -2438.994730464228269  |grad|_K:  5.425e-06  alpha:  3.543e-01  linmin:  4.592e-06  t[s]:   1189.84
	FillingsUpdate:  mu: +0.105185788  nElectrons: 374.000000  magneticMoment: [ Abs: 45.29756  Tot: +0.00000 ]
	SubspaceRotationAdjust: set factor to 0.59
ElecMinimize: Iter:  10  F: -2438.996411255392104  |grad|_K:  4.094e-06  alpha:  3.447e-01  linmin:  3.211e-06  t[s]:   1261.08
	FillingsUpdate:  mu: +0.106132279  nElectrons: 374.000000  magneticMoment: [ Abs: 45.31802  Tot: -0.00000 ]
	SubspaceRotationAdjust: set factor to 0.622
ElecMinimize: Iter:  11  F: -2438.997362969141250  |grad|_K:  3.363e-06  alpha:  3.424e-01  linmin:  3.324e-06  t[s]:   1337.12
	FillingsUpdate:  mu: +0.104819473  nElectrons: 374.000000  magneticMoment: [ Abs: 45.33775  Tot: +0.00000 ]
	SubspaceRotationAdjust: set factor to 0.672
ElecMinimize: Iter:  12  F: -2438.998054583541943  |grad|_K:  2.927e-06  alpha:  3.690e-01  linmin:  3.131e-06  t[s]:   1413.07
	FillingsUpdate:  mu: +0.105058333  nElectrons: 374.000000  magneticMoment: [ Abs: 45.35525  Tot: +0.00000 ]
	SubspaceRotationAdjust: set factor to 0.795
ElecMinimize: Iter:  13  F: -2438.998578538475613  |grad|_K:  2.543e-06  alpha:  3.689e-01  linmin:  4.638e-06  t[s]:   1488.18
	FillingsUpdate:  mu: +0.104901766  nElectrons: 374.000000  magneticMoment: [ Abs: 45.37206  Tot: +0.00000 ]
	SubspaceRotationAdjust: set factor to 0.956
ElecMinimize: Iter:  14  F: -2438.999036838002667  |grad|_K:  2.532e-06  alpha:  4.277e-01  linmin:  1.119e-05  t[s]:   1563.08
	FillingsUpdate:  mu: +0.104371641  nElectrons: 374.000000  magneticMoment: [ Abs: 45.38404  Tot: +0.00000 ]
	SubspaceRotationAdjust: set factor to 1.09
ElecMinimize: Iter:  15  F: -2438.999508561245420  |grad|_K:  2.756e-06  alpha:  4.442e-01  linmin: -3.882e-07  t[s]:   1639.67
	FillingsUpdate:  mu: +0.105224276  nElectrons: 374.000000  magneticMoment: [ Abs: 45.38487  Tot: +0.00000 ]
	SubspaceRotationAdjust: set factor to 1.06
ElecMinimize: Iter:  16  F: -2438.999966897015838  |grad|_K:  3.158e-06  alpha:  3.625e-01  linmin:  2.734e-06  t[s]:   1717.49
	FillingsUpdate:  mu: +0.103957039  nElectrons: 374.000000  magneticMoment: [ Abs: 45.38437  Tot: +0.00000 ]
	SubspaceRotationAdjust: set factor to 0.902
ElecMinimize: Iter:  17  F: -2439.000384643369671  |grad|_K:  3.059e-06  alpha:  2.560e-01  linmin: -6.613e-06  t[s]:   1794.44
	FillingsUpdate:  mu: +0.103808172  nElectrons: 374.000000  magneticMoment: [ Abs: 45.37639  Tot: +0.00000 ]
	SubspaceRotationAdjust: set factor to 0.921
ElecMinimize: Iter:  18  F: -2439.000841541619593  |grad|_K:  2.665e-06  alpha:  2.941e-01  linmin:  3.393e-05  t[s]:   1871.88
	FillingsUpdate:  mu: +0.102982014  nElectrons: 374.000000  magneticMoment: [ Abs: 45.37363  Tot: +0.00000 ]
	SubspaceRotationAdjust: set factor to 1.14
ElecMinimize: Iter:  19  F: -2439.001294147973113  |grad|_K:  2.495e-06  alpha:  3.926e-01  linmin:  7.319e-05  t[s]:   1947.00
	FillingsUpdate:  mu: +0.102640569  nElectrons: 374.000000  magneticMoment: [ Abs: 45.37591  Tot: +0.00000 ]
	SubspaceRotationAdjust: set factor to 1.35
ElecMinimize: Iter:  20  F: -2439.001663830269536  |grad|_K:  2.561e-06  alpha:  3.628e-01  linmin:  1.528e-05  t[s]:   2021.23
	FillingsUpdate:  mu: +0.102732513  nElectrons: 374.000000  magneticMoment: [ Abs: 45.37722  Tot: -0.00000 ]
	SubspaceRotationAdjust: set factor to 1.44
ElecMinimize: Iter:  21  F: -2439.001970954340322  |grad|_K:  2.556e-06  alpha:  2.842e-01  linmin: -9.361e-06  t[s]:   2097.12
	FillingsUpdate:  mu: +0.102079783  nElectrons: 374.000000  magneticMoment: [ Abs: 45.38485  Tot: +0.00000 ]
	SubspaceRotationAdjust: set factor to 1.65
ElecMinimize: Iter:  22  F: -2439.002239323101094  |grad|_K:  2.337e-06  alpha:  2.455e-01  linmin:  8.441e-06  t[s]:   2171.13
	FillingsUpdate:  mu: +0.102177340  nElectrons: 374.000000  magneticMoment: [ Abs: 45.39261  Tot: +0.00000 ]
	SubspaceRotationAdjust: set factor to 2.09
ElecMinimize: Iter:  23  F: -2439.002479607724126  |grad|_K:  2.055e-06  alpha:  2.661e-01  linmin: -2.050e-05  t[s]:   2246.80
	FillingsUpdate:  mu: +0.102763224  nElectrons: 374.000000  magneticMoment: [ Abs: 45.39755  Tot: +0.00000 ]
	SubspaceRotationAdjust: set factor to 2.12
ElecMinimize: Iter:  24  F: -2439.002681121471142  |grad|_K:  2.077e-06  alpha:  2.838e-01  linmin: -9.384e-05  t[s]:   2324.33
	FillingsUpdate:  mu: +0.102563980  nElectrons: 374.000000  magneticMoment: [ Abs: 45.39846  Tot: +0.00000 ]
	SubspaceRotationAdjust: set factor to 1.73
ElecMinimize: Iter:  25  F: -2439.002843600412234  |grad|_K:  2.235e-06  alpha:  2.218e-01  linmin:  1.123e-05  t[s]:   2400.26
	FillingsUpdate:  mu: +0.102738710  nElectrons: 374.000000  magneticMoment: [ Abs: 45.39179  Tot: +0.00000 ]
	SubspaceRotationAdjust: set factor to 2.04
ElecMinimize: Iter:  26  F: -2439.002998739712439  |grad|_K:  1.956e-06  alpha:  1.884e-01  linmin: -8.179e-06  t[s]:   2475.45
	FillingsUpdate:  mu: +0.103290201  nElectrons: 374.000000  magneticMoment: [ Abs: 45.37997  Tot: +0.00000 ]
	SubspaceRotationAdjust: set factor to 2.24
ElecMinimize: Iter:  27  F: -2439.003172235119564  |grad|_K:  1.910e-06  alpha:  2.718e-01  linmin:  2.242e-06  t[s]:   2550.67
	FillingsUpdate:  mu: +0.103175021  nElectrons: 374.000000  magneticMoment: [ Abs: 45.36980  Tot: -0.00000 ]
	SubspaceRotationAdjust: set factor to 2.05
ElecMinimize: Iter:  28  F: -2439.003309269451165  |grad|_K:  2.171e-06  alpha:  2.261e-01  linmin:  6.181e-06  t[s]:   2623.06
	FillingsUpdate:  mu: +0.103073388  nElectrons: 374.000000  magneticMoment: [ Abs: 45.35991  Tot: +0.00000 ]
	SubspaceRotationAdjust: set factor to 2.32
ElecMinimize: Iter:  29  F: -2439.003427840378208  |grad|_K:  1.703e-06  alpha:  1.513e-01  linmin: -2.741e-06  t[s]:   2696.72
	FillingsUpdate:  mu: +0.102952053  nElectrons: 374.000000  magneticMoment: [ Abs: 45.35335  Tot: +0.00000 ]
	SubspaceRotationAdjust: set factor to 3.16
ElecMinimize: Iter:  30  F: -2439.003547933401933  |grad|_K:  1.610e-06  alpha:  2.497e-01  linmin:  5.709e-06  t[s]:   2773.57
	FillingsUpdate:  mu: +0.102963689  nElectrons: 374.000000  magneticMoment: [ Abs: 45.35235  Tot: +0.00000 ]
	SubspaceRotationAdjust: set factor to 2.43
ElecMinimize: Iter:  31  F: -2439.003633682324107  |grad|_K:  2.011e-06  alpha:  1.982e-01  linmin:  9.400e-06  t[s]:   2849.11
	FillingsUpdate:  mu: +0.103079487  nElectrons: 374.000000  magneticMoment: [ Abs: 45.35133  Tot: -0.00000 ]
	SubspaceRotationAdjust: set factor to 2.63
ElecMinimize: Iter:  32  F: -2439.003701349420226  |grad|_K:  1.524e-06  alpha:  1.025e-01  linmin:  7.765e-06  t[s]:   2925.33
	FillingsUpdate:  mu: +0.102597950  nElectrons: 374.000000  magneticMoment: [ Abs: 45.35315  Tot: +0.00000 ]
	SubspaceRotationAdjust: set factor to 3
ElecMinimize: Iter:  33  F: -2439.003795641999659  |grad|_K:  1.504e-06  alpha:  2.465e-01  linmin:  3.559e-05  t[s]:   3002.25
	FillingsUpdate:  mu: +0.102705044  nElectrons: 374.000000  magneticMoment: [ Abs: 45.35480  Tot: +0.00000 ]
	SubspaceRotationAdjust: set factor to 2.23
ElecMinimize: Iter:  34  F: -2439.003874216032727  |grad|_K:  1.926e-06  alpha:  2.101e-01  linmin:  9.045e-06  t[s]:   3079.67
	FillingsUpdate:  mu: +0.102926293  nElectrons: 374.000000  magneticMoment: [ Abs: 45.35452  Tot: +0.00000 ]
	SubspaceRotationAdjust: set factor to 2.35
ElecMinimize: Iter:  35  F: -2439.003937293670788  |grad|_K:  1.596e-06  alpha:  1.034e-01  linmin:  2.775e-06  t[s]:   3152.59
	FillingsUpdate:  mu: +0.102431031  nElectrons: 374.000000  magneticMoment: [ Abs: 45.35626  Tot: +0.00000 ]
	SubspaceRotationAdjust: set factor to 2.75
ElecMinimize: Iter:  36  F: -2439.004037546622385  |grad|_K:  1.577e-06  alpha:  2.381e-01  linmin:  4.608e-06  t[s]:   3229.20
	FillingsUpdate:  mu: +0.102329815  nElectrons: 374.000000  magneticMoment: [ Abs: 45.35696  Tot: +0.00000 ]
	SubspaceRotationAdjust: set factor to 2.04
ElecMinimize: Iter:  37  F: -2439.004110077788482  |grad|_K:  2.064e-06  alpha:  1.764e-01  linmin: -1.677e-06  t[s]:   3305.62
	FillingsUpdate:  mu: +0.102699341  nElectrons: 374.000000  magneticMoment: [ Abs: 45.35399  Tot: +0.00000 ]
	SubspaceRotationAdjust: set factor to 2.38
ElecMinimize: Iter:  38  F: -2439.004197445367026  |grad|_K:  1.631e-06  alpha:  1.235e-01  linmin: -6.611e-07  t[s]:   3382.63
	FillingsUpdate:  mu: +0.102485521  nElectrons: 374.000000  magneticMoment: [ Abs: 45.34946  Tot: +0.00000 ]
	SubspaceRotationAdjust: set factor to 2.82
ElecMinimize: Iter:  39  F: -2439.004314828391671  |grad|_K:  1.889e-06  alpha:  2.664e-01  linmin:  6.411e-06  t[s]:   3458.51
	FillingsUpdate:  mu: +0.102131874  nElectrons: 374.000000  magneticMoment: [ Abs: 45.34784  Tot: +0.00000 ]
	SubspaceRotationAdjust: set factor to 2.61
ElecMinimize: Iter:  40  F: -2439.004388610911064  |grad|_K:  2.019e-06  alpha:  1.250e-01  linmin: -5.226e-07  t[s]:   3532.88
	FillingsUpdate:  mu: +0.102382446  nElectrons: 374.000000  magneticMoment: [ Abs: 45.34229  Tot: +0.00000 ]
	SubspaceRotationAdjust: set factor to 3.41
ElecMinimize: Iter:  41  F: -2439.004513042375038  |grad|_K:  1.740e-06  alpha:  1.838e-01  linmin:  9.076e-07  t[s]:   3608.84
	FillingsUpdate:  mu: +0.102724870  nElectrons: 374.000000  magneticMoment: [ Abs: 45.33730  Tot: +0.00000 ]
	SubspaceRotationAdjust: set factor to 2.96
ElecMinimize: Iter:  42  F: -2439.004625818881777  |grad|_K:  2.241e-06  alpha:  2.243e-01  linmin: -7.832e-06  t[s]:   3685.57
	FillingsUpdate:  mu: +0.102417995  nElectrons: 374.000000  magneticMoment: [ Abs: 45.33584  Tot: +0.00000 ]
	SubspaceRotationAdjust: set factor to 2.83
ElecMinimize: Iter:  43  F: -2439.004703503512246  |grad|_K:  2.040e-06  alpha:  9.255e-02  linmin: -8.659e-06  t[s]:   3758.01
	FillingsUpdate:  mu: +0.102172770  nElectrons: 374.000000  magneticMoment: [ Abs: 45.32997  Tot: +0.00000 ]
	SubspaceRotationAdjust: set factor to 3.23
ElecMinimize: Iter:  44  F: -2439.004845628935982  |grad|_K:  2.035e-06  alpha:  2.066e-01  linmin:  1.848e-05  t[s]:   3834.42
	FillingsUpdate:  mu: +0.102837419  nElectrons: 374.000000  magneticMoment: [ Abs: 45.32351  Tot: +0.00000 ]
	SubspaceRotationAdjust: set factor to 2.46
ElecMinimize: Iter:  45  F: -2439.004950483899393  |grad|_K:  2.605e-06  alpha:  1.545e-01  linmin: -5.262e-07  t[s]:   3910.82
	FillingsUpdate:  mu: +0.103123185  nElectrons: 374.000000  magneticMoment: [ Abs: 45.31847  Tot: +0.00000 ]
	SubspaceRotationAdjust: set factor to 3.22
ElecMinimize: Iter:  46  F: -2439.005082088795461  |grad|_K:  2.143e-06  alpha:  1.165e-01  linmin: -1.341e-06  t[s]:   3985.92
	FillingsUpdate:  mu: +0.102527728  nElectrons: 374.000000  magneticMoment: [ Abs: 45.31253  Tot: +0.00000 ]
	SubspaceRotationAdjust: set factor to 3.16
ElecMinimize: Iter:  47  F: -2439.005237697255325  |grad|_K:  2.469e-06  alpha:  2.048e-01  linmin:  2.792e-05  t[s]:   4060.61
	FillingsUpdate:  mu: +0.102668271  nElectrons: 374.000000  magneticMoment: [ Abs: 45.30623  Tot: +0.00000 ]
	SubspaceRotationAdjust: set factor to 3.22
ElecMinimize: Iter:  48  F: -2439.005334756469438  |grad|_K:  2.399e-06  alpha:  9.650e-02  linmin: -5.246e-06  t[s]:   4136.46
	FillingsUpdate:  mu: +0.103148416  nElectrons: 374.000000  magneticMoment: [ Abs: 45.29822  Tot: +0.00000 ]
	SubspaceRotationAdjust: set factor to 4.35
ElecMinimize: Iter:  49  F: -2439.005476192313836  |grad|_K:  2.086e-06  alpha:  1.478e-01  linmin:  3.609e-06  t[s]:   4211.97
	FillingsUpdate:  mu: +0.102915642  nElectrons: 374.000000  magneticMoment: [ Abs: 45.29454  Tot: +0.00000 ]
	SubspaceRotationAdjust: set factor to 3.74
ElecMinimize: Iter:  50  F: -2439.005569273449964  |grad|_K:  2.595e-06  alpha:  1.290e-01  linmin:  4.268e-06  t[s]:   4280.81
	FillingsUpdate:  mu: +0.102845153  nElectrons: 374.000000  magneticMoment: [ Abs: 45.28979  Tot: +0.00000 ]
	SubspaceRotationAdjust: set factor to 3.73
ElecMinimize: Iter:  51  F: -2439.005650485474689  |grad|_K:  1.883e-06  alpha:  7.274e-02  linmin: -2.033e-06  t[s]:   4358.13
	FillingsUpdate:  mu: +0.103260033  nElectrons: 374.000000  magneticMoment: [ Abs: 45.28338  Tot: +0.00000 ]
	SubspaceRotationAdjust: set factor to 4.44
ElecMinimize: Iter:  52  F: -2439.005749788906996  |grad|_K:  1.974e-06  alpha:  1.686e-01  linmin:  3.401e-06  t[s]:   4433.94
	FillingsUpdate:  mu: +0.103165460  nElectrons: 374.000000  magneticMoment: [ Abs: 45.28050  Tot: +0.00000 ]
	SubspaceRotationAdjust: set factor to 4.01
ElecMinimize: Iter:  53  F: -2439.005802714734727  |grad|_K:  2.017e-06  alpha:  8.128e-02  linmin: -6.513e-06  t[s]:   4510.26
	FillingsUpdate:  mu: +0.102984475  nElectrons: 374.000000  magneticMoment: [ Abs: 45.27340  Tot: +0.00000 ]
	SubspaceRotationAdjust: set factor to 5.13
ElecMinimize: Iter:  54  F: -2439.005880357178285  |grad|_K:  1.575e-06  alpha:  1.145e-01  linmin:  3.099e-06  t[s]:   4583.32
	FillingsUpdate:  mu: +0.103201779  nElectrons: 374.000000  magneticMoment: [ Abs: 45.26575  Tot: +0.00000 ]
	SubspaceRotationAdjust: set factor to 4.48
ElecMinimize: Iter:  55  F: -2439.005949880351181  |grad|_K:  1.838e-06  alpha:  1.695e-01  linmin:  3.726e-06  t[s]:   4658.46
	FillingsUpdate:  mu: +0.103098378  nElectrons: 374.000000  magneticMoment: [ Abs: 45.26362  Tot: +0.00000 ]
	SubspaceRotationAdjust: set factor to 4.05
ElecMinimize: Iter:  56  F: -2439.005982979735563  |grad|_K:  1.655e-06  alpha:  5.890e-02  linmin: -1.292e-05  t[s]:   4733.72
	FillingsUpdate:  mu: +0.103013752  nElectrons: 374.000000  magneticMoment: [ Abs: 45.25997  Tot: +0.00000 ]
	SubspaceRotationAdjust: set factor to 5.95
ElecMinimize: Iter:  57  F: -2439.006035920869635  |grad|_K:  1.277e-06  alpha:  1.160e-01  linmin:  1.092e-06  t[s]:   4810.94
	FillingsUpdate:  mu: +0.103105201  nElectrons: 374.000000  magneticMoment: [ Abs: 45.25827  Tot: +0.00000 ]
	SubspaceRotationAdjust: set factor to 4.09
ElecMinimize: Iter:  58  F: -2439.006070071595786  |grad|_K:  1.848e-06  alpha:  1.261e-01  linmin: -6.984e-07  t[s]:   4885.59
	FillingsUpdate:  mu: +0.102989496  nElectrons: 374.000000  magneticMoment: [ Abs: 45.25863  Tot: +0.00000 ]
	SubspaceRotationAdjust: set factor to 4.41
ElecMinimize: Iter:  59  F: -2439.006097854440668  |grad|_K:  1.207e-06  alpha:  4.908e-02  linmin:  1.701e-06  t[s]:   4958.99
ElecMinimize: 	Predicted alpha/alphaT>3.000000, increasing alphaT to 1.472355e-01.
	FillingsUpdate:  mu: +0.102819555  nElectrons: 374.000000  magneticMoment: [ Abs: 45.25991  Tot: +0.00000 ]
	SubspaceRotationAdjust: set factor to 4.03
ElecMinimize: Iter:  60  F: -2439.006137389554169  |grad|_K:  1.304e-06  alpha:  1.638e-01  linmin:  1.069e-06  t[s]:   5061.40
	FillingsUpdate:  mu: +0.102871984  nElectrons: 374.000000  magneticMoment: [ Abs: 45.26039  Tot: +0.00000 ]
	SubspaceRotationAdjust: set factor to 3.78
ElecMinimize: Iter:  61  F: -2439.006156674246995  |grad|_K:  1.299e-06  alpha:  6.839e-02  linmin:  1.642e-06  t[s]:   5134.62
	FillingsUpdate:  mu: +0.102848508  nElectrons: 374.000000  magneticMoment: [ Abs: 45.26342  Tot: +0.00000 ]
	SubspaceRotationAdjust: set factor to 5.16
ElecMinimize: Iter:  62  F: -2439.006192160356932  |grad|_K:  1.111e-06  alpha:  1.268e-01  linmin:  2.106e-06  t[s]:   5206.25
	FillingsUpdate:  mu: +0.102724495  nElectrons: 374.000000  magneticMoment: [ Abs: 45.26595  Tot: +0.00000 ]
	SubspaceRotationAdjust: set factor to 3.71
ElecMinimize: Iter:  63  F: -2439.006213793389634  |grad|_K:  1.531e-06  alpha:  1.057e-01  linmin: -3.550e-07  t[s]:   5279.33
	FillingsUpdate:  mu: +0.102718476  nElectrons: 374.000000  magneticMoment: [ Abs: 45.26751  Tot: -0.00000 ]
	SubspaceRotationAdjust: set factor to 4.74
ElecMinimize: Iter:  64  F: -2439.006241207293442  |grad|_K:  1.045e-06  alpha:  7.037e-02  linmin: -4.511e-07  t[s]:   5353.52
	FillingsUpdate:  mu: +0.102849924  nElectrons: 374.000000  magneticMoment: [ Abs: 45.26782  Tot: +0.00000 ]
	SubspaceRotationAdjust: set factor to 4.38
ElecMinimize: Iter:  65  F: -2439.006272243486364  |grad|_K:  1.328e-06  alpha:  1.711e-01  linmin: -3.303e-06  t[s]:   5425.34
	FillingsUpdate:  mu: +0.102759999  nElectrons: 374.000000  magneticMoment: [ Abs: 45.26817  Tot: -0.00000 ]
	SubspaceRotationAdjust: set factor to 3.85
ElecMinimize: Iter:  66  F: -2439.006289320284850  |grad|_K:  1.160e-06  alpha:  5.794e-02  linmin: -6.466e-06  t[s]:   5497.96
	FillingsUpdate:  mu: +0.102631090  nElectrons: 374.000000  magneticMoment: [ Abs: 45.26650  Tot: +0.00000 ]
	SubspaceRotationAdjust: set factor to 5.38
ElecMinimize: Iter:  67  F: -2439.006321335248231  |grad|_K:  1.110e-06  alpha:  1.427e-01  linmin:  6.135e-08  t[s]:   5572.90
	FillingsUpdate:  mu: +0.102867034  nElectrons: 374.000000  magneticMoment: [ Abs: 45.26425  Tot: +0.00000 ]
	SubspaceRotationAdjust: set factor to 4.39
ElecMinimize: Iter:  68  F: -2439.006340813495171  |grad|_K:  1.442e-06  alpha:  9.508e-02  linmin: -5.054e-08  t[s]:   5644.46
	FillingsUpdate:  mu: +0.103071323  nElectrons: 374.000000  magneticMoment: [ Abs: 45.26234  Tot: -0.00000 ]
	SubspaceRotationAdjust: set factor to 4.79
ElecMinimize: Iter:  69  F: -2439.006367802744535  |grad|_K:  1.099e-06  alpha:  7.813e-02  linmin:  8.490e-07  t[s]:   5714.57
	FillingsUpdate:  mu: +0.102751353  nElectrons: 374.000000  magneticMoment: [ Abs: 45.26061  Tot: -0.00000 ]
	SubspaceRotationAdjust: set factor to 5.66
ElecMinimize: Iter:  70  F: -2439.006398791983884  |grad|_K:  1.153e-06  alpha:  1.548e-01  linmin:  4.568e-06  t[s]:   5788.96
	FillingsUpdate:  mu: +0.102943598  nElectrons: 374.000000  magneticMoment: [ Abs: 45.25886  Tot: +0.00000 ]
	SubspaceRotationAdjust: set factor to 4.78
ElecMinimize: Iter:  71  F: -2439.006418083480185  |grad|_K:  1.385e-06  alpha:  8.734e-02  linmin: -1.105e-06  t[s]:   5865.35
	FillingsUpdate:  mu: +0.103105151  nElectrons: 374.000000  magneticMoment: [ Abs: 45.25823  Tot: -0.00000 ]
	SubspaceRotationAdjust: set factor to 4.54
ElecMinimize: Iter:  72  F: -2439.006439547983064  |grad|_K:  1.064e-06  alpha:  6.732e-02  linmin: -3.093e-07  t[s]:   5938.18
	FillingsUpdate:  mu: +0.102849730  nElectrons: 374.000000  magneticMoment: [ Abs: 45.25816  Tot: -0.00000 ]
	SubspaceRotationAdjust: set factor to 5.32
ElecMinimize: Iter:  73  F: -2439.006465593404300  |grad|_K:  9.861e-07  alpha:  1.387e-01  linmin:  2.401e-06  t[s]:   6010.82
	FillingsUpdate:  mu: +0.103009568  nElectrons: 374.000000  magneticMoment: [ Abs: 45.25763  Tot: +0.00000 ]
	SubspaceRotationAdjust: set factor to 4.64
ElecMinimize: Iter:  74  F: -2439.006484737765732  |grad|_K:  1.219e-06  alpha:  1.188e-01  linmin: -1.323e-06  t[s]:   6085.12
	FillingsUpdate:  mu: +0.103049565  nElectrons: 374.000000  magneticMoment: [ Abs: 45.25832  Tot: +0.00000 ]
	SubspaceRotationAdjust: set factor to 4.01
ElecMinimize: Iter:  75  F: -2439.006499104083559  |grad|_K:  9.470e-07  alpha:  5.826e-02  linmin:  8.861e-07  t[s]:   6157.59
	FillingsUpdate:  mu: +0.102896652  nElectrons: 374.000000  magneticMoment: [ Abs: 45.25991  Tot: +0.00000 ]
	SubspaceRotationAdjust: set factor to 5.24
ElecMinimize: Iter:  76  F: -2439.006519939850023  |grad|_K:  8.295e-07  alpha:  1.401e-01  linmin:  1.122e-06  t[s]:   6230.97
	FillingsUpdate:  mu: +0.102917563  nElectrons: 374.000000  magneticMoment: [ Abs: 45.26141  Tot: +0.00000 ]
	SubspaceRotationAdjust: set factor to 4.28
ElecMinimize: Iter:  77  F: -2439.006534225613450  |grad|_K:  1.066e-06  alpha:  1.252e-01  linmin: -2.161e-07  t[s]:   6303.21
	FillingsUpdate:  mu: +0.102928141  nElectrons: 374.000000  magneticMoment: [ Abs: 45.26342  Tot: +0.00000 ]
	SubspaceRotationAdjust: set factor to 4.04
ElecMinimize: Iter:  78  F: -2439.006545487301537  |grad|_K:  7.936e-07  alpha:  5.967e-02  linmin: -9.530e-07  t[s]:   6376.47
	FillingsUpdate:  mu: +0.102967239  nElectrons: 374.000000  magneticMoment: [ Abs: 45.26568  Tot: +0.00000 ]
	SubspaceRotationAdjust: set factor to 5.46
ElecMinimize: Iter:  79  F: -2439.006560941229509  |grad|_K:  7.224e-07  alpha:  1.479e-01  linmin:  2.232e-06  t[s]:   6449.92
	FillingsUpdate:  mu: +0.102881431  nElectrons: 374.000000  magneticMoment: [ Abs: 45.26660  Tot: -0.00000 ]
	SubspaceRotationAdjust: set factor to 4.46
ElecMinimize: Iter:  80  F: -2439.006570249013748  |grad|_K:  9.047e-07  alpha:  1.075e-01  linmin: -1.157e-08  t[s]:   6523.07
	FillingsUpdate:  mu: +0.102789787  nElectrons: 374.000000  magneticMoment: [ Abs: 45.26770  Tot: +0.00000 ]
	SubspaceRotationAdjust: set factor to 4.33
ElecMinimize: Iter:  81  F: -2439.006578817684385  |grad|_K:  6.795e-07  alpha:  6.292e-02  linmin: -7.195e-07  t[s]:   6595.47
	FillingsUpdate:  mu: +0.102950062  nElectrons: 374.000000  magneticMoment: [ Abs: 45.26804  Tot: +0.00000 ]
	SubspaceRotationAdjust: set factor to 5.52
ElecMinimize: Iter:  82  F: -2439.006589947309294  |grad|_K:  6.413e-07  alpha:  1.451e-01  linmin:  1.276e-06  t[s]:   6668.85
	FillingsUpdate:  mu: +0.102883664  nElectrons: 374.000000  magneticMoment: [ Abs: 45.26800  Tot: +0.00000 ]
	SubspaceRotationAdjust: set factor to 4.55
ElecMinimize: Iter:  83  F: -2439.006598201947327  |grad|_K:  8.011e-07  alpha:  1.210e-01  linmin:  8.629e-07  t[s]:   6740.34
	FillingsUpdate:  mu: +0.102812018  nElectrons: 374.000000  magneticMoment: [ Abs: 45.26816  Tot: +0.00000 ]
	SubspaceRotationAdjust: set factor to 4.23
ElecMinimize: Iter:  84  F: -2439.006604409487409  |grad|_K:  6.524e-07  alpha:  5.813e-02  linmin: -1.637e-06  t[s]:   6809.95
	FillingsUpdate:  mu: +0.102955859  nElectrons: 374.000000  magneticMoment: [ Abs: 45.26716  Tot: -0.00000 ]
	SubspaceRotationAdjust: set factor to 5.56
ElecMinimize: Iter:  85  F: -2439.006613956783895  |grad|_K:  6.007e-07  alpha:  1.350e-01  linmin:  1.118e-06  t[s]:   6884.50
	FillingsUpdate:  mu: +0.102917583  nElectrons: 374.000000  magneticMoment: [ Abs: 45.26644  Tot: +0.00000 ]
	SubspaceRotationAdjust: set factor to 4.48
ElecMinimize: Iter:  86  F: -2439.006621055009418  |grad|_K:  7.925e-07  alpha:  1.186e-01  linmin:  5.862e-07  t[s]:   6957.29
	FillingsUpdate:  mu: +0.102818565  nElectrons: 374.000000  magneticMoment: [ Abs: 45.26664  Tot: -0.00000 ]
	SubspaceRotationAdjust: set factor to 4.19
ElecMinimize: Iter:  87  F: -2439.006626849482018  |grad|_K:  5.945e-07  alpha:  5.549e-02  linmin: -3.111e-06  t[s]:   7031.29
	FillingsUpdate:  mu: +0.102894043  nElectrons: 374.000000  magneticMoment: [ Abs: 45.26717  Tot: +0.00000 ]
	SubspaceRotationAdjust: set factor to 5.5
ElecMinimize: Iter:  88  F: -2439.006635564837325  |grad|_K:  5.895e-07  alpha:  1.486e-01  linmin:  3.432e-06  t[s]:   7103.13
	FillingsUpdate:  mu: +0.102929700  nElectrons: 374.000000  magneticMoment: [ Abs: 45.26773  Tot: +0.00000 ]
	SubspaceRotationAdjust: set factor to 4.86
ElecMinimize: Iter:  89  F: -2439.006640942945523  |grad|_K:  7.384e-07  alpha:  9.346e-02  linmin: -8.612e-08  t[s]:   7176.91
	FillingsUpdate:  mu: +0.102858509  nElectrons: 374.000000  magneticMoment: [ Abs: 45.26937  Tot: -0.00000 ]
	SubspaceRotationAdjust: set factor to 4.85
ElecMinimize: Iter:  90  F: -2439.006647416149917  |grad|_K:  5.571e-07  alpha:  7.149e-02  linmin:  3.384e-09  t[s]:   7249.53
	FillingsUpdate:  mu: +0.102878818  nElectrons: 374.000000  magneticMoment: [ Abs: 45.27124  Tot: -0.00000 ]
	SubspaceRotationAdjust: set factor to 6.02
ElecMinimize: Iter:  91  F: -2439.006655437442078  |grad|_K:  5.428e-07  alpha:  1.558e-01  linmin:  3.646e-06  t[s]:   7321.82
	FillingsUpdate:  mu: +0.102906382  nElectrons: 374.000000  magneticMoment: [ Abs: 45.27252  Tot: +0.00000 ]
	SubspaceRotationAdjust: set factor to 5.39
ElecMinimize: Iter:  92  F: -2439.006661697196705  |grad|_K:  7.067e-07  alpha:  1.282e-01  linmin: -3.038e-08  t[s]:   7397.33
	FillingsUpdate:  mu: +0.102848963  nElectrons: 374.000000  magneticMoment: [ Abs: 45.27386  Tot: +0.00000 ]
	SubspaceRotationAdjust: set factor to 4.43
ElecMinimize: Iter:  93  F: -2439.006665958156646  |grad|_K:  5.703e-07  alpha:  5.143e-02  linmin:  4.371e-07  t[s]:   7471.22
	FillingsUpdate:  mu: +0.102807217  nElectrons: 374.000000  magneticMoment: [ Abs: 45.27547  Tot: -0.00000 ]
	SubspaceRotationAdjust: set factor to 5.44
ElecMinimize: Iter:  94  F: -2439.006672736397832  |grad|_K:  4.965e-07  alpha:  1.257e-01  linmin:  1.182e-06  t[s]:   7542.99
	FillingsUpdate:  mu: +0.102900277  nElectrons: 374.000000  magneticMoment: [ Abs: 45.27620  Tot: +0.00000 ]
	SubspaceRotationAdjust: set factor to 5.55
ElecMinimize: Iter:  95  F: -2439.006678563958758  |grad|_K:  6.083e-07  alpha:  1.426e-01  linmin:  1.008e-06  t[s]:   7617.42
	FillingsUpdate:  mu: +0.102860849  nElectrons: 374.000000  magneticMoment: [ Abs: 45.27674  Tot: +0.00000 ]
	SubspaceRotationAdjust: set factor to 4.72
ElecMinimize: Iter:  96  F: -2439.006682197888949  |grad|_K:  5.632e-07  alpha:  5.912e-02  linmin: -1.502e-06  t[s]:   7690.95
	FillingsUpdate:  mu: +0.102777147  nElectrons: 374.000000  magneticMoment: [ Abs: 45.27659  Tot: +0.00000 ]
	SubspaceRotationAdjust: set factor to 5.31
ElecMinimize: Iter:  97  F: -2439.006687637469895  |grad|_K:  4.638e-07  alpha:  1.033e-01  linmin:  9.972e-07  t[s]:   7764.16
	FillingsUpdate:  mu: +0.102898995  nElectrons: 374.000000  magneticMoment: [ Abs: 45.27592  Tot: +0.00000 ]
	SubspaceRotationAdjust: set factor to 6.02
ElecMinimize: Iter:  98  F: -2439.006692669447148  |grad|_K:  4.768e-07  alpha:  1.411e-01  linmin:  7.452e-07  t[s]:   7837.31
	FillingsUpdate:  mu: +0.102848395  nElectrons: 374.000000  magneticMoment: [ Abs: 45.27573  Tot: +0.00000 ]
	SubspaceRotationAdjust: set factor to 5.2
ElecMinimize: Iter:  99  F: -2439.006696013464534  |grad|_K:  5.748e-07  alpha:  8.862e-02  linmin: -1.291e-07  t[s]:   7911.51
	FillingsUpdate:  mu: +0.102824446  nElectrons: 374.000000  magneticMoment: [ Abs: 45.27502  Tot: +0.00000 ]
	SubspaceRotationAdjust: set factor to 4.79
ElecMinimize: Iter: 100  F: -2439.006699322836994  |grad|_K:  4.402e-07  alpha:  6.032e-02  linmin: -5.279e-08  t[s]:   7985.92
	FillingsUpdate:  mu: +0.102899473  nElectrons: 374.000000  magneticMoment: [ Abs: 45.27385  Tot: +0.00000 ]
	SubspaceRotationAdjust: set factor to 5.82
ElecMinimize: Iter: 101  F: -2439.006703467224725  |grad|_K:  3.910e-07  alpha:  1.288e-01  linmin:  3.476e-07  t[s]:   8057.13
	FillingsUpdate:  mu: +0.102845426  nElectrons: 374.000000  magneticMoment: [ Abs: 45.27307  Tot: +0.00000 ]
	SubspaceRotationAdjust: set factor to 5.71
ElecMinimize: Iter: 102  F: -2439.006706962237786  |grad|_K:  4.635e-07  alpha:  1.377e-01  linmin: -1.444e-07  t[s]:   8130.53
	FillingsUpdate:  mu: +0.102852934  nElectrons: 374.000000  magneticMoment: [ Abs: 45.27259  Tot: +0.00000 ]
	SubspaceRotationAdjust: set factor to 4.98
ElecMinimize: Iter: 103  F: -2439.006709010443956  |grad|_K:  4.471e-07  alpha:  5.744e-02  linmin:  4.045e-07  t[s]:   8204.60
	FillingsUpdate:  mu: +0.102878480  nElectrons: 374.000000  magneticMoment: [ Abs: 45.27265  Tot: +0.00000 ]
	SubspaceRotationAdjust: set factor to 6.06
ElecMinimize: Iter: 104  F: -2439.006712333425185  |grad|_K:  3.598e-07  alpha:  1.002e-01  linmin:  2.332e-06  t[s]:   8277.76
	FillingsUpdate:  mu: +0.102882655  nElectrons: 374.000000  magneticMoment: [ Abs: 45.27321  Tot: +0.00000 ]
	SubspaceRotationAdjust: set factor to 7.2
ElecMinimize: Iter: 105  F: -2439.006715617980717  |grad|_K:  3.937e-07  alpha:  1.530e-01  linmin:  1.243e-06  t[s]:   8352.74
	FillingsUpdate:  mu: +0.102875456  nElectrons: 374.000000  magneticMoment: [ Abs: 45.27343  Tot: +0.00000 ]
	SubspaceRotationAdjust: set factor to 5.68
ElecMinimize: Iter: 106  F: -2439.006717482662225  |grad|_K:  4.985e-07  alpha:  7.251e-02  linmin: -2.138e-07  t[s]:   8422.15
	FillingsUpdate:  mu: +0.102839284  nElectrons: 374.000000  magneticMoment: [ Abs: 45.27411  Tot: +0.00000 ]
	SubspaceRotationAdjust: set factor to 5.57
ElecMinimize: Iter: 107  F: -2439.006719936739955  |grad|_K:  3.659e-07  alpha:  5.947e-02  linmin: -5.491e-08  t[s]:   8496.68
	FillingsUpdate:  mu: +0.102907723  nElectrons: 374.000000  magneticMoment: [ Abs: 45.27471  Tot: +0.00000 ]
	SubspaceRotationAdjust: set factor to 6.52
ElecMinimize: Iter: 108  F: -2439.006723022106144  |grad|_K:  3.538e-07  alpha:  1.388e-01  linmin:  1.347e-06  t[s]:   8568.65
	FillingsUpdate:  mu: +0.102833213  nElectrons: 374.000000  magneticMoment: [ Abs: 45.27540  Tot: +0.00000 ]
	SubspaceRotationAdjust: set factor to 7.1
ElecMinimize: Iter: 109  F: -2439.006725875524353  |grad|_K:  3.872e-07  alpha:  1.373e-01  linmin:  3.761e-07  t[s]:   8642.68
	FillingsUpdate:  mu: +0.102876152  nElectrons: 374.000000  magneticMoment: [ Abs: 45.27569  Tot: +0.00000 ]
	SubspaceRotationAdjust: set factor to 6.12
ElecMinimize: Iter: 110  F: -2439.006727780023994  |grad|_K:  4.705e-07  alpha:  7.650e-02  linmin: -1.709e-07  t[s]:   8718.76
	FillingsUpdate:  mu: +0.102944921  nElectrons: 374.000000  magneticMoment: [ Abs: 45.27546  Tot: -0.00000 ]
	SubspaceRotationAdjust: set factor to 5.26
ElecMinimize: Iter: 111  F: -2439.006729755130891  |grad|_K:  3.748e-07  alpha:  5.369e-02  linmin:  1.118e-07  t[s]:   8792.11
	FillingsUpdate:  mu: +0.102838983  nElectrons: 374.000000  magneticMoment: [ Abs: 45.27528  Tot: +0.00000 ]
	SubspaceRotationAdjust: set factor to 5.51
ElecMinimize: Iter: 112  F: -2439.006732321124673  |grad|_K:  3.427e-07  alpha:  1.101e-01  linmin:  3.631e-06  t[s]:   8867.30
	FillingsUpdate:  mu: +0.102914017  nElectrons: 374.000000  magneticMoment: [ Abs: 45.27464  Tot: +0.00000 ]
	SubspaceRotationAdjust: set factor to 5.93
ElecMinimize: Iter: 113  F: -2439.006734858382515  |grad|_K:  3.536e-07  alpha:  1.303e-01  linmin:  1.385e-06  t[s]:   8941.52
	FillingsUpdate:  mu: +0.102948064  nElectrons: 374.000000  magneticMoment: [ Abs: 45.27404  Tot: +0.00000 ]
	SubspaceRotationAdjust: set factor to 5.27
ElecMinimize: Iter: 114  F: -2439.006736528679994  |grad|_K:  4.113e-07  alpha:  8.049e-02  linmin: -1.486e-07  t[s]:   9014.15
	FillingsUpdate:  mu: +0.102900711  nElectrons: 374.000000  magneticMoment: [ Abs: 45.27374  Tot: +0.00000 ]
	SubspaceRotationAdjust: set factor to 4.69
ElecMinimize: Iter: 115  F: -2439.006738360518284  |grad|_K:  3.094e-07  alpha:  6.520e-02  linmin:  2.099e-07  t[s]:   9084.73
	FillingsUpdate:  mu: +0.102911771  nElectrons: 374.000000  magneticMoment: [ Abs: 45.27324  Tot: +0.00000 ]
	SubspaceRotationAdjust: set factor to 5.36
ElecMinimize: Iter: 116  F: -2439.006740503151377  |grad|_K:  2.834e-07  alpha:  1.348e-01  linmin:  1.823e-06  t[s]:   9157.78
	FillingsUpdate:  mu: +0.102968175  nElectrons: 374.000000  magneticMoment: [ Abs: 45.27292  Tot: -0.00000 ]
	SubspaceRotationAdjust: set factor to 5.57
ElecMinimize: Iter: 117  F: -2439.006742240434960  |grad|_K:  3.154e-07  alpha:  1.304e-01  linmin:  2.683e-07  t[s]:   9232.78
	FillingsUpdate:  mu: +0.102929407  nElectrons: 374.000000  magneticMoment: [ Abs: 45.27315  Tot: +0.00000 ]
	SubspaceRotationAdjust: set factor to 4.85
ElecMinimize: Iter: 118  F: -2439.006743363337591  |grad|_K:  3.098e-07  alpha:  6.801e-02  linmin:  7.745e-08  t[s]:   9306.87
	FillingsUpdate:  mu: +0.102895385  nElectrons: 374.000000  magneticMoment: [ Abs: 45.27343  Tot: +0.00000 ]
	SubspaceRotationAdjust: set factor to 4.76
ElecMinimize: Iter: 119  F: -2439.006744670959961  |grad|_K:  2.486e-07  alpha:  8.211e-02  linmin:  6.501e-07  t[s]:   9380.10
	FillingsUpdate:  mu: +0.102953797  nElectrons: 374.000000  magneticMoment: [ Abs: 45.27383  Tot: +0.00000 ]
	SubspaceRotationAdjust: set factor to 5.28
ElecMinimize: Iter: 120  F: -2439.006745923964900  |grad|_K:  2.216e-07  alpha:  1.221e-01  linmin: -1.473e-06  t[s]:   9455.33
	FillingsUpdate:  mu: +0.102930215  nElectrons: 374.000000  magneticMoment: [ Abs: 45.27436  Tot: +0.00000 ]
	SubspaceRotationAdjust: set factor to 5.91
ElecMinimize: Iter: 121  F: -2439.006747003991677  |grad|_K:  2.302e-07  alpha:  1.324e-01  linmin:  6.011e-07  t[s]:   9528.60
	FillingsUpdate:  mu: +0.102916472  nElectrons: 374.000000  magneticMoment: [ Abs: 45.27459  Tot: -0.00000 ]
	SubspaceRotationAdjust: set factor to 5.42
ElecMinimize: Iter: 122  F: -2439.006747675003226  |grad|_K:  2.514e-07  alpha:  7.627e-02  linmin: -1.878e-07  t[s]:   9602.35
	FillingsUpdate:  mu: +0.102908177  nElectrons: 374.000000  magneticMoment: [ Abs: 45.27501  Tot: +0.00000 ]
	SubspaceRotationAdjust: set factor to 5.42
ElecMinimize: Iter: 123  F: -2439.006748429191703  |grad|_K:  1.961e-07  alpha:  7.188e-02  linmin: -9.642e-08  t[s]:   9677.50
	FillingsUpdate:  mu: +0.102942955  nElectrons: 374.000000  magneticMoment: [ Abs: 45.27529  Tot: +0.00000 ]
	SubspaceRotationAdjust: set factor to 6.2
ElecMinimize: Iter: 124  F: -2439.006749208306246  |grad|_K:  1.829e-07  alpha:  1.222e-01  linmin:  2.759e-06  t[s]:   9749.43
	FillingsUpdate:  mu: +0.102896629  nElectrons: 374.000000  magneticMoment: [ Abs: 45.27559  Tot: +0.00000 ]
	SubspaceRotationAdjust: set factor to 7.13
ElecMinimize: Iter: 125  F: -2439.006749903081982  |grad|_K:  1.853e-07  alpha:  1.252e-01  linmin:  6.737e-08  t[s]:   9828.27
	FillingsUpdate:  mu: +0.102934182  nElectrons: 374.000000  magneticMoment: [ Abs: 45.27546  Tot: +0.00000 ]
	SubspaceRotationAdjust: set factor to 6.96
ElecMinimize: Iter: 126  F: -2439.006750528984412  |grad|_K:  2.076e-07  alpha:  1.098e-01  linmin:  9.743e-08  t[s]:   9902.12
ElecMinimize: Converged (|Delta F|<1.000000e-06 for 5 iters).
Setting wave functions to eigenvectors of Hamiltonian

# Ionic positions in lattice coordinates:
ion Co   0.000000000000000   0.000000000000000   0.150000000000000 1
ion Co   0.500000000000000   0.000000000000000   0.150000000000000 1
ion Co   0.000000000000000   0.500000000000000   0.150000000000000 1
ion Co   0.500000000000000   0.500000000000000   0.150000000000000 1
ion Co   0.250000000000000   0.250000000000000   0.050000000000000 1
ion Co   0.250000000000000   0.750000000000000   0.050000000000000 1
ion Co  -0.250000000000000   0.250000000000000   0.050000000000000 1
ion Co  -0.250000000000000   0.750000000000000   0.050000000000000 1
ion Co   0.000000000000000   0.000000000000000  -0.050000000000000 0
ion Co   0.500000000000000   0.000000000000000  -0.050000000000000 0
ion Co   0.000000000000000   0.500000000000000  -0.050000000000000 0
ion Co   0.500000000000000   0.500000000000000  -0.050000000000000 0
ion Co   0.250000000000000   0.250000000000000  -0.150000000000000 0
ion Co   0.250000000000000   0.750000000000000  -0.150000000000000 0
ion Co  -0.250000000000000   0.250000000000000  -0.150000000000000 0
ion Co  -0.250000000000000   0.750000000000000  -0.150000000000000 0
ion O   0.250000000000000   0.250000000000000   0.150000000000000 1
ion O   0.250000000000000   0.750000000000000   0.150000000000000 1
ion O  -0.250000000000000   0.250000000000000   0.150000000000000 1
ion O  -0.250000000000000   0.750000000000000   0.150000000000000 1
ion O   0.000000000000000   0.000000000000000   0.050000000000000 1
ion O   0.500000000000000   0.000000000000000   0.050000000000000 1
ion O   0.000000000000000   0.500000000000000   0.050000000000000 1
ion O   0.500000000000000   0.500000000000000   0.050000000000000 1
ion O   0.250000000000000   0.250000000000000  -0.050000000000000 0
ion O   0.250000000000000   0.750000000000000  -0.050000000000000 0
ion O  -0.250000000000000   0.250000000000000  -0.050000000000000 0
ion O  -0.250000000000000   0.750000000000000  -0.050000000000000 0
ion O   0.000000000000000   0.000000000000000  -0.150000000000000 0
ion O   0.500000000000000   0.000000000000000  -0.150000000000000 0
ion O   0.000000000000000   0.500000000000000  -0.150000000000000 0
ion O   0.500000000000000   0.500000000000000  -0.150000000000000 0
ion O   0.000000000000000   0.000000000000000   0.230000000000000 1

# Forces in Lattice coordinates:
force Co   0.014792523840739   0.007358405630751   1.246447749818222 1
force Co  -0.015185297476990   0.001941995666942   0.630567142497973 1
force Co  -0.025660938315829  -0.000506646097105   0.604029775880543 1
force Co  -0.020518617701900  -0.000214285658622   0.519219896696394 1
force Co   0.034288046785835   0.034534373062480   0.138209083552848 1
force Co   0.033861319485873  -0.033960991223682   0.132332497238612 1
force Co  -0.024452777566488   0.028616930521734   0.135029225837913 1
force Co  -0.023463216963582  -0.027171930672428   0.128571544897513 1
force Co  -0.010939101105506   0.000286587577549  -0.237052912367675 0
force Co  -0.002044208847551   0.000089866919128  -0.042595093848738 0
force Co  -0.001734672554798  -0.000148051064303  -0.039286536136119 0
force Co  -0.002869560596476   0.000137585094652  -0.038794361219334 0
force Co   0.026839676532926   0.000645468016693  -0.437398078190849 0
force Co   0.026859701760844  -0.000636393151009  -0.437123548232242 0
force Co   0.026117148738035  -0.000090404107508  -0.433784094383153 0
force Co   0.026062679161732   0.000085889758884  -0.435022929923293 0
force O   0.022070914652397   0.018066169752462  -0.032979619008387 1
force O   0.019152647566223  -0.015862492405088  -0.117476752990093 1
force O  -0.026808667929822   0.026084034679949  -0.131650045924193 1
force O  -0.026431994789987  -0.027292676156946  -0.026847828985570 1
force O  -0.008832921592640  -0.004870097610917   0.988131932485112 1
force O   0.003191085578943  -0.000421447776669  -0.101935599742103 1
force O   0.009643560752330   0.000266814619996  -0.117864788988826 1
force O   0.006267857782195   0.001676179807572  -0.070147902716100 1
force O  -0.019499829429150  -0.010284539239745   0.035609464545069 0
force O  -0.019781201301081   0.009357414139706   0.036610483036925 0
force O   0.000227293945707  -0.010459271866714   0.027327739278972 0
force O   0.000081012889685   0.010131702264005   0.033155182976994 0
force O  -0.001868280402876  -0.000177413768628  -0.445670179219775 0
force O  -0.003644394153097  -0.000082359446406  -0.461835498097908 0
force O  -0.003628521296985   0.000018463347845  -0.460370364731777 0
force O  -0.003766583217634   0.000053241092038  -0.453227550127421 0
force O  -0.007891859382807  -0.007112959884281  -0.172389620445827 1

# Energy components:
   Eewald =     6601.2088265333986783
       EH =     8803.7388630310142617
     Eloc =   -17934.9401514957353356
      Enl =     -753.6534557587681320
   Epulay =        0.0001959371989449
      Exc =     -282.4093523506411429
       KE =     1126.4059932001086963
        U =        0.6423305066053198
-------------------------------------
     Etot =    -2439.0067503968189158
       TS =        0.0000001321653511
-------------------------------------
        F =    -2439.0067505289844121

IonicMinimize: Iter:   0  F: -2439.006750528984412  |grad|_K:  6.901e-03  t[s]:   9910.79

#--- Lowdin population analysis ---
# oxidation-state Co +1.316 +1.308 +1.302 +1.291 +1.238 +1.236 +1.236 +1.237 +1.244 +1.238 +1.237 +1.240 +1.279 +1.279 +1.279 +1.279
# magnetic-moments Co +2.138 -2.759 +2.747 -2.734 +2.706 +2.704 -2.705 -2.704 -2.711 +2.706 -2.707 +2.706 -2.743 -2.743 +2.743 +2.743
# oxidation-state O -1.074 -1.073 -1.075 -1.075 -1.084 -1.130 -1.129 -1.122 -1.128 -1.127 -1.128 -1.127 -1.127 -1.128 -1.128 -1.127 -0.417
# magnetic-moments O +0.013 +0.039 -0.049 -0.068 -0.024 -0.009 +0.008 -0.016 -0.016 -0.016 +0.011 +0.011 -0.041 +0.038 -0.039 +0.037 +0.735


-------- Electronic minimization -----------
	FillingsUpdate:  mu: +0.124556498  nElectrons: 374.000000  magneticMoment: [ Abs: 45.27558  Tot: -0.00000 ]
ElecMinimize: Iter:   0  F: -2438.742844570924262  |grad|_K:  1.133e-04  alpha:  1.000e+00
	FillingsUpdate:  mu: +0.106514307  nElectrons: 374.000000  magneticMoment: [ Abs: 45.28314  Tot: +0.00000 ]
	SubspaceRotationAdjust: set factor to 9.21
ElecMinimize: Iter:   1  F: -2438.808008489184886  |grad|_K:  8.786e-05  alpha:  1.967e-02  linmin: -2.686e-03  t[s]:  10008.44
	FillingsUpdate:  mu: +0.140657667  nElectrons: 374.000000  magneticMoment: [ Abs: 45.31448  Tot: +0.00000 ]
	SubspaceRotationAdjust: set factor to 4.78
ElecMinimize: Iter:   2  F: -2438.898693462326719  |grad|_K:  1.993e-04  alpha:  4.785e-02  linmin:  2.230e-03  t[s]:  10080.40
	FillingsUpdate:  mu: +0.132274147  nElectrons: 374.000000  magneticMoment: [ Abs: 45.32937  Tot: -0.00000 ]
	SubspaceRotationAdjust: set factor to 2.47
ElecMinimize: Iter:   3  F: -2438.908646776335445  |grad|_K:  1.523e-04  alpha:  2.987e-03  linmin: -3.961e-04  t[s]:  10152.88
	FillingsUpdate:  mu: +0.138688217  nElectrons: 374.000000  magneticMoment: [ Abs: 45.33682  Tot: -0.00000 ]
	SubspaceRotationAdjust: set factor to 1.3
ElecMinimize: Iter:   4  F: -2438.938650956394667  |grad|_K:  7.964e-05  alpha:  6.546e-03  linmin: -2.406e-03  t[s]:  10225.19
	FillingsUpdate:  mu: +0.120114476  nElectrons: 374.000000  magneticMoment: [ Abs: 45.31665  Tot: +0.00000 ]
	SubspaceRotationAdjust: set factor to 0.786
	SubspaceRotationAdjust: resetting CG because factor has changed by 0.112902
ElecMinimize: 	State modified externally: resetting search direction.
ElecMinimize: Iter:   5  F: -2438.965151102008804  |grad|_K:  3.028e-05  alpha:  1.842e-02
ElecMinimize: 	Predicted alpha/alphaT>3.000000, increasing alphaT to 5.526212e-02.
ElecMinimize: 	Predicted alpha/alphaT>3.000000, increasing alphaT to 1.657864e-01.
	FillingsUpdate:  mu: +0.102209621  nElectrons: 374.000000  magneticMoment: [ Abs: 45.28799  Tot: +0.00000 ]
	SubspaceRotationAdjust: set factor to 0.4
ElecMinimize: Iter:   6  F: -2438.990621994704270  |grad|_K:  1.258e-05  alpha:  1.673e-01  linmin: -5.916e-05  t[s]:  10445.72
	FillingsUpdate:  mu: +0.102203390  nElectrons: 374.000000  magneticMoment: [ Abs: 45.28251  Tot: +0.00000 ]
	SubspaceRotationAdjust: set factor to 0.497
ElecMinimize: Iter:   7  F: -2439.002999995850587  |grad|_K:  8.698e-06  alpha:  4.757e-01  linmin:  1.706e-04  t[s]:  10518.56
	FillingsUpdate:  mu: +0.104417551  nElectrons: 374.000000  magneticMoment: [ Abs: 45.27595  Tot: +0.00000 ]
	SubspaceRotationAdjust: set factor to 0.601
ElecMinimize: Iter:   8  F: -2439.006835062851678  |grad|_K:  5.443e-06  alpha:  3.129e-01  linmin:  8.438e-07  t[s]:  10591.00
	FillingsUpdate:  mu: +0.104028098  nElectrons: 374.000000  magneticMoment: [ Abs: 45.27147  Tot: +0.00000 ]
	SubspaceRotationAdjust: set factor to 0.734
ElecMinimize: Iter:   9  F: -2439.008372143000088  |grad|_K:  2.996e-06  alpha:  3.125e-01  linmin: -1.120e-05  t[s]:  10665.14
	FillingsUpdate:  mu: +0.103220658  nElectrons: 374.000000  magneticMoment: [ Abs: 45.27026  Tot: +0.00000 ]
	SubspaceRotationAdjust: set factor to 0.804
ElecMinimize: Iter:  10  F: -2439.008819919044527  |grad|_K:  1.739e-06  alpha:  3.001e-01  linmin:  1.159e-05  t[s]:  10739.92
	FillingsUpdate:  mu: +0.103702560  nElectrons: 374.000000  magneticMoment: [ Abs: 45.26778  Tot: +0.00000 ]
	SubspaceRotationAdjust: set factor to 0.904
ElecMinimize: Iter:  11  F: -2439.008968007028670  |grad|_K:  9.894e-07  alpha:  2.953e-01  linmin: -2.874e-06  t[s]:  10812.70
	FillingsUpdate:  mu: +0.103559015  nElectrons: 374.000000  magneticMoment: [ Abs: 45.26642  Tot: +0.00000 ]
	SubspaceRotationAdjust: set factor to 1.04
ElecMinimize: Iter:  12  F: -2439.009017008231694  |grad|_K:  6.011e-07  alpha:  3.014e-01  linmin:  7.090e-07  t[s]:  10887.36
	FillingsUpdate:  mu: +0.103441615  nElectrons: 374.000000  magneticMoment: [ Abs: 45.26531  Tot: -0.00000 ]
	SubspaceRotationAdjust: set factor to 1.19
ElecMinimize: Iter:  13  F: -2439.009033774800628  |grad|_K:  3.683e-07  alpha:  2.795e-01  linmin:  1.539e-07  t[s]:  10961.93
	FillingsUpdate:  mu: +0.103529447  nElectrons: 374.000000  magneticMoment: [ Abs: 45.26409  Tot: +0.00000 ]
	SubspaceRotationAdjust: set factor to 1.31
ElecMinimize: Iter:  14  F: -2439.009040840915077  |grad|_K:  2.601e-07  alpha:  3.137e-01  linmin:  6.310e-07  t[s]:  11032.70
	FillingsUpdate:  mu: +0.103446769  nElectrons: 374.000000  magneticMoment: [ Abs: 45.26332  Tot: +0.00000 ]
	SubspaceRotationAdjust: set factor to 1.44
ElecMinimize: Iter:  15  F: -2439.009044307506429  |grad|_K:  2.240e-07  alpha:  3.086e-01  linmin: -3.848e-07  t[s]:  11109.31
	FillingsUpdate:  mu: +0.103459847  nElectrons: 374.000000  magneticMoment: [ Abs: 45.26221  Tot: -0.00000 ]
	SubspaceRotationAdjust: set factor to 1.29
ElecMinimize: Iter:  16  F: -2439.009046741794918  |grad|_K:  2.136e-07  alpha:  2.922e-01  linmin: -3.050e-06  t[s]:  11183.26
	FillingsUpdate:  mu: +0.103463834  nElectrons: 374.000000  magneticMoment: [ Abs: 45.26144  Tot: -0.00000 ]
	SubspaceRotationAdjust: set factor to 1.07
ElecMinimize: Iter:  17  F: -2439.009048527309915  |grad|_K:  1.746e-07  alpha:  2.357e-01  linmin: -2.069e-06  t[s]:  11256.80
	FillingsUpdate:  mu: +0.103505707  nElectrons: 374.000000  magneticMoment: [ Abs: 45.26041  Tot: +0.00000 ]
	SubspaceRotationAdjust: set factor to 1.16
ElecMinimize: Iter:  18  F: -2439.009050120207576  |grad|_K:  1.423e-07  alpha:  3.147e-01  linmin: -2.252e-06  t[s]:  11329.08
	FillingsUpdate:  mu: +0.103457515  nElectrons: 374.000000  magneticMoment: [ Abs: 45.25972  Tot: -0.00000 ]
	SubspaceRotationAdjust: set factor to 1.38
ElecMinimize: Iter:  19  F: -2439.009051268983512  |grad|_K:  1.184e-07  alpha:  3.416e-01  linmin: -1.156e-06  t[s]:  11400.78
	FillingsUpdate:  mu: +0.103460304  nElectrons: 374.000000  magneticMoment: [ Abs: 45.25915  Tot: -0.00000 ]
	SubspaceRotationAdjust: set factor to 1.57
ElecMinimize: Iter:  20  F: -2439.009052202653947  |grad|_K:  1.163e-07  alpha:  4.008e-01  linmin: -1.315e-06  t[s]:  11472.48
	FillingsUpdate:  mu: +0.103488852  nElectrons: 374.000000  magneticMoment: [ Abs: 45.25869  Tot: +0.00000 ]
	SubspaceRotationAdjust: set factor to 1.45
ElecMinimize: Iter:  21  F: -2439.009052924808202  |grad|_K:  1.305e-07  alpha:  3.216e-01  linmin:  2.381e-09  t[s]:  11547.00
	FillingsUpdate:  mu: +0.103444788  nElectrons: 374.000000  magneticMoment: [ Abs: 45.25857  Tot: -0.00000 ]
	SubspaceRotationAdjust: set factor to 1.18
ElecMinimize: Iter:  22  F: -2439.009053564369424  |grad|_K:  1.195e-07  alpha:  2.264e-01  linmin: -1.021e-06  t[s]:  11622.09
	FillingsUpdate:  mu: +0.103438558  nElectrons: 374.000000  magneticMoment: [ Abs: 45.25835  Tot: +0.00000 ]
	SubspaceRotationAdjust: set factor to 1.31
ElecMinimize: Iter:  23  F: -2439.009054332507731  |grad|_K:  1.052e-07  alpha:  3.239e-01  linmin:  1.867e-06  t[s]:  11693.86
	FillingsUpdate:  mu: +0.103467736  nElectrons: 374.000000  magneticMoment: [ Abs: 45.25827  Tot: +0.00000 ]
	SubspaceRotationAdjust: set factor to 1.54
ElecMinimize: Iter:  24  F: -2439.009055147640083  |grad|_K:  1.092e-07  alpha:  4.434e-01  linmin: -2.958e-06  t[s]:  11765.86
ElecMinimize: Converged (|Delta F|<1.000000e-06 for 5 iters).
Setting wave functions to eigenvectors of Hamiltonian
IonicMinimize: 	Wolfe criterion not satisfied: alpha: 1  (E-E0)/|gdotd0|: -0.948998  gdotd/gdotd0: 0.902773 (taking cubic step)

-------- Electronic minimization -----------
	FillingsUpdate:  mu: +0.175392361  nElectrons: 374.000000  magneticMoment: [ Abs: 45.25883  Tot: +0.00000 ]
ElecMinimize: Iter:   0  F: -2437.950439779900535  |grad|_K:  1.928e-04  alpha:  1.000e+00
	FillingsUpdate:  mu: +0.110727840  nElectrons: 374.000000  magneticMoment: [ Abs: 45.28114  Tot: +0.00000 ]
	SubspaceRotationAdjust: set factor to 1.55
ElecMinimize: Iter:   1  F: -2438.762199969789890  |grad|_K:  8.380e-05  alpha:  9.845e-02  linmin: -9.113e-03  t[s]:  11869.69
	FillingsUpdate:  mu: +0.119478053  nElectrons: 374.000000  magneticMoment: [ Abs: 45.27503  Tot: +0.00000 ]
	SubspaceRotationAdjust: set factor to 1.31
ElecMinimize: Iter:   2  F: -2438.971958366311355  |grad|_K:  3.144e-05  alpha:  1.318e-01  linmin: -2.107e-04  t[s]:  11942.71
	FillingsUpdate:  mu: +0.101428416  nElectrons: 374.000000  magneticMoment: [ Abs: 45.25665  Tot: -0.00000 ]
	SubspaceRotationAdjust: set factor to 1.14
ElecMinimize: Iter:   3  F: -2438.992851685188725  |grad|_K:  1.897e-05  alpha:  1.274e-01  linmin: -8.746e-04  t[s]:  12016.53
	FillingsUpdate:  mu: +0.100216004  nElectrons: 374.000000  magneticMoment: [ Abs: 45.25717  Tot: +0.00000 ]
	SubspaceRotationAdjust: set factor to 1.42
ElecMinimize: Iter:   4  F: -2439.006837906688816  |grad|_K:  9.764e-06  alpha:  2.148e-01  linmin:  2.165e-04  t[s]:  12089.51
	FillingsUpdate:  mu: +0.107297160  nElectrons: 374.000000  magneticMoment: [ Abs: 45.24753  Tot: -0.00000 ]
	SubspaceRotationAdjust: set factor to 1.3
ElecMinimize: Iter:   5  F: -2439.010563735914729  |grad|_K:  5.778e-06  alpha:  2.399e-01  linmin:  1.070e-04  t[s]:  12162.02
	FillingsUpdate:  mu: +0.106008951  nElectrons: 374.000000  magneticMoment: [ Abs: 45.24191  Tot: +0.00000 ]
	SubspaceRotationAdjust: set factor to 1.19
ElecMinimize: Iter:   6  F: -2439.011852697901759  |grad|_K:  3.593e-06  alpha:  2.346e-01  linmin: -2.371e-05  t[s]:  12237.74
	FillingsUpdate:  mu: +0.103927228  nElectrons: 374.000000  magneticMoment: [ Abs: 45.24261  Tot: +0.00000 ]
	SubspaceRotationAdjust: set factor to 0.83
ElecMinimize: Iter:   7  F: -2439.012219452641148  |grad|_K:  2.345e-06  alpha:  1.705e-01  linmin:  7.950e-06  t[s]:  12311.67
	FillingsUpdate:  mu: +0.104572089  nElectrons: 374.000000  magneticMoment: [ Abs: 45.23923  Tot: +0.00000 ]
	SubspaceRotationAdjust: set factor to 0.934
ElecMinimize: Iter:   8  F: -2439.012458832170068  |grad|_K:  1.522e-06  alpha:  2.625e-01  linmin:  1.770e-05  t[s]:  12384.19
	FillingsUpdate:  mu: +0.105305882  nElectrons: 374.000000  magneticMoment: [ Abs: 45.23707  Tot: +0.00000 ]
	SubspaceRotationAdjust: set factor to 0.993
ElecMinimize: Iter:   9  F: -2439.012572338080190  |grad|_K:  1.202e-06  alpha:  2.956e-01  linmin:  6.201e-06  t[s]:  12458.39
	FillingsUpdate:  mu: +0.105017451  nElectrons: 374.000000  magneticMoment: [ Abs: 45.23671  Tot: +0.00000 ]
	SubspaceRotationAdjust: set factor to 0.933
ElecMinimize: Iter:  10  F: -2439.012640184086649  |grad|_K:  9.758e-07  alpha:  2.830e-01  linmin:  2.109e-05  t[s]:  12531.81
	FillingsUpdate:  mu: +0.104990624  nElectrons: 374.000000  magneticMoment: [ Abs: 45.23572  Tot: -0.00000 ]
	SubspaceRotationAdjust: set factor to 0.929
ElecMinimize: Iter:  11  F: -2439.012679753185239  |grad|_K:  6.614e-07  alpha:  2.506e-01  linmin:  4.538e-06  t[s]:  12604.31
	FillingsUpdate:  mu: +0.104989500  nElectrons: 374.000000  magneticMoment: [ Abs: 45.23521  Tot: +0.00000 ]
	SubspaceRotationAdjust: set factor to 1.17
ElecMinimize: Iter:  12  F: -2439.012702078144684  |grad|_K:  4.716e-07  alpha:  3.075e-01  linmin: -2.550e-06  t[s]:  12678.36
	FillingsUpdate:  mu: +0.104961778  nElectrons: 374.000000  magneticMoment: [ Abs: 45.23524  Tot: +0.00000 ]
	SubspaceRotationAdjust: set factor to 1.13
ElecMinimize: Iter:  13  F: -2439.012712744440250  |grad|_K:  4.326e-07  alpha:  2.888e-01  linmin:  9.196e-06  t[s]:  12751.02
	FillingsUpdate:  mu: +0.105140480  nElectrons: 374.000000  magneticMoment: [ Abs: 45.23503  Tot: +0.00000 ]
	SubspaceRotationAdjust: set factor to 1.05
ElecMinimize: Iter:  14  F: -2439.012720651142445  |grad|_K:  3.640e-07  alpha:  2.546e-01  linmin:  8.186e-06  t[s]:  12825.90
	FillingsUpdate:  mu: +0.105064017  nElectrons: 374.000000  magneticMoment: [ Abs: 45.23549  Tot: +0.00000 ]
	SubspaceRotationAdjust: set factor to 1.22
ElecMinimize: Iter:  15  F: -2439.012728793397400  |grad|_K:  3.117e-07  alpha:  3.705e-01  linmin: -6.881e-06  t[s]:  12899.65
	FillingsUpdate:  mu: +0.105071187  nElectrons: 374.000000  magneticMoment: [ Abs: 45.23570  Tot: +0.00000 ]
	SubspaceRotationAdjust: set factor to 1.38
ElecMinimize: Iter:  16  F: -2439.012735016498937  |grad|_K:  2.877e-07  alpha:  3.856e-01  linmin: -5.636e-06  t[s]:  12973.62
	FillingsUpdate:  mu: +0.105170452  nElectrons: 374.000000  magneticMoment: [ Abs: 45.23553  Tot: +0.00000 ]
	SubspaceRotationAdjust: set factor to 1.23
ElecMinimize: Iter:  17  F: -2439.012738871966576  |grad|_K:  2.705e-07  alpha:  2.801e-01  linmin:  2.817e-06  t[s]:  13046.70
	FillingsUpdate:  mu: +0.105073804  nElectrons: 374.000000  magneticMoment: [ Abs: 45.23576  Tot: +0.00000 ]
	SubspaceRotationAdjust: set factor to 0.973
ElecMinimize: Iter:  18  F: -2439.012741340863613  |grad|_K:  2.138e-07  alpha:  2.031e-01  linmin:  1.307e-06  t[s]:  13119.19
	FillingsUpdate:  mu: +0.105090663  nElectrons: 374.000000  magneticMoment: [ Abs: 45.23584  Tot: +0.00000 ]
	SubspaceRotationAdjust: set factor to 1.06
ElecMinimize: Iter:  19  F: -2439.012743748341109  |grad|_K:  1.630e-07  alpha:  3.173e-01  linmin: -1.487e-06  t[s]:  13194.42
	FillingsUpdate:  mu: +0.105141152  nElectrons: 374.000000  magneticMoment: [ Abs: 45.23590  Tot: +0.00000 ]
	SubspaceRotationAdjust: set factor to 1.14
ElecMinimize: Iter:  20  F: -2439.012745352763432  |grad|_K:  1.400e-07  alpha:  3.636e-01  linmin: -2.163e-06  t[s]:  13269.42
	FillingsUpdate:  mu: +0.105100579  nElectrons: 374.000000  magneticMoment: [ Abs: 45.23610  Tot: -0.00000 ]
	SubspaceRotationAdjust: set factor to 1.06
ElecMinimize: Iter:  21  F: -2439.012746283651722  |grad|_K:  1.259e-07  alpha:  2.860e-01  linmin:  3.726e-06  t[s]:  13342.33
	FillingsUpdate:  mu: +0.105123805  nElectrons: 374.000000  magneticMoment: [ Abs: 45.23617  Tot: +0.00000 ]
	SubspaceRotationAdjust: set factor to 0.951
ElecMinimize: Iter:  22  F: -2439.012746941160458  |grad|_K:  1.019e-07  alpha:  2.499e-01  linmin:  1.033e-06  t[s]:  13414.47
	FillingsUpdate:  mu: +0.105117946  nElectrons: 374.000000  magneticMoment: [ Abs: 45.23639  Tot: +0.00000 ]
	SubspaceRotationAdjust: set factor to 1.11
ElecMinimize: Iter:  23  F: -2439.012747532630783  |grad|_K:  8.570e-08  alpha:  3.430e-01  linmin: -9.111e-06  t[s]:  13487.23
	FillingsUpdate:  mu: +0.105122517  nElectrons: 374.000000  magneticMoment: [ Abs: 45.23658  Tot: +0.00000 ]
	SubspaceRotationAdjust: set factor to 1.28
ElecMinimize: Iter:  24  F: -2439.012747989794661  |grad|_K:  8.262e-08  alpha:  3.745e-01  linmin:  2.379e-06  t[s]:  13560.42
	FillingsUpdate:  mu: +0.105138770  nElectrons: 374.000000  magneticMoment: [ Abs: 45.23671  Tot: +0.00000 ]
	SubspaceRotationAdjust: set factor to 1.26
ElecMinimize: Iter:  25  F: -2439.012748377575463  |grad|_K:  9.601e-08  alpha:  3.423e-01  linmin:  1.642e-06  t[s]:  13637.06
ElecMinimize: Converged (|Delta F|<1.000000e-06 for 5 iters).
Setting wave functions to eigenvectors of Hamiltonian

# Ionic positions in lattice coordinates:
ion Co   0.000345834650524   0.000172032282464   0.152331257743959 1
ion Co   0.499644982688377   0.000045401947634   0.151179363141575 1
ion Co  -0.000599927485676   0.499988155112825   0.151129729740223 1
ion Co   0.499520294909876   0.499994990212173   0.150971108018902 1
ion Co   0.250801620792030   0.250807379657976   0.050258495389289 1
ion Co   0.250791644327687   0.749206025445167   0.050247504284885 1
ion Co  -0.250571681876271   0.250669035674549   0.050252548033755 1
ion Co  -0.250548546923171   0.749364746999948   0.050240470095709 1
ion Co   0.000000000000000   0.000000000000000  -0.050000000000000 0
ion Co   0.500000000000000   0.000000000000000  -0.050000000000000 0
ion Co   0.000000000000000   0.500000000000000  -0.050000000000000 0
ion Co   0.500000000000000   0.500000000000000  -0.050000000000000 0
ion Co   0.250000000000000   0.250000000000000  -0.150000000000000 0
ion Co   0.250000000000000   0.750000000000000  -0.150000000000000 0
ion Co  -0.250000000000000   0.250000000000000  -0.150000000000000 0
ion Co  -0.250000000000000   0.750000000000000  -0.150000000000000 0
ion O   0.250515996265258   0.250422369270445   0.149938317516946 1
ion O   0.250447770052561   0.749629150537365   0.149780280729631 1
ion O  -0.250626760274606   0.250609819062313   0.149753772118327 1
ion O  -0.250617954027269   0.749361924089342   0.149949785934276 1
ion O  -0.000206505014627  -0.000113858089629   0.051848124175277 1
ion O   0.500074604440586  -0.000009853034285   0.049809347679180 1
ion O   0.000225456960455   0.500006237863251   0.049779554977647 1
ion O   0.500146536346940   0.500039187434424   0.049868800885193 1
ion O   0.250000000000000   0.250000000000000  -0.050000000000000 0
ion O   0.250000000000000   0.750000000000000  -0.050000000000000 0
ion O  -0.250000000000000   0.250000000000000  -0.050000000000000 0
ion O  -0.250000000000000   0.750000000000000  -0.050000000000000 0
ion O   0.000000000000000   0.000000000000000  -0.150000000000000 0
ion O   0.500000000000000   0.000000000000000  -0.150000000000000 0
ion O   0.000000000000000   0.500000000000000  -0.150000000000000 0
ion O   0.500000000000000   0.500000000000000  -0.150000000000000 0
ion O  -0.000184503906232  -0.000166294002447   0.229677576025388 1

# Forces in Lattice coordinates:
force Co   0.008028431471702   0.002210735788058   0.539208959370172 1
force Co  -0.005443970324231  -0.000607995558300   0.424657483305020 1
force Co  -0.018690323445844   0.001368513267806   0.407162816502081 1
force Co  -0.014431904998631   0.001645154350871   0.397727644860605 1
force Co   0.015283985096383   0.011736234294882   0.087458702294296 1
force Co   0.014687232589346  -0.011409049287823   0.076735440744926 1
[...]
ion Co  -0.250000000000000   0.250000000000000  -0.150000000000000 0
ion Co  -0.250000000000000   0.750000000000000  -0.150000000000000 0
ion O   0.248497784875994   0.252456058407376   0.167953649173998 1
ion O   0.246924317875816   0.744808541171996   0.167484492933731 1
ion O  -0.260355165263034   0.253188187796229   0.167751225345025 1
ion O  -0.258759349890751   0.745986935481652   0.167297337078416 1
ion O  -0.004939696092400  -0.002120098432428   0.052773828318649 1
ion O   0.496452322226459  -0.002048973070072   0.057323358615921 1
ion O  -0.004375554916768   0.497005236415358   0.058331858681727 1
ion O   0.494508971772340   0.497823647326771   0.053574105072135 1
ion O   0.250000000000000   0.250000000000000  -0.050000000000000 0
ion O   0.250000000000000   0.750000000000000  -0.050000000000000 0
ion O  -0.250000000000000   0.250000000000000  -0.050000000000000 0
ion O  -0.250000000000000   0.750000000000000  -0.050000000000000 0
ion O   0.000000000000000   0.000000000000000  -0.150000000000000 0
ion O   0.500000000000000   0.000000000000000  -0.150000000000000 0
ion O   0.000000000000000   0.500000000000000  -0.150000000000000 0
ion O   0.500000000000000   0.500000000000000  -0.150000000000000 0
ion O  -0.008835860502483   0.000734647446937   0.286661434214121 1
ion H   0.080930457295760   0.117673818381215   0.305732750533216 1

# Forces in Lattice coordinates:
force Co  -0.003096083538795   0.002477588527912  -0.016814956212301 1
force Co  -0.003791467329833   0.004582077496570  -0.011518146887710 1
force Co  -0.007346615120675  -0.001772574645719  -0.015201129834565 1
force Co  -0.003617048686179  -0.003030487268444  -0.013935941308788 1
force Co  -0.006775849947188  -0.004409977502645   0.004755962870259 1
force Co  -0.006617175796849   0.003211142587003  -0.002562683054711 1
force Co   0.002238810258888  -0.004051727235587  -0.002009983782567 1
force Co   0.002466713474891   0.002603220000447  -0.000037001476855 1
force Co  -0.008857972581946  -0.001543383036872   0.551597801135483 0
force Co  -0.004224354717371  -0.001450512861341   0.561442683114817 0
force Co  -0.008591138258701  -0.004721668197782   0.546121048420764 0
force Co  -0.002172328976492  -0.004698711032760   0.534855658592708 0
force Co   0.016109645713722  -0.006711744667483  -0.341934563035514 0
force Co   0.016092438564944   0.006529606517066  -0.343947959847888 0
force Co   0.038312733200164  -0.006037564529524  -0.339928808476330 0
force Co   0.038190556743822   0.005613418353561  -0.343963793679151 0
force O  -0.003932052248633  -0.001528010687444  -0.022358527298322 1
force O  -0.001932611154017   0.000431016368239  -0.029299297311420 1
force O  -0.005279218579840  -0.000467099385015  -0.052702316180842 1
force O  -0.003702923623410  -0.001450897372360  -0.002587139294498 1
force O   0.006399479091348  -0.001614995863115   0.083266595322684 1
force O  -0.005479358669645  -0.003021415587707   0.012856046680936 1
force O   0.001876631178939   0.003339105197926  -0.001058151508666 1
force O  -0.002740524825260   0.000761823251567   0.008957751222781 1
force O   0.005993822181404   0.014546855149823   0.269668417997885 0
force O   0.006060055760666  -0.019192332055320   0.275277632103752 0
force O  -0.035900049030272   0.016497149152776   0.250841419018370 0
force O  -0.035272850406587  -0.020854421419350   0.261919347931871 0
force O  -0.003761254798026   0.000153889645078  -0.535397103745982 0
force O  -0.006233475591590   0.000037570059065  -0.474694190914815 0
force O  -0.001600195460319   0.000753865120020  -0.521396997391371 0
force O  -0.007171662214073   0.000715986186788  -0.392787974954111 0
force O   0.026605471617042   0.035221530783520   0.062902837916109 1
force H  -0.033853370965944  -0.030970764932772  -0.067034410228003 1

# Energy components:
   Eewald =     5715.6415429490825773
       EH =     7919.5113186517637587
     Eloc =   -16165.2629010206910607
      Enl =     -753.5647165179880176
   Epulay =        0.0001960516836434
      Exc =     -282.4241732315558124
       KE =     1125.8133331610601999
        U =        0.5707222830956494
-------------------------------------
     Etot =    -2439.7146776735480671
       TS =        0.0005546309226689
-------------------------------------
        F =    -2439.7152323044706463

IonicMinimize: Iter:  30  F: -2439.715232304470646  |grad|_K:  9.429e-04  alpha:  1.000e+00  linmin:  2.649e-02  t[s]:  83582.83

#--- Lowdin population analysis ---
# oxidation-state Co +1.360 +1.296 +1.290 +1.286 +1.267 +1.266 +1.268 +1.268 +1.260 +1.255 +1.263 +1.258 +1.278 +1.278 +1.278 +1.278
# magnetic-moments Co +2.822 -2.769 +2.759 -2.738 +2.740 +2.740 -2.750 -2.750 -2.736 +2.708 -2.740 +2.680 -2.744 -2.744 +2.742 +2.742
# oxidation-state O -1.106 -1.115 -1.099 -1.115 -1.116 -1.119 -1.126 -1.097 -1.123 -1.123 -1.123 -1.123 -1.125 -1.117 -1.126 -1.108 -0.827
# magnetic-moments O +0.050 +0.031 -0.003 -0.024 -0.059 -0.032 -0.018 -0.065 -0.048 -0.048 +0.015 +0.015 -0.045 +0.009 -0.050 -0.012 +0.318
# oxidation-state H +0.399
# magnetic-moments H -0.004


-------- Electronic minimization -----------
	FillingsUpdate:  mu: +0.119793044  nElectrons: 375.000000  magneticMoment: [ Abs: 45.65265  Tot: +0.00000 ]
ElecMinimize: Iter:   0  F: -2439.589819084011197  |grad|_K:  6.489e-05  alpha:  1.000e+00
	FillingsUpdate:  mu: +0.110460382  nElectrons: 375.000000  magneticMoment: [ Abs: 45.73593  Tot: -0.00000 ]
	SubspaceRotationAdjust: set factor to 0.812
ElecMinimize: Iter:   1  F: -2439.702065444150776  |grad|_K:  2.245e-05  alpha:  1.674e-01  linmin:  3.237e-03  t[s]:  83679.81
	FillingsUpdate:  mu: +0.092585754  nElectrons: 375.000000  magneticMoment: [ Abs: 45.66464  Tot: -0.00000 ]
	SubspaceRotationAdjust: set factor to 0.557
ElecMinimize: Iter:   2  F: -2439.711137996479920  |grad|_K:  7.929e-06  alpha:  1.137e-01  linmin: -9.102e-04  t[s]:  83758.57
	FillingsUpdate:  mu: +0.094359027  nElectrons: 375.000000  magneticMoment: [ Abs: 45.65057  Tot: -0.00000 ]
	SubspaceRotationAdjust: set factor to 0.782
ElecMinimize: Iter:   3  F: -2439.713702344566627  |grad|_K:  4.695e-06  alpha:  2.359e-01  linmin:  2.172e-04  t[s]:  83831.76
	FillingsUpdate:  mu: +0.093165082  nElectrons: 375.000000  magneticMoment: [ Abs: 45.66855  Tot: -0.00000 ]
	SubspaceRotationAdjust: set factor to 0.714
ElecMinimize: Iter:   4  F: -2439.714580282074166  |grad|_K:  2.889e-06  alpha:  2.413e-01  linmin: -9.571e-05  t[s]:  83905.87
	FillingsUpdate:  mu: +0.092547940  nElectrons: 375.000000  magneticMoment: [ Abs: 45.65832  Tot: +0.00000 ]
	SubspaceRotationAdjust: set factor to 0.876
ElecMinimize: Iter:   5  F: -2439.714986978729939  |grad|_K:  1.997e-06  alpha:  2.911e-01  linmin:  1.609e-05  t[s]:  83981.60
	FillingsUpdate:  mu: +0.092911355  nElectrons: 375.000000  magneticMoment: [ Abs: 45.65332  Tot: +0.00000 ]
	SubspaceRotationAdjust: set factor to 1.02
ElecMinimize: Iter:   6  F: -2439.715171101723172  |grad|_K:  1.335e-06  alpha:  2.772e-01  linmin:  5.619e-06  t[s]:  84056.46
	FillingsUpdate:  mu: +0.092886093  nElectrons: 375.000000  magneticMoment: [ Abs: 45.65911  Tot: -0.00000 ]
	SubspaceRotationAdjust: set factor to 0.77
ElecMinimize: Iter:   7  F: -2439.715241937592964  |grad|_K:  9.442e-07  alpha:  2.385e-01  linmin: -1.498e-05  t[s]:  84133.70
	FillingsUpdate:  mu: +0.092726905  nElectrons: 375.000000  magneticMoment: [ Abs: 45.65499  Tot: +0.00000 ]
	SubspaceRotationAdjust: set factor to 0.618
ElecMinimize: Iter:   8  F: -2439.715269653165706  |grad|_K:  4.860e-07  alpha:  1.860e-01  linmin:  7.060e-06  t[s]:  84207.56
	FillingsUpdate:  mu: +0.092689728  nElectrons: 375.000000  magneticMoment: [ Abs: 45.65440  Tot: +0.00000 ]
	SubspaceRotationAdjust: set factor to 0.69
ElecMinimize: Iter:   9  F: -2439.715281727480487  |grad|_K:  2.883e-07  alpha:  3.068e-01  linmin: -3.305e-08  t[s]:  84282.07
	FillingsUpdate:  mu: +0.092743414  nElectrons: 375.000000  magneticMoment: [ Abs: 45.65504  Tot: -0.00000 ]
	SubspaceRotationAdjust: set factor to 0.61
ElecMinimize: Iter:  10  F: -2439.715285894180852  |grad|_K:  2.078e-07  alpha:  3.006e-01  linmin:  9.787e-07  t[s]:  84356.56
	FillingsUpdate:  mu: +0.092750544  nElectrons: 375.000000  magneticMoment: [ Abs: 45.65400  Tot: +0.00000 ]
	SubspaceRotationAdjust: set factor to 0.596
ElecMinimize: Iter:  11  F: -2439.715288072362910  |grad|_K:  1.540e-07  alpha:  3.026e-01  linmin:  3.083e-06  t[s]:  84429.83
	FillingsUpdate:  mu: +0.092719103  nElectrons: 375.000000  magneticMoment: [ Abs: 45.65375  Tot: -0.00000 ]
	SubspaceRotationAdjust: set factor to 0.659
ElecMinimize: Iter:  12  F: -2439.715289478552677  |grad|_K:  1.132e-07  alpha:  3.558e-01  linmin:  9.815e-07  t[s]:  84504.03
	FillingsUpdate:  mu: +0.092742194  nElectrons: 375.000000  magneticMoment: [ Abs: 45.65370  Tot: +0.00000 ]
	SubspaceRotationAdjust: set factor to 0.693
ElecMinimize: Iter:  13  F: -2439.715290253556759  |grad|_K:  9.149e-08  alpha:  3.626e-01  linmin: -4.930e-07  t[s]:  84578.39
	FillingsUpdate:  mu: +0.092752680  nElectrons: 375.000000  magneticMoment: [ Abs: 45.65319  Tot: +0.00000 ]
	SubspaceRotationAdjust: set factor to 0.689
ElecMinimize: Iter:  14  F: -2439.715290662888492  |grad|_K:  6.433e-08  alpha:  2.931e-01  linmin:  7.716e-06  t[s]:  84650.83
	FillingsUpdate:  mu: +0.092731144  nElectrons: 375.000000  magneticMoment: [ Abs: 45.65318  Tot: +0.00000 ]
	SubspaceRotationAdjust: set factor to 0.777
ElecMinimize: Iter:  15  F: -2439.715290905020993  |grad|_K:  4.859e-08  alpha:  3.509e-01  linmin: -2.574e-05  t[s]:  84724.46
	FillingsUpdate:  mu: +0.092737478  nElectrons: 375.000000  magneticMoment: [ Abs: 45.65310  Tot: +0.00000 ]
	SubspaceRotationAdjust: set factor to 0.947
ElecMinimize: Iter:  16  F: -2439.715291039980457  |grad|_K:  4.139e-08  alpha:  3.419e-01  linmin: -2.047e-06  t[s]:  84796.03
	FillingsUpdate:  mu: +0.092740178  nElectrons: 375.000000  magneticMoment: [ Abs: 45.65292  Tot: +0.00000 ]
	SubspaceRotationAdjust: set factor to 1.1
ElecMinimize: Iter:  17  F: -2439.715291162511221  |grad|_K:  4.426e-08  alpha:  4.285e-01  linmin: -1.687e-05  t[s]:  84866.87
ElecMinimize: Converged (|Delta F|<1.000000e-06 for 5 iters).
Setting wave functions to eigenvectors of Hamiltonian

# Ionic positions in lattice coordinates:
ion Co  -0.002518157777430  -0.009016619980089   0.194636720151469 1
ion Co   0.494214091932149  -0.001388451827412   0.167330467138871 1
ion Co  -0.007292763963869   0.496919849208189   0.166562637603358 1
ion Co   0.494463969625133   0.499434677515900   0.172604205275570 1
ion Co   0.245690830273929   0.245913958751762   0.060911636051017 1
ion Co   0.245462693440129   0.750241457883442   0.060927251025468 1
ion Co  -0.251179417781276   0.246362486644981   0.061391696877620 1
ion Co  -0.251067843375539   0.749764238285516   0.060989941885172 1
ion Co   0.000000000000000   0.000000000000000  -0.050000000000000 0
ion Co   0.500000000000000   0.000000000000000  -0.050000000000000 0
ion Co   0.000000000000000   0.500000000000000  -0.050000000000000 0
ion Co   0.500000000000000   0.500000000000000  -0.050000000000000 0
ion Co   0.250000000000000   0.250000000000000  -0.150000000000000 0
ion Co   0.250000000000000   0.750000000000000  -0.150000000000000 0
ion Co  -0.250000000000000   0.250000000000000  -0.150000000000000 0
ion Co  -0.250000000000000   0.750000000000000  -0.150000000000000 0
ion O   0.248589423522277   0.252587597786454   0.167822992215659 1
ion O   0.247008148510571   0.744677632764390   0.167241122331870 1
ion O  -0.260662227941102   0.253341661143327   0.167501092342228 1
ion O  -0.258961359902564   0.745827986286323   0.167123057620880 1
ion O  -0.004678911787411  -0.002132494958670   0.053245430931515 1
ion O   0.496469989382159  -0.002092935086198   0.057328282202455 1
ion O  -0.004329655119398   0.497051781637233   0.058342673497591 1
ion O   0.494542687338489   0.497717033434325   0.053556457659007 1
ion O   0.250000000000000   0.250000000000000  -0.050000000000000 0
ion O   0.250000000000000   0.750000000000000  -0.050000000000000 0
ion O  -0.250000000000000   0.250000000000000  -0.050000000000000 0
ion O  -0.250000000000000   0.750000000000000  -0.050000000000000 0
ion O   0.000000000000000   0.000000000000000  -0.150000000000000 0
ion O   0.500000000000000   0.000000000000000  -0.150000000000000 0
ion O   0.000000000000000   0.500000000000000  -0.150000000000000 0
ion O   0.500000000000000   0.500000000000000  -0.150000000000000 0
ion O  -0.008701524711879   0.001319686439882   0.286181159677606 1
ion H   0.081179743551279   0.117551334157708   0.305189335934896 1

# Forces in Lattice coordinates:
force Co  -0.003223904408747   0.002118851504784   0.020989543153064 1
force Co  -0.001921137863514   0.002938295891062   0.013730850050418 1
force Co  -0.005906679103968  -0.000692597947404   0.014070534176168 1
force Co  -0.002674107908559  -0.001195312861992   0.010004263834617 1
force Co  -0.002913160108817  -0.000494352894780   0.013038037117998 1
force Co  -0.003066868317202  -0.000571077017812   0.007525917472480 1
force Co   0.000261680481178  -0.000697028094105   0.007424861385103 1
force Co   0.000574983631103  -0.000465317765606   0.018763189596602 1
force Co  -0.008768842479733  -0.001189964905862   0.566715013900838 0
force Co  -0.004901884837949  -0.001063498634642   0.567801095784311 0
force Co  -0.008363121087487  -0.005107027038412   0.553103968321353 0
force Co  -0.002793364697755  -0.005254666724235   0.545261979750089 0
force Co   0.016193565943347  -0.006640712494145  -0.352605678156527 0
force Co   0.016166611576384   0.006450641532733  -0.355113879318928 0
force Co   0.038275692286081  -0.005985743998136  -0.351215380257536 0
force Co   0.038158752765265   0.005568388121073  -0.355945478805639 0
force O  -0.007335278019323  -0.003081924484492  -0.011179289923483 1
force O  -0.004834955486348   0.001771548820453  -0.005195101691025 1
force O  -0.002557376230378  -0.002983188456994  -0.032314762864056 1
force O  -0.002175569356764   0.001019355992042   0.009897054688410 1
force O   0.002168875567976  -0.002335990796281   0.025703508176466 1
force O  -0.005151047584058  -0.003072929517562   0.004257860673901 1
force O   0.000243113925565   0.002577845371448  -0.009240163571684 1
force O  -0.002929623595458   0.000742769630506  -0.001124971474134 1
force O   0.004793925850678   0.013451860183550   0.270269888940276 0
force O   0.004925278346595  -0.018160827009714   0.275961560543219 0
force O  -0.034352089337473   0.015155626861760   0.252974796609733 0
force O  -0.033609010523704  -0.019540337741097   0.264492863699545 0
force O  -0.003837180556542   0.000113043634167  -0.534531450399445 0
force O  -0.006079500367578   0.000009481880803  -0.475849120629521 0
force O  -0.001823888838086   0.000781456864151  -0.520238508554618 0
force O  -0.007072540883169   0.000759454064254  -0.392557219301979 0
force O   0.005377969951550   0.011028044421597   0.016347904726942 1
force H  -0.015606291034427  -0.006842311595727  -0.019462955695941 1

# Energy components:
   Eewald =     5723.2874511383570280
       EH =     7927.1286831861980318
     Eloc =   -16180.5347165352268348
      Enl =     -753.5697048819026804
   Epulay =        0.0001960516836434
      Exc =     -282.4290043641740340
       KE =     1125.8314438130360031
        U =        0.5709085070032471
-------------------------------------
     Etot =    -2439.7147430850263845
       TS =        0.0005480774850399
-------------------------------------
        F =    -2439.7152911625112210

IonicMinimize: Iter:  31  F: -2439.715291162511221  |grad|_K:  3.885e-04  alpha:  1.000e+00  linmin: -5.332e-03  t[s]:  84875.84
IonicMinimize: Converged (|Delta F|<1.000000e-04 for 3 iters).

#--- Lowdin population analysis ---
# oxidation-state Co +1.360 +1.296 +1.291 +1.287 +1.267 +1.266 +1.267 +1.268 +1.260 +1.255 +1.262 +1.258 +1.278 +1.278 +1.278 +1.278
# magnetic-moments Co +2.821 -2.769 +2.759 -2.737 +2.739 +2.739 -2.750 -2.749 -2.736 +2.708 -2.740 +2.680 -2.744 -2.744 +2.742 +2.742
# oxidation-state O -1.106 -1.114 -1.100 -1.115 -1.117 -1.119 -1.126 -1.097 -1.123 -1.123 -1.123 -1.123 -1.125 -1.117 -1.127 -1.108 -0.825
# magnetic-moments O +0.049 +0.031 -0.004 -0.025 -0.059 -0.032 -0.018 -0.066 -0.048 -0.048 +0.015 +0.015 -0.045 +0.010 -0.050 -0.012 +0.320
# oxidation-state H +0.400
# magnetic-moments H -0.004


Dumping 'OH.ionpos' ... done
Dumping 'OH.lattice' ... done
Dumping 'OH.Ecomponents' ... done
End date and time: Sun Mar 30 05:15:51 2025  (Duration: 0-23:34:38.78)
Done!
File 'min_progress.txt' has been deleted.
File 'min_details.txt' does not exist, so it cannot be deleted.
File 'O_pos.txt' does not exist, so it cannot be deleted.
File 'OH_pos.txt' does not exist, so it cannot be deleted.
Directory 'runs' has been deleted.
File '/data2/jt577/March_2025/pure_RSO/ionic_relax_magnetism/pure_CoO/runs/wavefunctions/O.wfns' does not exist and cannot be copied.
File '/data2/jt577/March_2025/pure_RSO/ionic_relax_magnetism/pure_CoO/runs/wavefunctions/OH.wfns' does not exist and cannot be copied.
File '/data2/jt577/March_2025/pure_RSO/ionic_relax_magnetism/pure_CoO/runs/calc_20250328-135646/O/O.wfns' does not exist and cannot be copied.
File '/data2/jt577/March_2025/pure_RSO/ionic_relax_magnetism/pure_CoO/runs/calc_20250328-135646/OH/OH.wfns' does not exist and cannot be copied.
File '/data2/jt577/March_2025/pure_RSO/ionic_relax_magnetism/pure_CoO/runs/calc_20250328-135646/O/O.ionpos' has been copied to '/data2/jt577/March_2025/pure_RSO/ionic_relax_magnetism/pure_CoO/runs/positions/O.ionpos'.
File '/data2/jt577/March_2025/pure_RSO/ionic_relax_magnetism/pure_CoO/runs/calc_20250328-135646/O/O.lattice' has been copied to '/data2/jt577/March_2025/pure_RSO/ionic_relax_magnetism/pure_CoO/runs/positions/O.lattice'.
File '/data2/jt577/March_2025/pure_RSO/ionic_relax_magnetism/pure_CoO/runs/calc_20250328-135646/OH/OH.ionpos' has been copied to '/data2/jt577/March_2025/pure_RSO/ionic_relax_magnetism/pure_CoO/runs/positions/OH.ionpos'.
File '/data2/jt577/March_2025/pure_RSO/ionic_relax_magnetism/pure_CoO/runs/calc_20250328-135646/OH/OH.lattice' has been copied to '/data2/jt577/March_2025/pure_RSO/ionic_relax_magnetism/pure_CoO/runs/positions/OH.lattice'.
File '/data2/jt577/March_2025/pure_RSO/ionic_relax_magnetism/pure_CoO/runs/wavefunctions/O.wfns' does not exist and cannot be copied.
File '/data2/jt577/March_2025/pure_RSO/ionic_relax_magnetism/pure_CoO/runs/wavefunctions/OH.wfns' does not exist and cannot be copied.
Traceback (most recent call last):
  File "/data2/jt577/March_2025/pure_RSO/ionic_relax_magnetism/pure_CoO/main.py", line 246, in <module>
    x, _, unique_folder = mn.PBFGS(fun=cost, x0=x, jac=grad_cost, args=(elements, target, eta, q, first_iteration, generic_inputs, lattice, positions_ordered, ads_O_pos, ads_OH_pos), S=num_species, B=quasi_Hessian, folder=unique_folder, progress_file_path=progress_file_path, details_file_path=details_file_path, maxit=maxit, tol=1e-2, callback=callback_func)
  File "/data2/jt577/March_2025/pure_RSO/ionic_relax_magnetism/pure_CoO/modules/minimize.py", line 162, in PBFGS
    unique_folder = bs.perform_calc(x, *args)
  File "/data2/jt577/March_2025/pure_RSO/ionic_relax_magnetism/pure_CoO/modules/bsruncalc.py", line 152, in perform_calc
    energy_surface(w, adsorbate='O', elements=elements, folder=unique_folder, first_iteration=first_iteration, generic_inputs=generic_inputs, lattice=lattice, positions_ordered=positions_ordered, ads_O_pos=ads_O_pos, ads_OH_pos=ads_OH_pos)
  File "/data2/jt577/March_2025/pure_RSO/ionic_relax_magnetism/pure_CoO/modules/bsruncalc.py", line 128, in energy_surface
    write_input_surface(weights, adsorbate, elements, folder, first_iteration, generic_inputs, lattice, positions_ordered, ads_O_pos, ads_OH_pos)
  File "/data2/jt577/March_2025/pure_RSO/ionic_relax_magnetism/pure_CoO/modules/bsruncalc.py", line 82, in write_input_surface
    curr_line = mixed_lines[i]
IndexError: list index out of range
