
*************** JDFTx 1.7.0  ***************

Start date and time: Sun May 18 23:28:27 2025
Executable /data2/jt577/jdftx_eat_withLibXC/build/jdftx with command-line: -i /data2/jt577/May_2025/Relax_Mag_litU/pure_CrO/runs/calc_20250516-211208/OH/OH.in
Running on hosts (process indices):  node3402 (0-8)
Divided in process groups (process indices):  0 (0)  1 (1)  2 (2)  3 (3)  4 (4)  5 (5)  6 (6)  7 (7)  8 (8)
Resource initialization completed at t[s]:      0.00
Run totals: 9 processes, 90 threads, 0 GPUs


Input parsed successfully to the following command list (including defaults):

add-mix 
add-U 	Cr d 0.128623
basis kpoint-dependent
coords-type Lattice
core-overlap-check vector
coulomb-interaction Periodic
davidson-band-ratio 1.1
dump End IonicPositions Lattice Ecomponents
dump-name OH.$VAR
elec-cutoff 30
elec-eigen-algo Davidson
elec-ex-corr gga-x-rpbe gga-c-pbe
elec-smearing Fermi 0.001
electronic-minimize  \
	dirUpdateScheme      FletcherReeves \
	linminMethod         DirUpdateRecommended \
	nIterations          1000 \
	history              15 \
	knormThreshold       0 \
	energyDiffThreshold  1e-06 \
	nEnergyDiff          5 \
	alphaTstart          1 \
	alphaTmin            1e-10 \
	updateTestStepSize   yes \
	alphaTreduceFactor   0.1 \
	alphaTincreaseFactor 3 \
	nAlphaAdjustMax      3 \
	wolfeEnergy          0.0001 \
	wolfeGradient        0.9 \
	fdTest               no
exchange-regularization WignerSeitzTruncated
fluid None
fluid-ex-corr (null) lda-PZ
fluid-gummel-loop 10 1.000000e-05
fluid-minimize  \
	dirUpdateScheme      PolakRibiere \
	linminMethod         DirUpdateRecommended \
	nIterations          100 \
	history              15 \
	knormThreshold       0 \
	energyDiffThreshold  0 \
	nEnergyDiff          2 \
	alphaTstart          1 \
	alphaTmin            1e-10 \
	updateTestStepSize   yes \
	alphaTreduceFactor   0.1 \
	alphaTincreaseFactor 3 \
	nAlphaAdjustMax      3 \
	wolfeEnergy          0.0001 \
	wolfeGradient        0.9 \
	fdTest               no
fluid-solvent H2O 55.338 ScalarEOS \
	epsBulk 78.4 \
	pMol 0.92466 \
	epsInf 1.77 \
	Pvap 1.06736e-10 \
	sigmaBulk 4.62e-05 \
	Rvdw 2.61727 \
	Res 1.42 \
	tauNuc 343133 \
	poleEl 15 7 1
forces-output-coords Positions
initial-magnetic-moments  \
	Cr 1 -1 1 -1 1 1 -1 -1 -1 1 -1 1 -1 -1 1 1
initial-state OH.$VAR
ion Cr  0.000000000000000   0.000000000000000   0.150000000000000 1
ion Cr  0.500000000000000   0.000000000000000   0.150000000000000 1
ion Cr  0.000000000000000   0.500000000000000   0.150000000000000 1
ion Cr  0.500000000000000   0.500000000000000   0.150000000000000 1
ion Cr  0.250000000000000   0.250000000000000   0.050000000000000 1
ion Cr  0.250000000000000   0.750000000000000   0.050000000000000 1
ion Cr -0.250000000000000   0.250000000000000   0.050000000000000 1
ion Cr -0.250000000000000   0.750000000000000   0.050000000000000 1
ion Cr  0.000000000000000   0.000000000000000  -0.050000000000000 0
ion Cr  0.500000000000000   0.000000000000000  -0.050000000000000 0
ion Cr  0.000000000000000   0.500000000000000  -0.050000000000000 0
ion Cr  0.500000000000000   0.500000000000000  -0.050000000000000 0
ion Cr  0.250000000000000   0.250000000000000  -0.150000000000000 0
ion Cr  0.250000000000000   0.750000000000000  -0.150000000000000 0
ion Cr -0.250000000000000   0.250000000000000  -0.150000000000000 0
ion Cr -0.250000000000000   0.750000000000000  -0.150000000000000 0
ion O  0.250000000000000   0.250000000000000   0.150000000000000 1
ion O  0.250000000000000   0.750000000000000   0.150000000000000 1
ion O -0.250000000000000   0.250000000000000   0.150000000000000 1
ion O -0.250000000000000   0.750000000000000   0.150000000000000 1
ion O  0.000000000000000   0.000000000000000   0.050000000000000 1
ion O  0.500000000000000   0.000000000000000   0.050000000000000 1
ion O  0.000000000000000   0.500000000000000   0.050000000000000 1
ion O  0.500000000000000   0.500000000000000   0.050000000000000 1
ion O  0.250000000000000   0.250000000000000  -0.050000000000000 0
ion O  0.250000000000000   0.750000000000000  -0.050000000000000 0
ion O -0.250000000000000   0.250000000000000  -0.050000000000000 0
ion O -0.250000000000000   0.750000000000000  -0.050000000000000 0
ion O  0.000000000000000   0.000000000000000  -0.150000000000000 0
ion O  0.500000000000000   0.000000000000000  -0.150000000000000 0
ion O  0.000000000000000   0.500000000000000  -0.150000000000000 0
ion O  0.500000000000000   0.500000000000000  -0.150000000000000 0
ion O  0.000000000000000   0.000000000000000   0.230000000000000 1
ion H  0.100000000000000   0.100000000000000   0.250000000000000 1
ion-species SG15/$ID_ONCV_PBE.upf
ion-width 0
ionic-minimize  \
	dirUpdateScheme      L-BFGS \
	linminMethod         DirUpdateRecommended \
	nIterations          1000 \
	history              15 \
	knormThreshold       0.0001 \
	energyDiffThreshold  0.0001 \
	nEnergyDiff          3 \
	alphaTstart          1 \
	alphaTmin            1e-10 \
	updateTestStepSize   yes \
	alphaTreduceFactor   0.1 \
	alphaTincreaseFactor 3 \
	nAlphaAdjustMax      3 \
	wolfeEnergy          0.0001 \
	wolfeGradient        0.9 \
	fdTest               no
kpoint   0.500000000000   0.500000000000   0.500000000000  1.00000000000000
kpoint-folding 3 3 1 
latt-move-scale 1 1 1
latt-scale 1 1 1 
lattice  \
	   8.410000000000000    8.410000000000000    0.000000000000000  \
	   8.410000000000000   -8.410000000000000    0.000000000000000  \
	   0.000000000000000    0.000000000000000   42.049999999999997 
lattice-minimize  \
	dirUpdateScheme      L-BFGS \
	linminMethod         DirUpdateRecommended \
	nIterations          0 \
	history              15 \
	knormThreshold       0 \
	energyDiffThreshold  1e-06 \
	nEnergyDiff          2 \
	alphaTstart          1 \
	alphaTmin            1e-10 \
	updateTestStepSize   yes \
	alphaTreduceFactor   0.1 \
	alphaTincreaseFactor 3 \
	nAlphaAdjustMax      3 \
	wolfeEnergy          0.0001 \
	wolfeGradient        0.9 \
	fdTest               no
lcao-params -1 1e-06 0.001
pcm-variant GLSSA13
spintype z-spin
subspace-rotation-factor 1 yes
symmetries none
symmetry-threshold 0.0001


Applied RMS atom displacement 0 bohrs to make symmetries exact.

---------- Initializing the Grid ----------
R = 
[         8.41         8.41            0  ]
[         8.41        -8.41            0  ]
[            0            0        42.05  ]
unit cell volume = 5948.23
G =
[   0.373554   0.373554         -0  ]
[   0.373554  -0.373554         -0  ]
[         -0         -0   0.149422  ]
Minimum fftbox size, Smin = [  60  60  208  ]
Chosen fftbox size, S = [  60  60  210  ]

---------- Exchange Correlation functional ----------
Initialized LibXC exchange functional 'Hammer, Hansen, and Norskov'
Initialized LibXC correlation functional 'Perdew, Burke & Ernzerhof'

---------- Setting up pseudopotentials ----------
Width of ionic core gaussian charges (only for fluid interactions / plotting) set to 0

Reading pseudopotential file '/data2/jt577/jdftx_eat_withLibXC/build/pseudopotentials/SG15/Cr_ONCV_PBE.upf':
  'Cr' pseudopotential, 'PBE' functional
  Generated using ONCVPSP code by D. R. Hamann
  Author: Martin Schlipf and Francois Gygi  Date: 150915.
  14 valence electrons, 4 orbitals, 6 projectors, 1160 radial grid points, with lMax = 2
  Transforming local potential to a uniform radial grid of dG=0.02 with 1373 points.
  Transforming nonlocal projectors to a uniform radial grid of dG=0.02 with 528 points.
    3S    l: 0   occupation:  2.0   eigenvalue: -2.865131
    3P    l: 1   occupation:  6.0   eigenvalue: -1.810600
    4S    l: 0   occupation:  2.0   eigenvalue: -0.180525
    3D    l: 2   occupation:  4.0   eigenvalue: -0.220312
  Transforming atomic orbitals to a uniform radial grid of dG=0.02 with 528 points.
  WARNING: large normalization error in atomic orbital 1s (integral: 0.000001).
  Core radius for overlap checks: 2.10 bohrs.
  Reading pulay file /data2/jt577/jdftx_eat_withLibXC/build/pseudopotentials/SG15/Cr_ONCV_PBE.pulay ... using dE_dnG = -9.817895e-06 computed for Ecut = 30.

Reading pseudopotential file '/data2/jt577/jdftx_eat_withLibXC/build/pseudopotentials/SG15/O_ONCV_PBE.upf':
  'O' pseudopotential, 'PBE' functional
  Generated using ONCVPSP code by D. R. Hamann
  Author: Martin Schlipf and Francois Gygi  Date: 150915.
  6 valence electrons, 2 orbitals, 4 projectors, 936 radial grid points, with lMax = 1
  Transforming local potential to a uniform radial grid of dG=0.02 with 1373 points.
  Transforming nonlocal projectors to a uniform radial grid of dG=0.02 with 528 points.
    2S    l: 0   occupation:  2.0   eigenvalue: -0.880572
    2P    l: 1   occupation:  4.0   eigenvalue: -0.331869
  Transforming atomic orbitals to a uniform radial grid of dG=0.02 with 528 points.
  Core radius for overlap checks: 1.29 bohrs.
  Reading pulay file /data2/jt577/jdftx_eat_withLibXC/build/pseudopotentials/SG15/O_ONCV_PBE.pulay ... using dE_dnG = -8.209514e-03 computed for Ecut = 30.

Reading pseudopotential file '/data2/jt577/jdftx_eat_withLibXC/build/pseudopotentials/SG15/H_ONCV_PBE.upf':
  'H' pseudopotential, 'PBE' functional
  Generated using ONCVPSP code by D. R. Hamann
  Author: Martin Schlipf and Francois Gygi  Date: 150915.
  1 valence electrons, 1 orbitals, 2 projectors, 1166 radial grid points, with lMax = 0
  Transforming local potential to a uniform radial grid of dG=0.02 with 1373 points.
  Transforming nonlocal projectors to a uniform radial grid of dG=0.02 with 528 points.
    1S    l: 0   occupation:  1.0   eigenvalue: -0.238602
  Transforming atomic orbitals to a uniform radial grid of dG=0.02 with 528 points.
  Core radius for overlap checks: 1.01 bohrs.
  Reading pulay file /data2/jt577/jdftx_eat_withLibXC/build/pseudopotentials/SG15/H_ONCV_PBE.pulay ... using dE_dnG = -8.245991e-05 computed for Ecut = 30.

Initialized 3 species with 34 total atoms.

Folded 1 k-points by 3x3x1 to 9 k-points.

---------- Setting up k-points, bands, fillings ----------
No reducable k-points. 
Computing the number of bands and number of electrons
Calculating initial fillings.
nElectrons: 327.000000   nBands: 229   nStates: 18

----- Setting up reduced wavefunction bases (one per k-point) -----
average nbasis = 46667.556 , ideal nbasis = 46683.549

---------- Setting up ewald sum ----------
Optimum gaussian width for ewald sums = 4.015993 bohr.
Real space sum over 605 unit cells with max indices [  5  5  2  ]
Reciprocal space sum over 5915 terms with max indices [  6  6  17  ]

---------- Allocating electronic variables ----------
Initializing wave functions:  linear combination of atomic orbitals
Cr (M=1) pseudo-atom majority spin occupations:   s ( 1 0 )  p ( 3 )  d ( 3.5 )
Cr (M=1) pseudo-atom minority spin occupations:   s ( 1 0 )  p ( 3 )  d ( 2.5 )
O pseudo-atom occupations:   s ( 2 )  p ( 4 )
H pseudo-atom occupations:   s ( 1 )
	FillingsUpdate:  mu: +0.663702779  nElectrons: 327.000000  magneticMoment: [ Abs: 0.69195  Tot: -0.00000 ]
LCAOMinimize: Iter:   0  F: -1481.3416714367690474  |grad|_K:  1.292e-02  alpha:  1.000e+00
LCAOMinimize: 	Step increased F by 7.108297e+01, reducing alpha to 2.483273e-02.
	FillingsUpdate:  mu: +0.481491514  nElectrons: 327.000000  magneticMoment: [ Abs: 0.81110  Tot: -0.00000 ]
LCAOMinimize: Iter:   1  F: -1484.9997131241657371  |grad|_K:  1.187e-02  alpha:  2.483e-02  linmin: -9.027e-02  cgtest:  7.906e-01  t[s]:     54.50
LCAOMinimize: 	Wrong curvature in test step, increasing alphaT to 7.449819e-02.
	FillingsUpdate:  mu: +0.404338765  nElectrons: 327.000000  magneticMoment: [ Abs: 0.96614  Tot: -0.00000 ]
LCAOMinimize: Iter:   2  F: -1488.9656250743846613  |grad|_K:  1.181e-02  alpha: -2.157e-01  linmin: -8.248e-02  cgtest:  8.716e-01  t[s]:     68.95
LCAOMinimize: 	Step increased F by 2.238653e+01, reducing alpha to 3.948234e-02.
	FillingsUpdate:  mu: +0.339935558  nElectrons: 327.000000  magneticMoment: [ Abs: 1.31363  Tot: -0.00000 ]
LCAOMinimize: Iter:   3  F: -1494.6891990557276131  |grad|_K:  1.075e-02  alpha:  3.948e-02  linmin: -1.318e-01  cgtest:  9.232e-01  t[s]:     94.97
LCAOMinimize: Encountered beta<0, resetting CG.
LCAOMinimize: 	Wrong curvature in test step, increasing alphaT to 1.184470e-01.
	FillingsUpdate:  mu: +0.315075116  nElectrons: 327.000000  magneticMoment: [ Abs: 1.95900  Tot: +0.00000 ]
LCAOMinimize: Iter:   4  F: -1499.6215431580592394  |grad|_K:  1.190e-02  alpha: -1.452e-01  linmin: -1.409e-01  cgtest:  7.458e-01  t[s]:    109.12
LCAOMinimize: 	Step increased F by 1.119777e+02, reducing alpha to 3.336328e-02.
	FillingsUpdate:  mu: +0.227527372  nElectrons: 327.000000  magneticMoment: [ Abs: 3.43613  Tot: -0.00000 ]
LCAOMinimize: Iter:   5  F: -1506.8346244286965430  |grad|_K:  1.309e-02  alpha:  3.336e-02  linmin: -1.265e-01  cgtest:  5.884e-01  t[s]:    134.93
	FillingsUpdate:  mu: +0.347609131  nElectrons: 327.000000  magneticMoment: [ Abs: 8.94030  Tot: -0.00000 ]
LCAOMinimize: Iter:   6  F: -1511.9656367873087675  |grad|_K:  3.517e-02  alpha:  3.741e-02  linmin:  1.066e-02  cgtest: -3.790e-01  t[s]:    150.15
LCAOMinimize: 	Step increased F by 5.890558e+00, reducing alpha to 5.460945e-04.
	FillingsUpdate:  mu: +0.355840980  nElectrons: 327.000000  magneticMoment: [ Abs: 9.70158  Tot: -0.00000 ]
LCAOMinimize: Iter:   7  F: -1512.1446553293235411  |grad|_K:  3.560e-02  alpha:  5.461e-04  linmin: -2.333e-03  cgtest:  1.014e+00  t[s]:    175.95
LCAOMinimize: Encountered beta<0, resetting CG.
LCAOMinimize: 	Predicted alpha/alphaT>3.000000, increasing alphaT to 1.638284e-03.
LCAOMinimize: 	Predicted alpha/alphaT>3.000000, increasing alphaT to 4.914851e-03.
	FillingsUpdate:  mu: +0.090367925  nElectrons: 327.000000  magneticMoment: [ Abs: 9.79910  Tot: +0.00000 ]
LCAOMinimize: Iter:   8  F: -1515.7557982188488950  |grad|_K:  1.031e-02  alpha:  6.715e-03  linmin:  1.881e-01  cgtest: -7.668e-01  t[s]:    199.91
LCAOMinimize: 	Bad step direction: g.d > 0.
LCAOMinimize: 	Undoing step.
LCAOMinimize: 	Step failed: resetting search direction.
	FillingsUpdate:  mu: +0.090367925  nElectrons: 327.000000  magneticMoment: [ Abs: 9.79910  Tot: +0.00000 ]
LCAOMinimize: Iter:   9  F: -1515.7557982188488950  |grad|_K:  1.031e-02  alpha:  0.000e+00
	FillingsUpdate:  mu: -0.005555802  nElectrons: 327.000000  magneticMoment: [ Abs: 9.94566  Tot: -0.00000 ]
LCAOMinimize: Iter:  10  F: -1516.0457729820286659  |grad|_K:  3.287e-03  alpha:  5.740e-03  linmin: -1.825e-03  cgtest:  2.286e-02  t[s]:    226.28
LCAOMinimize: 	Predicted alpha/alphaT>3.000000, increasing alphaT to 1.721897e-02.
	FillingsUpdate:  mu: +0.064062622  nElectrons: 327.000000  magneticMoment: [ Abs: 10.11948  Tot: -0.00000 ]
LCAOMinimize: Iter:  11  F: -1516.2337074539952937  |grad|_K:  3.008e-03  alpha:  3.634e-02  linmin: -1.997e-03  cgtest: -4.659e-02  t[s]:    246.01
	FillingsUpdate:  mu: +0.016579657  nElectrons: 327.000000  magneticMoment: [ Abs: 10.70307  Tot: -0.00000 ]
LCAOMinimize: Iter:  12  F: -1516.3509205572065639  |grad|_K:  3.232e-03  alpha:  2.698e-02  linmin: -1.249e-04  cgtest: -6.502e-02  t[s]:    261.33
	FillingsUpdate:  mu: -0.014113431  nElectrons: 327.000000  magneticMoment: [ Abs: 11.01027  Tot: -0.00000 ]
LCAOMinimize: Iter:  13  F: -1516.4005915804616507  |grad|_K:  1.830e-03  alpha:  9.853e-03  linmin: -7.965e-04  cgtest:  5.897e-02  t[s]:    276.56
LCAOMinimize: 	Predicted alpha/alphaT>3.000000, increasing alphaT to 2.956038e-02.
	FillingsUpdate:  mu: -0.015861369  nElectrons: 327.000000  magneticMoment: [ Abs: 11.53401  Tot: -0.00000 ]
LCAOMinimize: Iter:  14  F: -1516.4660234582452176  |grad|_K:  9.443e-04  alpha:  3.990e-02  linmin: -1.639e-02  cgtest:  6.741e-02  t[s]:    296.24
LCAOMinimize: 	Predicted alpha/alphaT>3.000000, increasing alphaT to 1.196938e-01.
	FillingsUpdate:  mu: -0.031152033  nElectrons: 327.000000  magneticMoment: [ Abs: 11.64333  Tot: -0.00000 ]
LCAOMinimize: Iter:  15  F: -1516.5791420070895583  |grad|_K:  3.413e-03  alpha:  2.375e-01  linmin: -2.591e-03  cgtest: -6.683e-02  t[s]:    315.77
	FillingsUpdate:  mu: -0.029253416  nElectrons: 327.000000  magneticMoment: [ Abs: 11.65701  Tot: -0.00000 ]
LCAOMinimize: Iter:  16  F: -1516.5859159402330079  |grad|_K:  4.522e-03  alpha:  2.675e-02  linmin:  1.488e-02  cgtest: -8.915e-01  t[s]:    331.09
LCAOMinimize: 	Bad step direction: g.d > 0.
LCAOMinimize: 	Undoing step.
LCAOMinimize: 	Step failed: resetting search direction.
	FillingsUpdate:  mu: -0.029253416  nElectrons: 327.000000  magneticMoment: [ Abs: 11.65701  Tot: -0.00000 ]
LCAOMinimize: Iter:  17  F: -1516.5859159402330079  |grad|_K:  4.522e-03  alpha:  0.000e+00
	FillingsUpdate:  mu: -0.062524523  nElectrons: 327.000000  magneticMoment: [ Abs: 11.65546  Tot: -0.00000 ]
LCAOMinimize: Iter:  18  F: -1516.6664435543448235  |grad|_K:  1.129e-03  alpha:  8.344e-03  linmin:  3.876e-03  cgtest: -1.415e-02  t[s]:    357.24
LCAOMinimize: 	Predicted alpha/alphaT>3.000000, increasing alphaT to 2.503172e-02.
	FillingsUpdate:  mu: -0.049578316  nElectrons: 327.000000  magneticMoment: [ Abs: 11.61495  Tot: -0.00000 ]
LCAOMinimize: Iter:  19  F: -1516.6938484236204658  |grad|_K:  6.109e-04  alpha:  4.404e-02  linmin: -2.880e-02  cgtest:  1.160e-01  t[s]:    376.76
	FillingsUpdate:  mu: -0.065397987  nElectrons: 327.000000  magneticMoment: [ Abs: 11.66643  Tot: +0.00000 ]
LCAOMinimize: Iter:  20  F: -1516.7013431506206871  |grad|_K:  4.237e-04  alpha:  4.017e-02  linmin:  2.624e-04  cgtest: -8.251e-02  t[s]:    391.76
	FillingsUpdate:  mu: -0.062738593  nElectrons: 327.000000  magneticMoment: [ Abs: 11.65567  Tot: -0.00000 ]
LCAOMinimize: Iter:  21  F: -1516.7036732150231728  |grad|_K:  5.390e-04  alpha:  2.734e-02  linmin: -1.464e-05  cgtest:  2.199e-02  t[s]:    406.89
	FillingsUpdate:  mu: -0.057689943  nElectrons: 327.000000  magneticMoment: [ Abs: 11.60884  Tot: -0.00000 ]
LCAOMinimize: Iter:  22  F: -1516.7074290945070061  |grad|_K:  2.921e-04  alpha:  2.715e-02  linmin: -1.687e-03  cgtest:  2.116e-02  t[s]:    422.14
LCAOMinimize: 	Predicted alpha/alphaT>3.000000, increasing alphaT to 8.145762e-02.
	FillingsUpdate:  mu: -0.057219705  nElectrons: 327.000000  magneticMoment: [ Abs: 11.50907  Tot: -0.00000 ]
LCAOMinimize: Iter:  23  F: -1516.7153267071994378  |grad|_K:  3.736e-04  alpha:  1.902e-01  linmin: -2.601e-03  cgtest: -2.624e-02  t[s]:    441.77
	FillingsUpdate:  mu: -0.038330176  nElectrons: 327.000000  magneticMoment: [ Abs: 11.35682  Tot: +0.00000 ]
LCAOMinimize: Iter:  24  F: -1516.7208547570573955  |grad|_K:  5.293e-04  alpha:  8.667e-02  linmin:  1.674e-03  cgtest: -8.291e-02  t[s]:    457.20
	FillingsUpdate:  mu: -0.036849713  nElectrons: 327.000000  magneticMoment: [ Abs: 11.30550  Tot: -0.00000 ]
LCAOMinimize: Iter:  25  F: -1516.7237365618309468  |grad|_K:  5.368e-04  alpha:  2.436e-02  linmin:  2.626e-03  cgtest: -3.774e-02  t[s]:    472.47
	FillingsUpdate:  mu: -0.044265758  nElectrons: 327.000000  magneticMoment: [ Abs: 11.29033  Tot: +0.00000 ]
LCAOMinimize: Iter:  26  F: -1516.7268900880940237  |grad|_K:  2.082e-04  alpha:  2.446e-02  linmin:  6.064e-04  cgtest:  1.199e-01  t[s]:    487.88
LCAOMinimize: 	Predicted alpha/alphaT>3.000000, increasing alphaT to 7.338075e-02.
	FillingsUpdate:  mu: -0.042325563  nElectrons: 327.000000  magneticMoment: [ Abs: 11.26045  Tot: -0.00000 ]
LCAOMinimize: Iter:  27  F: -1516.7291410439318042  |grad|_K:  1.970e-04  alpha:  1.086e-01  linmin: -3.093e-03  cgtest:  3.867e-03  t[s]:    507.46
	FillingsUpdate:  mu: -0.042954971  nElectrons: 327.000000  magneticMoment: [ Abs: 11.26294  Tot: -0.00000 ]
LCAOMinimize: Iter:  28  F: -1516.7298401848338472  |grad|_K:  3.245e-04  alpha:  3.718e-02  linmin: -5.526e-05  cgtest: -1.360e-02  t[s]:    522.68
	FillingsUpdate:  mu: -0.051725332  nElectrons: 327.000000  magneticMoment: [ Abs: 11.29241  Tot: +0.00000 ]
LCAOMinimize: Iter:  29  F: -1516.7323183464495742  |grad|_K:  2.877e-04  alpha:  4.958e-02  linmin:  9.561e-04  cgtest:  8.585e-02  t[s]:    538.16
	FillingsUpdate:  mu: -0.044908047  nElectrons: 327.000000  magneticMoment: [ Abs: 11.30390  Tot: +0.00000 ]
LCAOMinimize: Iter:  30  F: -1516.7351719067958129  |grad|_K:  3.485e-04  alpha:  7.221e-02  linmin: -2.274e-03  cgtest:  1.606e-02  t[s]:    553.23
LCAOMinimize: None of the convergence criteria satisfied after 30 iterations.


---- Citations for features of the code used in this run ----

   Software package:
      R. Sundararaman, K. Letchworth-Weaver, K.A. Schwarz, D. Gunceler, Y. Ozhabes and T.A. Arias, 'JDFTx: software for joint density-functional theory', SoftwareX 6, 278 (2017)

   Simplified rotationally-invariant DFT+U:
      S. L. Dudarev et al., Phys. Rev. B 57, 1505 (1998)

   LibXC library of exchange-correlation functions:
      M. A. L. Marques, M. J. T. Oliveira and T. Burnus, Comput. Phys. Commun. 183, 2272 (2012)

   Hammer, Hansen, and Norskov exchange functional:
      B. Hammer, L. B. Hansen, and J. K. Nørskov, Phys. Rev. B 59, 7413 (1999)

   Perdew, Burke & Ernzerhof correlation functional:
      J. P. Perdew, K. Burke, and M. Ernzerhof, Phys. Rev. Lett. 77, 3865 (1996)

   Pseudopotentials:
      M Schlipf and F Gygi, Comput. Phys. Commun. 196, 36 (2015)

   Total energy minimization with Auxiliary Hamiltonian:
      C. Freysoldt, S. Boeck, and J. Neugebauer, Phys. Rev. B 79, 241103(R) (2009)

This list may not be complete. Please suggest additional citations or
report any other bugs at https://github.com/shankar1729/jdftx/issues

Initialization completed successfully at t[s]:    559.76


-------- Electronic minimization -----------
	FillingsUpdate:  mu: -0.044908047  nElectrons: 327.000000  magneticMoment: [ Abs: 11.30390  Tot: +0.00000 ]
ElecMinimize: Iter:   0  F: -1516.735171906799906  |grad|_K:  4.370e-04  alpha:  1.000e+00
	FillingsUpdate:  mu: +0.277456438  nElectrons: 327.000000  magneticMoment: [ Abs: 11.89532  Tot: -0.00000 ]
	SubspaceRotationAdjust: set factor to 0.993
ElecMinimize: Iter:   1  F: -1534.900877062148311  |grad|_K:  9.657e-04  alpha:  4.777e-01  linmin:  2.288e-02  t[s]:    652.35
	FillingsUpdate:  mu: +1.281125919  nElectrons: 327.000000  magneticMoment: [ Abs: 13.09784  Tot: -0.00000 ]
	SubspaceRotationAdjust: set factor to 0.551
ElecMinimize: Iter:   2  F: -1537.115330630799008  |grad|_K:  2.263e-03  alpha:  4.499e-02  linmin:  6.497e-03  t[s]:    728.29
ElecMinimize: 	Step increased F by 6.173706e-01, reducing alpha to 1.938615e-04.
ElecMinimize: 	Step increased F by 4.122633e-01, reducing alpha to 1.938615e-05.
ElecMinimize: 	Step increased F by 4.094482e-01, reducing alpha to 1.938615e-06.
ElecMinimize: 	Step failed to reduce F after 3 attempts. Quitting step.
ElecMinimize: 	Undoing step.
ElecMinimize: 	Step failed: resetting search direction.
	FillingsUpdate:  mu: +1.276793900  nElectrons: 327.000000  magneticMoment: [ Abs: 13.33213  Tot: -0.00000 ]
	SubspaceRotationAdjust: set factor to 0.325
ElecMinimize: Iter:   3  F: -1536.705896302716610  |grad|_K:  1.759e-03  alpha:  1.939e-06
	FillingsUpdate:  mu: +0.408701268  nElectrons: 327.000000  magneticMoment: [ Abs: 13.30461  Tot: -0.00000 ]
	SubspaceRotationAdjust: set factor to 0.148
ElecMinimize: Iter:   4  F: -1548.782034336710922  |grad|_K:  7.816e-04  alpha:  2.012e-02  linmin:  6.282e-03  t[s]:   1021.20
ElecMinimize: 	Predicted alpha/alphaT>3.000000, increasing alphaT to 6.035469e-02.
ElecMinimize: 	Predicted alpha/alphaT>3.000000, increasing alphaT to 1.810641e-01.
	FillingsUpdate:  mu: +0.281180756  nElectrons: 327.000000  magneticMoment: [ Abs: 14.81047  Tot: +0.00000 ]
	SubspaceRotationAdjust: set factor to 0.173
ElecMinimize: Iter:   5  F: -1573.857991850082271  |grad|_K:  6.894e-04  alpha:  2.487e-01  linmin:  2.470e-03  t[s]:   1167.67
	FillingsUpdate:  mu: +0.098227653  nElectrons: 327.000000  magneticMoment: [ Abs: 15.06781  Tot: +0.00000 ]
	SubspaceRotationAdjust: set factor to 0.127
	SubspaceRotationAdjust: resetting CG because factor has changed by 0.126919
ElecMinimize: 	State modified externally: resetting search direction.
ElecMinimize: Iter:   6  F: -1580.411679347095060  |grad|_K:  5.352e-04  alpha:  7.501e-02
	FillingsUpdate:  mu: +0.511479711  nElectrons: 327.000000  magneticMoment: [ Abs: 15.27466  Tot: +0.00000 ]
	SubspaceRotationAdjust: set factor to 0.0817
ElecMinimize: Iter:   7  F: -1587.182863070253688  |grad|_K:  5.362e-04  alpha:  1.259e-01  linmin:  2.855e-03  t[s]:   1341.02
	FillingsUpdate:  mu: +0.251836537  nElectrons: 327.000000  magneticMoment: [ Abs: 16.03421  Tot: -0.00000 ]
	SubspaceRotationAdjust: set factor to 0.0707
ElecMinimize: Iter:   8  F: -1593.559257901695446  |grad|_K:  2.678e-04  alpha:  1.237e-01  linmin:  2.055e-03  t[s]:   1418.87
	FillingsUpdate:  mu: +0.111843199  nElectrons: 327.000000  magneticMoment: [ Abs: 17.29473  Tot: +0.00000 ]
	SubspaceRotationAdjust: set factor to 0.0661
ElecMinimize: Iter:   9  F: -1597.573981876850212  |grad|_K:  2.012e-04  alpha:  3.229e-01  linmin:  6.119e-04  t[s]:   1498.74
	FillingsUpdate:  mu: +0.140258164  nElectrons: 327.000000  magneticMoment: [ Abs: 17.73534  Tot: -0.00000 ]
	SubspaceRotationAdjust: set factor to 0.0521
ElecMinimize: Iter:  10  F: -1598.657942112054343  |grad|_K:  1.897e-04  alpha:  1.457e-01  linmin:  3.013e-04  t[s]:   1578.48
	FillingsUpdate:  mu: +0.192444668  nElectrons: 327.000000  magneticMoment: [ Abs: 18.71558  Tot: +0.00000 ]
	SubspaceRotationAdjust: set factor to 0.0801
ElecMinimize: Iter:  11  F: -1600.430876087954175  |grad|_K:  1.549e-04  alpha:  2.630e-01  linmin: -5.403e-04  t[s]:   1656.48
	FillingsUpdate:  mu: +0.170492145  nElectrons: 327.000000  magneticMoment: [ Abs: 19.39847  Tot: +0.00000 ]
	SubspaceRotationAdjust: set factor to 0.0641
ElecMinimize: Iter:  12  F: -1601.407750362317756  |grad|_K:  1.676e-04  alpha:  1.938e-01  linmin: -2.118e-04  t[s]:   1736.65
	FillingsUpdate:  mu: +0.137828167  nElectrons: 327.000000  magneticMoment: [ Abs: 20.73759  Tot: -0.00000 ]
	SubspaceRotationAdjust: set factor to 0.0678
ElecMinimize: Iter:  13  F: -1602.358105008709117  |grad|_K:  1.104e-04  alpha:  1.688e-01  linmin: -1.848e-04  t[s]:   1814.93
	FillingsUpdate:  mu: +0.091091946  nElectrons: 327.000000  magneticMoment: [ Abs: 22.35274  Tot: +0.00000 ]
	SubspaceRotationAdjust: set factor to 0.0736
ElecMinimize: Iter:  14  F: -1603.164522827278688  |grad|_K:  9.506e-05  alpha:  3.186e-01  linmin: -4.130e-04  t[s]:   1894.66
	FillingsUpdate:  mu: +0.093755148  nElectrons: 327.000000  magneticMoment: [ Abs: 23.61821  Tot: -0.00000 ]
	SubspaceRotationAdjust: set factor to 0.0646
ElecMinimize: Iter:  15  F: -1603.619994339328514  |grad|_K:  1.129e-04  alpha:  2.381e-01  linmin: -4.336e-05  t[s]:   1973.50
	FillingsUpdate:  mu: +0.132403278  nElectrons: 327.000000  magneticMoment: [ Abs: 26.62902  Tot: +0.00000 ]
	SubspaceRotationAdjust: set factor to 0.0717
ElecMinimize: Iter:  16  F: -1604.453705953427288  |grad|_K:  1.228e-04  alpha:  3.317e-01  linmin: -5.218e-05  t[s]:   2053.74
	FillingsUpdate:  mu: +0.151916248  nElectrons: 327.000000  magneticMoment: [ Abs: 30.02280  Tot: +0.00000 ]
	SubspaceRotationAdjust: set factor to 0.0767
ElecMinimize: Iter:  17  F: -1605.565682613065974  |grad|_K:  1.508e-04  alpha:  3.653e-01  linmin: -8.919e-05  t[s]:   2131.52
	FillingsUpdate:  mu: +0.065032979  nElectrons: 327.000000  magneticMoment: [ Abs: 32.28493  Tot: -0.00000 ]
	SubspaceRotationAdjust: set factor to 0.0692
ElecMinimize: Iter:  18  F: -1606.728277701900879  |grad|_K:  1.593e-04  alpha:  2.512e-01  linmin: -5.635e-05  t[s]:   2210.10
	FillingsUpdate:  mu: +0.050086878  nElectrons: 327.000000  magneticMoment: [ Abs: 34.54774  Tot: -0.00000 ]
	SubspaceRotationAdjust: set factor to 0.0733
ElecMinimize: Iter:  19  F: -1608.551387718644037  |grad|_K:  1.786e-04  alpha:  3.601e-01  linmin:  1.398e-04  t[s]:   2288.04
	FillingsUpdate:  mu: +0.050981631  nElectrons: 327.000000  magneticMoment: [ Abs: 34.60782  Tot: -0.00000 ]
	SubspaceRotationAdjust: set factor to 0.0774
ElecMinimize: Iter:  20  F: -1608.599401079789686  |grad|_K:  1.719e-04  alpha:  2.223e-02  linmin: -4.464e-04  t[s]:   2366.50
ElecMinimize: 	Predicted alpha/alphaT>3.000000, increasing alphaT to 6.667841e-02.
	FillingsUpdate:  mu: +0.095014530  nElectrons: 327.000000  magneticMoment: [ Abs: 35.50375  Tot: +0.00000 ]
	SubspaceRotationAdjust: set factor to 0.0781
ElecMinimize: Iter:  21  F: -1609.286504439770169  |grad|_K:  1.307e-04  alpha:  6.094e-02  linmin:  5.427e-04  t[s]:   2477.02
	FillingsUpdate:  mu: +0.094877040  nElectrons: 327.000000  magneticMoment: [ Abs: 35.51835  Tot: +0.00000 ]
	SubspaceRotationAdjust: set factor to 0.0805
ElecMinimize: Iter:  22  F: -1609.288438522274191  |grad|_K:  1.303e-04  alpha:  3.353e-04  linmin: -2.272e-04  t[s]:   2556.20
ElecMinimize: 	Predicted alpha/alphaT>3.000000, increasing alphaT to 1.006011e-03.
ElecMinimize: 	Predicted alpha/alphaT>3.000000, increasing alphaT to 3.018034e-03.
ElecMinimize: 	Predicted alpha/alphaT>3.000000, increasing alphaT to 9.054101e-03.
	FillingsUpdate:  mu: +0.081606800  nElectrons: 327.000000  magneticMoment: [ Abs: 36.27132  Tot: -0.00000 ]
	SubspaceRotationAdjust: set factor to 0.086
ElecMinimize: Iter:  23  F: -1609.289920054395679  |grad|_K:  1.221e-04  alpha:  1.276e-02  linmin:  3.405e-03  t[s]:   2696.10
ElecMinimize: 	Bad step direction: g.d > 0.
ElecMinimize: 	Undoing step.
ElecMinimize: 	Step failed: resetting search direction.
	FillingsUpdate:  mu: +0.081606800  nElectrons: 327.000000  magneticMoment: [ Abs: 36.27132  Tot: -0.00000 ]
	SubspaceRotationAdjust: set factor to 0.0951
ElecMinimize: Iter:  24  F: -1609.289920054397953  |grad|_K:  1.225e-04  alpha:  0.000e+00
ElecMinimize: 	Predicted alpha/alphaT>3.000000, increasing alphaT to 3.829017e-02.
ElecMinimize: 	Predicted alpha/alphaT>3.000000, increasing alphaT to 1.148705e-01.
	FillingsUpdate:  mu: +0.082607273  nElectrons: 327.000000  magneticMoment: [ Abs: 36.01335  Tot: -0.00000 ]
	SubspaceRotationAdjust: set factor to 0.0896
ElecMinimize: Iter:  25  F: -1610.083647745604367  |grad|_K:  6.289e-05  alpha:  2.662e-01  linmin: -1.843e-02  t[s]:   2885.64
	FillingsUpdate:  mu: +0.116016672  nElectrons: 327.000000  magneticMoment: [ Abs: 36.30635  Tot: +0.00000 ]
	SubspaceRotationAdjust: set factor to 0.0691
ElecMinimize: Iter:  26  F: -1610.352279109152960  |grad|_K:  7.009e-05  alpha:  3.354e-01  linmin:  2.524e-03  t[s]:   2964.55
	FillingsUpdate:  mu: +0.108375608  nElectrons: 327.000000  magneticMoment: [ Abs: 36.66325  Tot: +0.00000 ]
	SubspaceRotationAdjust: set factor to 0.0928
ElecMinimize: Iter:  27  F: -1610.744643360822920  |grad|_K:  5.469e-05  alpha:  4.240e-01  linmin: -2.595e-03  t[s]:   3047.24
	FillingsUpdate:  mu: +0.099412423  nElectrons: 327.000000  magneticMoment: [ Abs: 36.88420  Tot: +0.00000 ]
	SubspaceRotationAdjust: set factor to 0.0857
ElecMinimize: Iter:  28  F: -1610.984219941656193  |grad|_K:  4.877e-05  alpha:  3.982e-01  linmin: -1.587e-03  t[s]:   3123.20
	FillingsUpdate:  mu: +0.109690471  nElectrons: 327.000000  magneticMoment: [ Abs: 37.32156  Tot: -0.00000 ]
	SubspaceRotationAdjust: set factor to 0.071
ElecMinimize: Iter:  29  F: -1611.107181937692985  |grad|_K:  3.319e-05  alpha:  2.547e-01  linmin:  2.017e-04  t[s]:   3203.96
	FillingsUpdate:  mu: +0.133951780  nElectrons: 327.000000  magneticMoment: [ Abs: 37.75872  Tot: +0.00000 ]
	SubspaceRotationAdjust: set factor to 0.0882
ElecMinimize: Iter:  30  F: -1611.220751552184311  |grad|_K:  3.187e-05  alpha:  5.301e-01  linmin: -5.499e-04  t[s]:   3282.52
	FillingsUpdate:  mu: +0.138438038  nElectrons: 327.000000  magneticMoment: [ Abs: 38.31547  Tot: +0.00000 ]
	SubspaceRotationAdjust: set factor to 0.0972
ElecMinimize: Iter:  31  F: -1611.305174694109155  |grad|_K:  2.685e-05  alpha:  4.247e-01  linmin: -1.324e-04  t[s]:   3360.75
	FillingsUpdate:  mu: +0.123617098  nElectrons: 327.000000  magneticMoment: [ Abs: 38.99951  Tot: +0.00000 ]
	SubspaceRotationAdjust: set factor to 0.094
ElecMinimize: Iter:  32  F: -1611.366300774554020  |grad|_K:  2.716e-05  alpha:  4.375e-01  linmin: -4.964e-04  t[s]:   3439.21
	FillingsUpdate:  mu: +0.131846593  nElectrons: 327.000000  magneticMoment: [ Abs: 39.87861  Tot: +0.00000 ]
	SubspaceRotationAdjust: set factor to 0.0933
ElecMinimize: Iter:  33  F: -1611.436942337542860  |grad|_K:  2.717e-05  alpha:  4.886e-01  linmin:  4.662e-04  t[s]:   3517.60
	FillingsUpdate:  mu: +0.137534684  nElectrons: 327.000000  magneticMoment: [ Abs: 40.94980  Tot: +0.00000 ]
	SubspaceRotationAdjust: set factor to 0.109
ElecMinimize: Iter:  34  F: -1611.510871251364279  |grad|_K:  2.697e-05  alpha:  5.321e-01  linmin: -9.144e-05  t[s]:   3597.01
	FillingsUpdate:  mu: +0.136667086  nElectrons: 327.000000  magneticMoment: [ Abs: 41.71750  Tot: +0.00000 ]
	SubspaceRotationAdjust: set factor to 0.107
ElecMinimize: Iter:  35  F: -1611.566303116612062  |grad|_K:  2.319e-05  alpha:  3.989e-01  linmin: -1.664e-04  t[s]:   3676.02
	FillingsUpdate:  mu: +0.136149381  nElectrons: 327.000000  magneticMoment: [ Abs: 42.40400  Tot: +0.00000 ]
	SubspaceRotationAdjust: set factor to 0.11
ElecMinimize: Iter:  36  F: -1611.603681004758528  |grad|_K:  1.853e-05  alpha:  3.586e-01  linmin: -1.924e-04  t[s]:   3753.69
	FillingsUpdate:  mu: +0.134333980  nElectrons: 327.000000  magneticMoment: [ Abs: 42.96968  Tot: -0.00000 ]
	SubspaceRotationAdjust: set factor to 0.127
ElecMinimize: Iter:  37  F: -1611.635250600337258  |grad|_K:  1.669e-05  alpha:  4.708e-01  linmin: -1.730e-04  t[s]:   3832.08
	FillingsUpdate:  mu: +0.137770525  nElectrons: 327.000000  magneticMoment: [ Abs: 43.49528  Tot: -0.00000 ]
	SubspaceRotationAdjust: set factor to 0.149
ElecMinimize: Iter:  38  F: -1611.659680088403775  |grad|_K:  1.611e-05  alpha:  4.517e-01  linmin: -6.891e-06  t[s]:   3910.21
	FillingsUpdate:  mu: +0.139908285  nElectrons: 327.000000  magneticMoment: [ Abs: 44.09462  Tot: +0.00000 ]
	SubspaceRotationAdjust: set factor to 0.17
ElecMinimize: Iter:  39  F: -1611.682473258482332  |grad|_K:  1.526e-05  alpha:  4.552e-01  linmin: -1.991e-04  t[s]:   3989.52
	FillingsUpdate:  mu: +0.129784148  nElectrons: 327.000000  magneticMoment: [ Abs: 44.64223  Tot: -0.00000 ]
	SubspaceRotationAdjust: set factor to 0.176
ElecMinimize: Iter:  40  F: -1611.700933823334253  |grad|_K:  1.631e-05  alpha:  4.079e-01  linmin: -4.964e-05  t[s]:   4065.90
	FillingsUpdate:  mu: +0.132492076  nElectrons: 327.000000  magneticMoment: [ Abs: 45.22136  Tot: +0.00000 ]
	SubspaceRotationAdjust: set factor to 0.174
ElecMinimize: Iter:  41  F: -1611.719087515149795  |grad|_K:  1.625e-05  alpha:  3.523e-01  linmin: -9.050e-07  t[s]:   4144.55
	FillingsUpdate:  mu: +0.125853263  nElectrons: 327.000000  magneticMoment: [ Abs: 46.16898  Tot: +0.00000 ]
	SubspaceRotationAdjust: set factor to 0.189
ElecMinimize: Iter:  42  F: -1611.743990166483854  |grad|_K:  1.795e-05  alpha:  4.842e-01  linmin: -2.520e-04  t[s]:   4224.10
	FillingsUpdate:  mu: +0.136297892  nElectrons: 327.000000  magneticMoment: [ Abs: 47.07412  Tot: +0.00000 ]
	SubspaceRotationAdjust: set factor to 0.19
ElecMinimize: Iter:  43  F: -1611.769462552698542  |grad|_K:  2.142e-05  alpha:  3.803e-01  linmin:  4.997e-04  t[s]:   4306.57
	FillingsUpdate:  mu: +0.127055415  nElectrons: 327.000000  magneticMoment: [ Abs: 47.83613  Tot: +0.00000 ]
	SubspaceRotationAdjust: set factor to 0.217
ElecMinimize: Iter:  44  F: -1611.789059945951976  |grad|_K:  2.216e-05  alpha:  2.058e-01  linmin: -2.390e-04  t[s]:   4385.89
	FillingsUpdate:  mu: +0.125566432  nElectrons: 327.000000  magneticMoment: [ Abs: 48.69536  Tot: -0.00000 ]
	SubspaceRotationAdjust: set factor to 0.233
ElecMinimize: Iter:  45  F: -1611.815716270145458  |grad|_K:  2.452e-05  alpha:  2.610e-01  linmin: -1.417e-03  t[s]:   4464.92
	FillingsUpdate:  mu: +0.132018351  nElectrons: 327.000000  magneticMoment: [ Abs: 49.15657  Tot: +0.00000 ]
	SubspaceRotationAdjust: set factor to 0.235
ElecMinimize: Iter:  46  F: -1611.833442973687625  |grad|_K:  2.382e-05  alpha:  1.298e-01  linmin:  4.653e-04  t[s]:   4543.55
	FillingsUpdate:  mu: +0.120028702  nElectrons: 327.000000  magneticMoment: [ Abs: 49.52909  Tot: -0.00000 ]
	SubspaceRotationAdjust: set factor to 0.252
ElecMinimize: Iter:  47  F: -1611.846385984000335  |grad|_K:  2.418e-05  alpha:  1.248e-01  linmin: -7.539e-05  t[s]:   4621.85
	FillingsUpdate:  mu: +0.114738747  nElectrons: 327.000000  magneticMoment: [ Abs: 49.80688  Tot: +0.00000 ]
	SubspaceRotationAdjust: set factor to 0.235
ElecMinimize: Iter:  48  F: -1611.860041965041091  |grad|_K:  2.429e-05  alpha:  1.205e-01  linmin: -3.004e-04  t[s]:   4700.44
	FillingsUpdate:  mu: +0.121466315  nElectrons: 327.000000  magneticMoment: [ Abs: 49.99117  Tot: +0.00000 ]
	SubspaceRotationAdjust: set factor to 0.335
ElecMinimize: Iter:  49  F: -1611.874271872201462  |grad|_K:  1.975e-05  alpha:  1.218e-01  linmin:  1.412e-04  t[s]:   4778.06
	FillingsUpdate:  mu: +0.131354719  nElectrons: 327.000000  magneticMoment: [ Abs: 50.09640  Tot: -0.00000 ]
	SubspaceRotationAdjust: set factor to 0.355
ElecMinimize: Iter:  50  F: -1611.882860997428907  |grad|_K:  2.042e-05  alpha:  1.157e-01  linmin: -3.416e-05  t[s]:   4857.64
	FillingsUpdate:  mu: +0.135886827  nElectrons: 327.000000  magneticMoment: [ Abs: 50.29662  Tot: -0.00000 ]
	SubspaceRotationAdjust: set factor to 0.34
ElecMinimize: Iter:  51  F: -1611.894569855251120  |grad|_K:  2.072e-05  alpha:  1.444e-01  linmin: -2.065e-04  t[s]:   4937.82
	FillingsUpdate:  mu: +0.124006687  nElectrons: 327.000000  magneticMoment: [ Abs: 50.44898  Tot: +0.00000 ]
	SubspaceRotationAdjust: set factor to 0.358
ElecMinimize: Iter:  52  F: -1611.902115058407617  |grad|_K:  1.700e-05  alpha:  8.910e-02  linmin:  3.070e-05  t[s]:   5015.24
	FillingsUpdate:  mu: +0.117885722  nElectrons: 327.000000  magneticMoment: [ Abs: 50.56908  Tot: -0.00000 ]
	SubspaceRotationAdjust: set factor to 0.297
ElecMinimize: Iter:  53  F: -1611.911512364348710  |grad|_K:  2.143e-05  alpha:  1.678e-01  linmin: -1.147e-04  t[s]:   5093.20
	FillingsUpdate:  mu: +0.119677649  nElectrons: 327.000000  magneticMoment: [ Abs: 50.56142  Tot: +0.00000 ]
	SubspaceRotationAdjust: set factor to 0.4
ElecMinimize: Iter:  54  F: -1611.919858795266464  |grad|_K:  1.564e-05  alpha:  8.881e-02  linmin: -1.473e-04  t[s]:   5172.67
	FillingsUpdate:  mu: +0.131181324  nElectrons: 327.000000  magneticMoment: [ Abs: 50.50321  Tot: +0.00000 ]
	SubspaceRotationAdjust: set factor to 0.378
ElecMinimize: Iter:  55  F: -1611.926055862915973  |grad|_K:  1.791e-05  alpha:  1.284e-01  linmin: -5.864e-05  t[s]:   5253.16
	FillingsUpdate:  mu: +0.127698093  nElectrons: 327.000000  magneticMoment: [ Abs: 50.47481  Tot: -0.00000 ]
	SubspaceRotationAdjust: set factor to 0.43
ElecMinimize: Iter:  56  F: -1611.932032394145608  |grad|_K:  1.581e-05  alpha:  9.599e-02  linmin:  4.512e-06  t[s]:   5333.55
	FillingsUpdate:  mu: +0.122198922  nElectrons: 327.000000  magneticMoment: [ Abs: 50.47947  Tot: +0.00000 ]
	SubspaceRotationAdjust: set factor to 0.375
ElecMinimize: Iter:  57  F: -1611.937931713713624  |grad|_K:  1.676e-05  alpha:  1.220e-01  linmin: -7.153e-05  t[s]:   5413.52
	FillingsUpdate:  mu: +0.123871617  nElectrons: 327.000000  magneticMoment: [ Abs: 50.46027  Tot: +0.00000 ]
	SubspaceRotationAdjust: set factor to 0.386
ElecMinimize: Iter:  58  F: -1611.941913676684408  |grad|_K:  1.205e-05  alpha:  7.005e-02  linmin: -1.406e-05  t[s]:   5491.67
	FillingsUpdate:  mu: +0.127168756  nElectrons: 327.000000  magneticMoment: [ Abs: 50.38626  Tot: -0.00000 ]
	SubspaceRotationAdjust: set factor to 0.285
ElecMinimize: Iter:  59  F: -1611.945971507926743  |grad|_K:  1.617e-05  alpha:  1.431e-01  linmin: -1.298e-04  t[s]:   5573.29
	FillingsUpdate:  mu: +0.126820658  nElectrons: 327.000000  magneticMoment: [ Abs: 50.27865  Tot: -0.00000 ]
	SubspaceRotationAdjust: set factor to 0.467
ElecMinimize: Iter:  60  F: -1611.950396206002324  |grad|_K:  1.041e-05  alpha:  8.546e-02  linmin:  7.941e-07  t[s]:   5650.24
	FillingsUpdate:  mu: +0.127090453  nElectrons: 327.000000  magneticMoment: [ Abs: 50.20956  Tot: -0.00000 ]
	SubspaceRotationAdjust: set factor to 0.449
ElecMinimize: Iter:  61  F: -1611.952840453996714  |grad|_K:  1.188e-05  alpha:  1.159e-01  linmin: -2.172e-04  t[s]:   5729.98
	FillingsUpdate:  mu: +0.130602013  nElectrons: 327.000000  magneticMoment: [ Abs: 50.09184  Tot: -0.00000 ]
	SubspaceRotationAdjust: set factor to 0.677
ElecMinimize: Iter:  62  F: -1611.956735071395542  |grad|_K:  9.343e-06  alpha:  1.389e-01  linmin:  4.340e-05  t[s]:   5806.70
	FillingsUpdate:  mu: +0.122817067  nElectrons: 327.000000  magneticMoment: [ Abs: 50.03967  Tot: +0.00000 ]
	SubspaceRotationAdjust: set factor to 0.556
ElecMinimize: Iter:  63  F: -1611.958782727151402  |grad|_K:  1.171e-05  alpha:  1.220e-01  linmin:  5.173e-05  t[s]:   5886.71
	FillingsUpdate:  mu: +0.126079578  nElectrons: 327.000000  magneticMoment: [ Abs: 49.97921  Tot: +0.00000 ]
	SubspaceRotationAdjust: set factor to 0.694
ElecMinimize: Iter:  64  F: -1611.961533009992991  |grad|_K:  9.314e-06  alpha:  1.049e-01  linmin: -4.755e-05  t[s]:   5964.50
	FillingsUpdate:  mu: +0.130373396  nElectrons: 327.000000  magneticMoment: [ Abs: 49.90196  Tot: -0.00000 ]
	SubspaceRotationAdjust: set factor to 0.665
ElecMinimize: Iter:  65  F: -1611.963990029053548  |grad|_K:  1.037e-05  alpha:  1.465e-01  linmin:  6.207e-05  t[s]:   6042.15
	FillingsUpdate:  mu: +0.132932222  nElectrons: 327.000000  magneticMoment: [ Abs: 49.86151  Tot: -0.00000 ]
	SubspaceRotationAdjust: set factor to 0.653
ElecMinimize: Iter:  66  F: -1611.965927873361125  |grad|_K:  1.006e-05  alpha:  9.361e-02  linmin: -1.321e-05  t[s]:   6119.71
	FillingsUpdate:  mu: +0.128222686  nElectrons: 327.000000  magneticMoment: [ Abs: 49.86700  Tot: +0.00000 ]
	SubspaceRotationAdjust: set factor to 0.804
ElecMinimize: Iter:  67  F: -1611.968242191365562  |grad|_K:  8.657e-06  alpha:  1.177e-01  linmin: -1.087e-04  t[s]:   6197.76
	FillingsUpdate:  mu: +0.129267626  nElectrons: 327.000000  magneticMoment: [ Abs: 49.88995  Tot: -0.00000 ]
	SubspaceRotationAdjust: set factor to 0.603
ElecMinimize: Iter:  68  F: -1611.970097380586594  |grad|_K:  1.153e-05  alpha:  1.261e-01  linmin: -4.848e-05  t[s]:   6274.80
	FillingsUpdate:  mu: +0.134304760  nElectrons: 327.000000  magneticMoment: [ Abs: 49.92578  Tot: -0.00000 ]
	SubspaceRotationAdjust: set factor to 0.714
ElecMinimize: Iter:  69  F: -1611.971965122954998  |grad|_K:  8.572e-06  alpha:  6.873e-02  linmin: -1.481e-04  t[s]:   6354.35
	FillingsUpdate:  mu: +0.127422101  nElectrons: 327.000000  magneticMoment: [ Abs: 50.06167  Tot: -0.00000 ]
	SubspaceRotationAdjust: set factor to 0.466
ElecMinimize: Iter:  70  F: -1611.974252110370116  |grad|_K:  1.453e-05  alpha:  1.646e-01  linmin:  5.130e-04  t[s]:   6433.51
	FillingsUpdate:  mu: +0.124537998  nElectrons: 327.000000  magneticMoment: [ Abs: 50.19353  Tot: -0.00000 ]
	SubspaceRotationAdjust: set factor to 0.5
ElecMinimize: Iter:  71  F: -1611.975853442416565  |grad|_K:  1.101e-05  alpha:  4.115e-02  linmin: -1.627e-04  t[s]:   6513.18
	FillingsUpdate:  mu: +0.124406839  nElectrons: 327.000000  magneticMoment: [ Abs: 50.36633  Tot: +0.00000 ]
	SubspaceRotationAdjust: set factor to 0.447
ElecMinimize: Iter:  72  F: -1611.977542421471298  |grad|_K:  1.293e-05  alpha:  6.705e-02  linmin: -3.753e-04  t[s]:   6591.27
ElecMinimize: 	Wrong curvature in test step, increasing alphaT to 2.011489e-01.
	FillingsUpdate:  mu: +0.125481058  nElectrons: 327.000000  magneticMoment: [ Abs: 50.66492  Tot: -0.00000 ]
	SubspaceRotationAdjust: set factor to 0.294
ElecMinimize: Iter:  73  F: -1611.982761766999829  |grad|_K:  1.845e-05  alpha: -3.189e-01  linmin: -2.075e-03  t[s]:   6644.16
ElecMinimize: 	Step increased F by 8.877997e-02, reducing alpha to 1.808274e-03.
ElecMinimize: 	Step increased F by 9.229405e-02, reducing alpha to 1.808274e-04.
ElecMinimize: 	Step increased F by 9.281145e-02, reducing alpha to 1.808274e-05.
ElecMinimize: 	Step failed to reduce F after 3 attempts. Quitting step.
ElecMinimize: 	Undoing step.
ElecMinimize: 	Step failed: resetting search direction.
	FillingsUpdate:  mu: +0.104101380  nElectrons: 327.000000  magneticMoment: [ Abs: 50.59770  Tot: -0.00000 ]
	SubspaceRotationAdjust: set factor to 0.188
ElecMinimize: Iter:  74  F: -1611.889944380564202  |grad|_K:  2.031e-05  alpha:  1.808e-05
	FillingsUpdate:  mu: +0.105544101  nElectrons: 327.000000  magneticMoment: [ Abs: 50.81401  Tot: -0.00000 ]
	SubspaceRotationAdjust: set factor to 0.105
ElecMinimize: Iter:  75  F: -1611.908505237721783  |grad|_K:  2.881e-05  alpha:  2.765e-01  linmin:  1.082e-02  t[s]:   6928.63
	FillingsUpdate:  mu: +0.123858414  nElectrons: 327.000000  magneticMoment: [ Abs: 51.21564  Tot: +0.00000 ]
	SubspaceRotationAdjust: set factor to 0.0745
ElecMinimize: Iter:  76  F: -1611.932540588853726  |grad|_K:  2.980e-05  alpha:  2.174e-01  linmin:  3.314e-04  t[s]:   7009.22
	FillingsUpdate:  mu: +0.143611197  nElectrons: 327.000000  magneticMoment: [ Abs: 51.70985  Tot: -0.00000 ]
	SubspaceRotationAdjust: set factor to 0.0807
ElecMinimize: Iter:  77  F: -1611.989877733784169  |grad|_K:  1.944e-05  alpha:  3.515e-01  linmin:  1.134e-03  t[s]:   7087.76
	FillingsUpdate:  mu: +0.132273392  nElectrons: 327.000000  magneticMoment: [ Abs: 51.90128  Tot: -0.00000 ]
	SubspaceRotationAdjust: set factor to 0.0882
ElecMinimize: Iter:  78  F: -1612.016576670969243  |grad|_K:  1.369e-05  alpha:  3.876e-01  linmin: -5.186e-04  t[s]:   7166.85
	FillingsUpdate:  mu: +0.130640226  nElectrons: 327.000000  magneticMoment: [ Abs: 51.96998  Tot: -0.00000 ]
	SubspaceRotationAdjust: set factor to 0.0907
ElecMinimize: Iter:  79  F: -1612.029918848398438  |grad|_K:  9.301e-06  alpha:  3.639e-01  linmin:  8.429e-05  t[s]:   7244.94
	FillingsUpdate:  mu: +0.127478679  nElectrons: 327.000000  magneticMoment: [ Abs: 52.01696  Tot: -0.00000 ]
	SubspaceRotationAdjust: set factor to 0.112
ElecMinimize: Iter:  80  F: -1612.036883965073230  |grad|_K:  6.987e-06  alpha:  4.180e-01  linmin: -8.729e-05  t[s]:   7324.91
	FillingsUpdate:  mu: +0.129994304  nElectrons: 327.000000  magneticMoment: [ Abs: 52.06803  Tot: +0.00000 ]
	SubspaceRotationAdjust: set factor to 0.123
ElecMinimize: Iter:  81  F: -1612.040769918043225  |grad|_K:  5.941e-06  alpha:  4.120e-01  linmin: -1.960e-04  t[s]:   7401.95
	FillingsUpdate:  mu: +0.127450000  nElectrons: 327.000000  magneticMoment: [ Abs: 52.13262  Tot: -0.00000 ]
	SubspaceRotationAdjust: set factor to 0.145
ElecMinimize: Iter:  82  F: -1612.044163895673819  |grad|_K:  5.481e-06  alpha:  4.947e-01  linmin: -2.276e-05  t[s]:   7480.42
	FillingsUpdate:  mu: +0.124603860  nElectrons: 327.000000  magneticMoment: [ Abs: 52.21639  Tot: -0.00000 ]
	SubspaceRotationAdjust: set factor to 0.166
ElecMinimize: Iter:  83  F: -1612.047216679982057  |grad|_K:  5.703e-06  alpha:  5.261e-01  linmin: -1.414e-05  t[s]:   7559.78
	FillingsUpdate:  mu: +0.125975476  nElectrons: 327.000000  magneticMoment: [ Abs: 52.33163  Tot: +0.00000 ]
	SubspaceRotationAdjust: set factor to 0.177
ElecMinimize: Iter:  84  F: -1612.050245507461341  |grad|_K:  5.479e-06  alpha:  4.833e-01  linmin: -8.323e-05  t[s]:   7641.75
	FillingsUpdate:  mu: +0.123178164  nElectrons: 327.000000  magneticMoment: [ Abs: 52.45211  Tot: -0.00000 ]
	SubspaceRotationAdjust: set factor to 0.187
ElecMinimize: Iter:  85  F: -1612.052925123958630  |grad|_K:  5.058e-06  alpha:  4.582e-01  linmin: -1.389e-05  t[s]:   7720.01
	FillingsUpdate:  mu: +0.124046564  nElectrons: 327.000000  magneticMoment: [ Abs: 52.57074  Tot: +0.00000 ]
	SubspaceRotationAdjust: set factor to 0.209
ElecMinimize: Iter:  86  F: -1612.055015620019958  |grad|_K:  4.248e-06  alpha:  4.231e-01  linmin: -1.414e-05  t[s]:   7799.49
	FillingsUpdate:  mu: +0.124801470  nElectrons: 327.000000  magneticMoment: [ Abs: 52.68305  Tot: -0.00000 ]
	SubspaceRotationAdjust: set factor to 0.241
ElecMinimize: Iter:  87  F: -1612.056726791999381  |grad|_K:  3.862e-06  alpha:  4.905e-01  linmin: -2.739e-05  t[s]:   7879.15
	FillingsUpdate:  mu: +0.124377457  nElectrons: 327.000000  magneticMoment: [ Abs: 52.77806  Tot: +0.00000 ]
	SubspaceRotationAdjust: set factor to 0.276
ElecMinimize: Iter:  88  F: -1612.058006372025602  |grad|_K:  3.614e-06  alpha:  4.437e-01  linmin: -3.347e-05  t[s]:   7957.00
	FillingsUpdate:  mu: +0.127197967  nElectrons: 327.000000  magneticMoment: [ Abs: 52.87974  Tot: -0.00000 ]
	SubspaceRotationAdjust: set factor to 0.296
ElecMinimize: Iter:  89  F: -1612.059155707451964  |grad|_K:  3.658e-06  alpha:  4.548e-01  linmin: -6.844e-05  t[s]:   8036.68
	FillingsUpdate:  mu: +0.125154941  nElectrons: 327.000000  magneticMoment: [ Abs: 52.96980  Tot: +0.00000 ]
	SubspaceRotationAdjust: set factor to 0.279
ElecMinimize: Iter:  90  F: -1612.060196529834911  |grad|_K:  3.787e-06  alpha:  3.994e-01  linmin:  1.392e-04  t[s]:   8116.52
	FillingsUpdate:  mu: +0.129528071  nElectrons: 327.000000  magneticMoment: [ Abs: 53.06754  Tot: -0.00000 ]
	SubspaceRotationAdjust: set factor to 0.275
ElecMinimize: Iter:  91  F: -1612.061202776232903  |grad|_K:  3.588e-06  alpha:  3.686e-01  linmin: -9.862e-05  t[s]:   8193.68
	FillingsUpdate:  mu: +0.129857023  nElectrons: 327.000000  magneticMoment: [ Abs: 53.15800  Tot: -0.00000 ]
	SubspaceRotationAdjust: set factor to 0.286
ElecMinimize: Iter:  92  F: -1612.062293701870885  |grad|_K:  3.526e-06  alpha:  4.364e-01  linmin:  7.666e-05  t[s]:   8270.99
	FillingsUpdate:  mu: +0.131153148  nElectrons: 327.000000  magneticMoment: [ Abs: 53.25814  Tot: +0.00000 ]
	SubspaceRotationAdjust: set factor to 0.322
ElecMinimize: Iter:  93  F: -1612.063490153728935  |grad|_K:  3.654e-06  alpha:  5.006e-01  linmin: -1.721e-04  t[s]:   8351.53
	FillingsUpdate:  mu: +0.125718581  nElectrons: 327.000000  magneticMoment: [ Abs: 53.35217  Tot: +0.00000 ]
	SubspaceRotationAdjust: set factor to 0.266
ElecMinimize: Iter:  94  F: -1612.064690045079487  |grad|_K:  5.288e-06  alpha:  4.412e-01  linmin:  8.776e-04  t[s]:   8432.10
	FillingsUpdate:  mu: +0.128582458  nElectrons: 327.000000  magneticMoment: [ Abs: 53.39385  Tot: -0.00000 ]
	SubspaceRotationAdjust: set factor to 0.399
ElecMinimize: Iter:  95  F: -1612.065449157496687  |grad|_K:  4.210e-06  alpha:  9.866e-02  linmin: -4.090e-03  t[s]:   8512.32
	FillingsUpdate:  mu: +0.129426379  nElectrons: 327.000000  magneticMoment: [ Abs: 53.44184  Tot: +0.00000 ]
	SubspaceRotationAdjust: set factor to 0.249
ElecMinimize: Iter:  96  F: -1612.066394304628147  |grad|_K:  6.808e-06  alpha:  2.019e-01  linmin:  2.915e-03  t[s]:   8594.74
	FillingsUpdate:  mu: +0.129432580  nElectrons: 327.000000  magneticMoment: [ Abs: 53.45196  Tot: -0.00000 ]
	SubspaceRotationAdjust: set factor to 0.168
ElecMinimize: Iter:  97  F: -1612.066528099715242  |grad|_K:  6.134e-06  alpha:  1.441e-02  linmin: -3.367e-03  t[s]:   8675.05
ElecMinimize: 	Predicted alpha/alphaT>3.000000, increasing alphaT to 4.322669e-02.
	FillingsUpdate:  mu: +0.131259445  nElectrons: 327.000000  magneticMoment: [ Abs: 53.51604  Tot: +0.00000 ]
	SubspaceRotationAdjust: set factor to 0.124
ElecMinimize: Iter:  98  F: -1612.067401647552515  |grad|_K:  7.197e-06  alpha:  1.033e-01  linmin:  2.968e-03  t[s]:   8790.35
	FillingsUpdate:  mu: +0.131745123  nElectrons: 327.000000  magneticMoment: [ Abs: 53.53666  Tot: +0.00000 ]
	SubspaceRotationAdjust: set factor to 0.0999
ElecMinimize: Iter:  99  F: -1612.067550528787251  |grad|_K:  7.206e-06  alpha:  2.315e-02  linmin: -4.331e-04  t[s]:   8869.22
	FillingsUpdate:  mu: +0.131371042  nElectrons: 327.000000  magneticMoment: [ Abs: 53.59703  Tot: +0.00000 ]
	SubspaceRotationAdjust: set factor to 0.0826
ElecMinimize: Iter: 100  F: -1612.068234886203754  |grad|_K:  7.758e-06  alpha:  6.499e-02  linmin:  2.576e-04  t[s]:   8948.01
	FillingsUpdate:  mu: +0.129569060  nElectrons: 327.000000  magneticMoment: [ Abs: 53.64537  Tot: -0.00000 ]
	SubspaceRotationAdjust: set factor to 0.0701
ElecMinimize: Iter: 101  F: -1612.068764600614031  |grad|_K:  7.664e-06  alpha:  4.591e-02  linmin:  2.703e-05  t[s]:   9029.43
	FillingsUpdate:  mu: +0.127916121  nElectrons: 327.000000  magneticMoment: [ Abs: 53.68694  Tot: -0.00000 ]
	SubspaceRotationAdjust: set factor to 0.0593
ElecMinimize: Iter: 102  F: -1612.069229122470460  |grad|_K:  7.366e-06  alpha:  4.093e-02  linmin:  1.187e-04  t[s]:   9108.95
	FillingsUpdate:  mu: +0.128420172  nElectrons: 327.000000  magneticMoment: [ Abs: 53.72314  Tot: +0.00000 ]
	SubspaceRotationAdjust: set factor to 0.0496
ElecMinimize: Iter: 103  F: -1612.069631317403491  |grad|_K:  7.095e-06  alpha:  3.923e-02  linmin:  2.661e-05  t[s]:   9188.01
	FillingsUpdate:  mu: +0.125429237  nElectrons: 327.000000  magneticMoment: [ Abs: 53.75864  Tot: +0.00000 ]
	SubspaceRotationAdjust: set factor to 0.0419
ElecMinimize: Iter: 104  F: -1612.070051621206630  |grad|_K:  6.889e-06  alpha:  4.343e-02  linmin: -4.971e-05  t[s]:   9266.88
	FillingsUpdate:  mu: +0.122876117  nElectrons: 327.000000  magneticMoment: [ Abs: 53.79432  Tot: -0.00000 ]
	SubspaceRotationAdjust: set factor to 0.0376
ElecMinimize: Iter: 105  F: -1612.070522317279483  |grad|_K:  6.769e-06  alpha:  5.082e-02  linmin: -9.326e-05  t[s]:   9347.51
	FillingsUpdate:  mu: +0.122359978  nElectrons: 327.000000  magneticMoment: [ Abs: 53.82938  Tot: +0.00000 ]
	SubspaceRotationAdjust: set factor to 0.0377
ElecMinimize: Iter: 106  F: -1612.071056142450971  |grad|_K:  6.731e-06  alpha:  5.920e-02  linmin: -9.341e-05  t[s]:   9426.89
	FillingsUpdate:  mu: +0.123265706  nElectrons: 327.000000  magneticMoment: [ Abs: 53.86063  Tot: -0.00000 ]
	SubspaceRotationAdjust: set factor to 0.0436
ElecMinimize: Iter: 107  F: -1612.071631539220562  |grad|_K:  6.698e-06  alpha:  6.459e-02  linmin: -7.047e-05  t[s]:   9508.02
	FillingsUpdate:  mu: +0.124796769  nElectrons: 327.000000  magneticMoment: [ Abs: 53.88609  Tot: +0.00000 ]
	SubspaceRotationAdjust: set factor to 0.0596
ElecMinimize: Iter: 108  F: -1612.072200705686328  |grad|_K:  6.610e-06  alpha:  6.488e-02  linmin: -5.018e-05  t[s]:   9587.79
	FillingsUpdate:  mu: +0.126286716  nElectrons: 327.000000  magneticMoment: [ Abs: 53.90519  Tot: -0.00000 ]
	SubspaceRotationAdjust: set factor to 0.0779
ElecMinimize: Iter: 109  F: -1612.072724185510879  |grad|_K:  6.493e-06  alpha:  6.159e-02  linmin: -3.922e-05  t[s]:   9667.79
	FillingsUpdate:  mu: +0.128106331  nElectrons: 327.000000  magneticMoment: [ Abs: 53.91944  Tot: +0.00000 ]
	SubspaceRotationAdjust: set factor to 0.0949
ElecMinimize: Iter: 110  F: -1612.073187412549260  |grad|_K:  6.267e-06  alpha:  5.663e-02  linmin: -3.481e-05  t[s]:   9746.91
	FillingsUpdate:  mu: +0.129408151  nElectrons: 327.000000  magneticMoment: [ Abs: 53.93187  Tot: -0.00000 ]
	SubspaceRotationAdjust: set factor to 0.107
ElecMinimize: Iter: 111  F: -1612.073617623715108  |grad|_K:  6.228e-06  alpha:  5.645e-02  linmin: -4.525e-05  t[s]:   9827.26
	FillingsUpdate:  mu: +0.130184651  nElectrons: 327.000000  magneticMoment: [ Abs: 53.94629  Tot: +0.00000 ]
	SubspaceRotationAdjust: set factor to 0.123
ElecMinimize: Iter: 112  F: -1612.074075337058048  |grad|_K:  6.530e-06  alpha:  6.064e-02  linmin: -5.727e-05  t[s]:   9905.86
	FillingsUpdate:  mu: +0.129439649  nElectrons: 327.000000  magneticMoment: [ Abs: 53.96606  Tot: +0.00000 ]
	SubspaceRotationAdjust: set factor to 0.152
ElecMinimize: Iter: 113  F: -1612.074604693705624  |grad|_K:  6.934e-06  alpha:  6.368e-02  linmin: -4.240e-05  t[s]:   9985.82
	FillingsUpdate:  mu: +0.129465966  nElectrons: 327.000000  magneticMoment: [ Abs: 53.99126  Tot: +0.00000 ]
	SubspaceRotationAdjust: set factor to 0.193
ElecMinimize: Iter: 114  F: -1612.075166778627590  |grad|_K:  7.078e-06  alpha:  6.016e-02  linmin: -1.277e-05  t[s]:  10062.39
	FillingsUpdate:  mu: +0.128763479  nElectrons: 327.000000  magneticMoment: [ Abs: 54.01948  Tot: +0.00000 ]
	SubspaceRotationAdjust: set factor to 0.227
ElecMinimize: Iter: 115  F: -1612.075692739671467  |grad|_K:  7.074e-06  alpha:  5.431e-02  linmin: -2.270e-06  t[s]:  10144.33
	FillingsUpdate:  mu: +0.126887144  nElectrons: 327.000000  magneticMoment: [ Abs: 54.05173  Tot: -0.00000 ]
	SubspaceRotationAdjust: set factor to 0.257
ElecMinimize: Iter: 116  F: -1612.076223962583754  |grad|_K:  7.671e-06  alpha:  5.503e-02  linmin: -5.209e-06  t[s]:  10222.70
	FillingsUpdate:  mu: +0.124783765  nElectrons: 327.000000  magneticMoment: [ Abs: 54.09326  Tot: -0.00000 ]
	SubspaceRotationAdjust: set factor to 0.324
ElecMinimize: Iter: 117  F: -1612.076893553171431  |grad|_K:  8.762e-06  alpha:  5.892e-02  linmin: -1.641e-05  t[s]:  10303.30
	FillingsUpdate:  mu: +0.125613481  nElectrons: 327.000000  magneticMoment: [ Abs: 54.13749  Tot: +0.00000 ]
	SubspaceRotationAdjust: set factor to 0.438
ElecMinimize: Iter: 118  F: -1612.077655582116677  |grad|_K:  8.877e-06  alpha:  5.132e-02  linmin: -7.775e-06  t[s]:  10381.60
	FillingsUpdate:  mu: +0.128178092  nElectrons: 327.000000  magneticMoment: [ Abs: 54.17277  Tot: +0.00000 ]
	SubspaceRotationAdjust: set factor to 0.537
ElecMinimize: Iter: 119  F: -1612.078275539109200  |grad|_K:  8.394e-06  alpha:  4.067e-02  linmin:  3.536e-06  t[s]:  10458.40
	FillingsUpdate:  mu: +0.128706422  nElectrons: 327.000000  magneticMoment: [ Abs: 54.21166  Tot: +0.00000 ]
	SubspaceRotationAdjust: set factor to 0.613
ElecMinimize: Iter: 120  F: -1612.078858474997787  |grad|_K:  9.756e-06  alpha:  4.297e-02  linmin:  2.929e-05  t[s]:  10537.65
	FillingsUpdate:  mu: +0.128414243  nElectrons: 327.000000  magneticMoment: [ Abs: 54.27505  Tot: -0.00000 ]
	SubspaceRotationAdjust: set factor to 0.555
ElecMinimize: Iter: 121  F: -1612.079655097868908  |grad|_K:  1.130e-05  alpha:  4.371e-02  linmin: -1.913e-05  t[s]:  10616.52
	FillingsUpdate:  mu: +0.128012522  nElectrons: 327.000000  magneticMoment: [ Abs: 54.33905  Tot: -0.00000 ]
	SubspaceRotationAdjust: set factor to 0.838
ElecMinimize: Iter: 122  F: -1612.080392327004802  |grad|_K:  9.489e-06  alpha:  2.948e-02  linmin: -1.450e-06  t[s]:  10694.32
	FillingsUpdate:  mu: +0.125572001  nElectrons: 327.000000  magneticMoment: [ Abs: 54.39123  Tot: -0.00000 ]
	SubspaceRotationAdjust: set factor to 0.949
	SubspaceRotationAdjust: resetting CG because factor has changed by 7.47342
ElecMinimize: 	State modified externally: resetting search direction.
ElecMinimize: Iter: 123  F: -1612.080930355153669  |grad|_K:  1.067e-05  alpha:  3.101e-02
ElecMinimize: 	Predicted alpha/alphaT>3.000000, increasing alphaT to 9.304329e-02.
	FillingsUpdate:  mu: +0.127946105  nElectrons: 327.000000  magneticMoment: [ Abs: 54.40412  Tot: -0.00000 ]
	SubspaceRotationAdjust: set factor to 0.534
ElecMinimize: Iter: 124  F: -1612.083884181541862  |grad|_K:  1.863e-05  alpha:  1.317e-01  linmin: -1.240e-03  t[s]:  10897.32
	FillingsUpdate:  mu: +0.126730586  nElectrons: 327.000000  magneticMoment: [ Abs: 54.53915  Tot: +0.00000 ]
	SubspaceRotationAdjust: set factor to 0.316
ElecMinimize: Iter: 125  F: -1612.090477277371292  |grad|_K:  1.010e-05  alpha:  9.348e-02  linmin: -1.846e-05  t[s]:  10977.03
	FillingsUpdate:  mu: +0.129137376  nElectrons: 327.000000  magneticMoment: [ Abs: 54.61729  Tot: -0.00000 ]
	SubspaceRotationAdjust: set factor to 0.214
ElecMinimize: Iter: 126  F: -1612.094069827025805  |grad|_K:  7.278e-06  alpha:  1.722e-01  linmin: -2.160e-03  t[s]:  11055.63
	FillingsUpdate:  mu: +0.124717595  nElectrons: 327.000000  magneticMoment: [ Abs: 54.71648  Tot: +0.00000 ]
	SubspaceRotationAdjust: set factor to 0.153
ElecMinimize: Iter: 127  F: -1612.097103944878427  |grad|_K:  5.720e-06  alpha:  2.631e-01  linmin: -2.159e-04  t[s]:  11135.00
	FillingsUpdate:  mu: +0.127267074  nElectrons: 327.000000  magneticMoment: [ Abs: 54.75713  Tot: +0.00000 ]
	SubspaceRotationAdjust: set factor to 0.131
ElecMinimize: Iter: 128  F: -1612.098848426892573  |grad|_K:  4.313e-06  alpha:  2.737e-01  linmin: -2.270e-04  t[s]:  11214.05
	FillingsUpdate:  mu: +0.127926087  nElectrons: 327.000000  magneticMoment: [ Abs: 54.81521  Tot: +0.00000 ]
	SubspaceRotationAdjust: set factor to 0.158
ElecMinimize: Iter: 129  F: -1612.100342313546662  |grad|_K:  3.379e-06  alpha:  4.098e-01  linmin: -7.044e-05  t[s]:  11295.88
	FillingsUpdate:  mu: +0.124511557  nElectrons: 327.000000  magneticMoment: [ Abs: 54.87260  Tot: -0.00000 ]
	SubspaceRotationAdjust: set factor to 0.175
ElecMinimize: Iter: 130  F: -1612.101286321696989  |grad|_K:  3.002e-06  alpha:  4.273e-01  linmin: -3.962e-05  t[s]:  11374.94
	FillingsUpdate:  mu: +0.125601322  nElectrons: 327.000000  magneticMoment: [ Abs: 54.92142  Tot: -0.00000 ]
	SubspaceRotationAdjust: set factor to 0.182
ElecMinimize: Iter: 131  F: -1612.102066422766484  |grad|_K:  3.240e-06  alpha:  4.477e-01  linmin: -3.204e-04  t[s]:  11452.02
	FillingsUpdate:  mu: +0.124540804  nElectrons: 327.000000  magneticMoment: [ Abs: 55.00981  Tot: -0.00000 ]
	SubspaceRotationAdjust: set factor to 0.192
ElecMinimize: Iter: 132  F: -1612.103118368752348  |grad|_K:  3.148e-06  alpha:  5.115e-01  linmin:  3.298e-05  t[s]:  11532.89
	FillingsUpdate:  mu: +0.125090211  nElectrons: 327.000000  magneticMoment: [ Abs: 55.11164  Tot: +0.00000 ]
	SubspaceRotationAdjust: set factor to 0.219
ElecMinimize: Iter: 133  F: -1612.104274859226962  |grad|_K:  3.462e-06  alpha:  6.071e-01  linmin:  7.627e-05  t[s]:  11612.24
	FillingsUpdate:  mu: +0.126352127  nElectrons: 327.000000  magneticMoment: [ Abs: 55.21476  Tot: +0.00000 ]
	SubspaceRotationAdjust: set factor to 0.225
ElecMinimize: Iter: 134  F: -1612.105430281175586  |grad|_K:  3.885e-06  alpha:  5.006e-01  linmin:  7.504e-05  t[s]:  11692.74
	FillingsUpdate:  mu: +0.124204115  nElectrons: 327.000000  magneticMoment: [ Abs: 55.32990  Tot: -0.00000 ]
	SubspaceRotationAdjust: set factor to 0.196
ElecMinimize: Iter: 135  F: -1612.106538711642770  |grad|_K:  3.807e-06  alpha:  3.875e-01  linmin: -8.884e-05  t[s]:  11774.25
	FillingsUpdate:  mu: +0.125537989  nElectrons: 327.000000  magneticMoment: [ Abs: 55.41043  Tot: +0.00000 ]
	SubspaceRotationAdjust: set factor to 0.176
ElecMinimize: Iter: 136  F: -1612.107640101055722  |grad|_K:  3.535e-06  alpha:  3.921e-01  linmin:  7.946e-04  t[s]:  11851.09
	FillingsUpdate:  mu: +0.125983368  nElectrons: 327.000000  magneticMoment: [ Abs: 55.48337  Tot: -0.00000 ]
	SubspaceRotationAdjust: set factor to 0.169
ElecMinimize: Iter: 137  F: -1612.108531769576530  |grad|_K:  3.977e-06  alpha:  4.020e-01  linmin:  1.395e-03  t[s]:  11930.96
	FillingsUpdate:  mu: +0.124285791  nElectrons: 327.000000  magneticMoment: [ Abs: 55.55855  Tot: +0.00000 ]
	SubspaceRotationAdjust: set factor to 0.246
ElecMinimize: Iter: 138  F: -1612.109320968641441  |grad|_K:  3.869e-06  alpha:  2.961e-01  linmin: -1.729e-04  t[s]:  12012.14
	FillingsUpdate:  mu: +0.123702946  nElectrons: 327.000000  magneticMoment: [ Abs: 55.64193  Tot: +0.00000 ]
	SubspaceRotationAdjust: set factor to 0.247
ElecMinimize: Iter: 139  F: -1612.110387112558101  |grad|_K:  3.935e-06  alpha:  3.546e-01  linmin: -1.091e-03  t[s]:  12094.00
	FillingsUpdate:  mu: +0.122995997  nElectrons: 327.000000  magneticMoment: [ Abs: 55.67468  Tot: +0.00000 ]
	SubspaceRotationAdjust: set factor to 0.193
ElecMinimize: Iter: 140  F: -1612.111157657250033  |grad|_K:  4.349e-06  alpha:  1.834e-01  linmin: -2.057e-03  t[s]:  12173.73
	FillingsUpdate:  mu: +0.121833597  nElectrons: 327.000000  magneticMoment: [ Abs: 55.74447  Tot: -0.00000 ]
	SubspaceRotationAdjust: set factor to 0.174
ElecMinimize: Iter: 141  F: -1612.112224713457863  |grad|_K:  5.557e-06  alpha:  2.623e-01  linmin:  1.306e-03  t[s]:  12253.73
	FillingsUpdate:  mu: +0.122480166  nElectrons: 327.000000  magneticMoment: [ Abs: 55.79296  Tot: -0.00000 ]
	SubspaceRotationAdjust: set factor to 0.246
ElecMinimize: Iter: 142  F: -1612.112772169014988  |grad|_K:  5.559e-06  alpha:  1.041e-01  linmin: -3.065e-04  t[s]:  12333.39
	FillingsUpdate:  mu: +0.127458508  nElectrons: 327.000000  magneticMoment: [ Abs: 55.86606  Tot: -0.00000 ]
	SubspaceRotationAdjust: set factor to 0.201
ElecMinimize: Iter: 143  F: -1612.113720780801259  |grad|_K:  7.171e-06  alpha:  1.509e-01  linmin: -4.830e-05  t[s]:  12411.32
	FillingsUpdate:  mu: +0.129152138  nElectrons: 327.000000  magneticMoment: [ Abs: 55.95057  Tot: +0.00000 ]
	SubspaceRotationAdjust: set factor to 0.167
ElecMinimize: Iter: 144  F: -1612.114918343554564  |grad|_K:  7.633e-06  alpha:  1.147e-01  linmin:  1.448e-04  t[s]:  12491.15
	FillingsUpdate:  mu: +0.127885686  nElectrons: 327.000000  magneticMoment: [ Abs: 56.01160  Tot: -0.00000 ]
	SubspaceRotationAdjust: set factor to 0.181
ElecMinimize: Iter: 145  F: -1612.115813793709322  |grad|_K:  7.621e-06  alpha:  7.764e-02  linmin:  8.637e-06  t[s]:  12568.44
	FillingsUpdate:  mu: +0.128056583  nElectrons: 327.000000  magneticMoment: [ Abs: 56.06040  Tot: +0.00000 ]
	SubspaceRotationAdjust: set factor to 0.233
ElecMinimize: Iter: 146  F: -1612.116537400710513  |grad|_K:  7.782e-06  alpha:  6.398e-02  linmin:  8.327e-05  t[s]:  12649.38
	FillingsUpdate:  mu: +0.128568574  nElectrons: 327.000000  magneticMoment: [ Abs: 56.09987  Tot: -0.00000 ]
	SubspaceRotationAdjust: set factor to 0.307
ElecMinimize: Iter: 147  F: -1612.117131566191574  |grad|_K:  7.903e-06  alpha:  5.206e-02  linmin: -2.596e-05  t[s]:  12726.96
	FillingsUpdate:  mu: +0.130859168  nElectrons: 327.000000  magneticMoment: [ Abs: 56.13432  Tot: -0.00000 ]
	SubspaceRotationAdjust: set factor to 0.368
ElecMinimize: Iter: 148  F: -1612.117726802593097  |grad|_K:  8.111e-06  alpha:  4.927e-02  linmin: -8.979e-05  t[s]:  12805.44
	FillingsUpdate:  mu: +0.130905898  nElectrons: 327.000000  magneticMoment: [ Abs: 56.16561  Tot: -0.00000 ]
	SubspaceRotationAdjust: set factor to 0.359
ElecMinimize: Iter: 149  F: -1612.118376391361380  |grad|_K:  8.786e-06  alpha:  5.029e-02  linmin: -6.104e-05  t[s]:  12885.95
	FillingsUpdate:  mu: +0.129242014  nElectrons: 327.000000  magneticMoment: [ Abs: 56.19351  Tot: -0.00000 ]
	SubspaceRotationAdjust: set factor to 0.354
ElecMinimize: Iter: 150  F: -1612.119108283927289  |grad|_K:  9.063e-06  alpha:  4.859e-02  linmin: -9.138e-06  t[s]:  12961.95
	FillingsUpdate:  mu: +0.127045965  nElectrons: 327.000000  magneticMoment: [ Abs: 56.21681  Tot: +0.00000 ]
	SubspaceRotationAdjust: set factor to 0.451
ElecMinimize: Iter: 151  F: -1612.119847468339913  |grad|_K:  8.890e-06  alpha:  4.658e-02  linmin: -1.158e-05  t[s]:  13040.58
	FillingsUpdate:  mu: +0.124853830  nElectrons: 327.000000  magneticMoment: [ Abs: 56.24151  Tot: -0.00000 ]
	SubspaceRotationAdjust: set factor to 0.577
ElecMinimize: Iter: 152  F: -1612.120590351901001  |grad|_K:  9.319e-06  alpha:  4.859e-02  linmin:  5.676e-06  t[s]:  13118.46
	FillingsUpdate:  mu: +0.124752433  nElectrons: 327.000000  magneticMoment: [ Abs: 56.24226  Tot: -0.00000 ]
	SubspaceRotationAdjust: set factor to 0.766
ElecMinimize: Iter: 153  F: -1612.120620816825976  |grad|_K:  9.726e-06  alpha:  9.210e-04  linmin: -3.197e-03  t[s]:  13197.05
ElecMinimize: 	Predicted alpha/alphaT>3.000000, increasing alphaT to 2.763137e-03.
ElecMinimize: 	Predicted alpha/alphaT>3.000000, increasing alphaT to 8.289412e-03.
ElecMinimize: 	Predicted alpha/alphaT>3.000000, increasing alphaT to 2.486824e-02.
ElecMinimize: 	Step increased F by 9.844578e-02, reducing alpha to 5.191042e-03.
	FillingsUpdate:  mu: +0.123834363  nElectrons: 327.000000  magneticMoment: [ Abs: 56.24820  Tot: +0.00000 ]
	SubspaceRotationAdjust: set factor to 0.896
ElecMinimize: Iter: 154  F: -1612.120979154898350  |grad|_K:  1.008e-05  alpha:  5.191e-03  linmin: -5.728e-03  t[s]:  13388.93
ElecMinimize: 	Predicted alpha/alphaT>3.000000, increasing alphaT to 1.557313e-02.
	FillingsUpdate:  mu: +0.122621198  nElectrons: 327.000000  magneticMoment: [ Abs: 56.26744  Tot: +0.00000 ]
	SubspaceRotationAdjust: set factor to 0.856
ElecMinimize: Iter: 155  F: -1612.121783601924790  |grad|_K:  1.105e-05  alpha:  9.532e-03  linmin: -2.477e-03  t[s]:  13501.09
	FillingsUpdate:  mu: +0.122145890  nElectrons: 327.000000  magneticMoment: [ Abs: 56.27163  Tot: +0.00000 ]
	SubspaceRotationAdjust: set factor to 0.777
ElecMinimize: Iter: 156  F: -1612.121860164263353  |grad|_K:  1.145e-05  alpha:  1.140e-03  linmin: -3.032e-03  t[s]:  13579.31
	FillingsUpdate:  mu: +0.121246215  nElectrons: 327.000000  magneticMoment: [ Abs: 56.28305  Tot: -0.00000 ]
	SubspaceRotationAdjust: set factor to 0.609
ElecMinimize: Iter: 157  F: -1612.121964906093581  |grad|_K:  1.297e-05  alpha:  2.359e-03  linmin:  1.473e-03  t[s]:  13658.67
	FillingsUpdate:  mu: +0.121188425  nElectrons: 327.000000  magneticMoment: [ Abs: 56.28471  Tot: -0.00000 ]
	SubspaceRotationAdjust: set factor to 0.511
ElecMinimize: Iter: 158  F: -1612.121969262655284  |grad|_K:  1.230e-05  alpha:  2.335e-04  linmin: -2.464e-04  t[s]:  13738.45
ElecMinimize: 	Predicted alpha/alphaT>3.000000, increasing alphaT to 7.005828e-04.
	FillingsUpdate:  mu: +0.120989868  nElectrons: 327.000000  magneticMoment: [ Abs: 56.28979  Tot: -0.00000 ]
	SubspaceRotationAdjust: set factor to 0.43
ElecMinimize: Iter: 159  F: -1612.121992969293842  |grad|_K:  1.236e-05  alpha:  7.481e-04  linmin:  9.973e-05  t[s]:  13849.39
	FillingsUpdate:  mu: +0.120798662  nElectrons: 327.000000  magneticMoment: [ Abs: 56.29424  Tot: -0.00000 ]
	SubspaceRotationAdjust: set factor to 0.368
ElecMinimize: Iter: 160  F: -1612.122010460992215  |grad|_K:  1.227e-05  alpha:  6.117e-04  linmin:  2.952e-05  t[s]:  13929.55
	FillingsUpdate:  mu: +0.120667972  nElectrons: 327.000000  magneticMoment: [ Abs: 56.29896  Tot: -0.00000 ]
	SubspaceRotationAdjust: set factor to 0.318
ElecMinimize: Iter: 161  F: -1612.122028476324203  |grad|_K:  1.222e-05  alpha:  6.282e-04  linmin:  5.071e-05  t[s]:  14008.48
	FillingsUpdate:  mu: +0.120659049  nElectrons: 327.000000  magneticMoment: [ Abs: 56.30371  Tot: -0.00000 ]
	SubspaceRotationAdjust: set factor to 0.277
ElecMinimize: Iter: 162  F: -1612.122045815069214  |grad|_K:  1.217e-05  alpha:  6.143e-04  linmin:  3.789e-05  t[s]:  14084.95
	FillingsUpdate:  mu: +0.120694756  nElectrons: 327.000000  magneticMoment: [ Abs: 56.30858  Tot: +0.00000 ]
	SubspaceRotationAdjust: set factor to 0.244
ElecMinimize: Iter: 163  F: -1612.122063117084963  |grad|_K:  1.212e-05  alpha:  6.162e-04  linmin:  3.451e-05  t[s]:  14163.53
	FillingsUpdate:  mu: +0.120694721  nElectrons: 327.000000  magneticMoment: [ Abs: 56.31355  Tot: -0.00000 ]
	SubspaceRotationAdjust: set factor to 0.217
ElecMinimize: Iter: 164  F: -1612.122080324902981  |grad|_K:  1.207e-05  alpha:  6.173e-04  linmin:  2.979e-05  t[s]:  14241.26
	FillingsUpdate:  mu: +0.120628013  nElectrons: 327.000000  magneticMoment: [ Abs: 56.31862  Tot: -0.00000 ]
	SubspaceRotationAdjust: set factor to 0.194
ElecMinimize: Iter: 165  F: -1612.122097524869332  |grad|_K:  1.202e-05  alpha:  6.212e-04  linmin:  2.626e-05  t[s]:  14321.09
	FillingsUpdate:  mu: +0.120489578  nElectrons: 327.000000  magneticMoment: [ Abs: 56.32377  Tot: -0.00000 ]
	SubspaceRotationAdjust: set factor to 0.174
ElecMinimize: Iter: 166  F: -1612.122114744836381  |grad|_K:  1.196e-05  alpha:  6.265e-04  linmin:  2.324e-05  t[s]:  14401.27
	FillingsUpdate:  mu: +0.120287071  nElectrons: 327.000000  magneticMoment: [ Abs: 56.32902  Tot: +0.00000 ]
	SubspaceRotationAdjust: set factor to 0.158
ElecMinimize: Iter: 167  F: -1612.122132009573306  |grad|_K:  1.190e-05  alpha:  6.333e-04  linmin:  2.062e-05  t[s]:  14479.68
	FillingsUpdate:  mu: +0.120033863  nElectrons: 327.000000  magneticMoment: [ Abs: 56.33433  Tot: -0.00000 ]
	SubspaceRotationAdjust: set factor to 0.143
ElecMinimize: Iter: 168  F: -1612.122149335325275  |grad|_K:  1.183e-05  alpha:  6.413e-04  linmin:  1.848e-05  t[s]:  14560.49
	FillingsUpdate:  mu: +0.119747620  nElectrons: 327.000000  magneticMoment: [ Abs: 56.33973  Tot: -0.00000 ]
	SubspaceRotationAdjust: set factor to 0.131
ElecMinimize: Iter: 169  F: -1612.122166726678870  |grad|_K:  1.176e-05  alpha:  6.504e-04  linmin:  1.653e-05  t[s]:  14639.21
	FillingsUpdate:  mu: +0.119451672  nElectrons: 327.000000  magneticMoment: [ Abs: 56.34519  Tot: +0.00000 ]
	SubspaceRotationAdjust: set factor to 0.12
	SubspaceRotationAdjust: resetting CG because factor has changed by 0.126098
ElecMinimize: 	State modified externally: resetting search direction.
ElecMinimize: Iter: 170  F: -1612.122184187362336  |grad|_K:  1.141e-05  alpha:  6.605e-04
ElecMinimize: 	Predicted alpha/alphaT>3.000000, increasing alphaT to 1.981351e-03.
ElecMinimize: 	Predicted alpha/alphaT>3.000000, increasing alphaT to 5.944052e-03.
ElecMinimize: 	Predicted alpha/alphaT>3.000000, increasing alphaT to 1.783216e-02.
	FillingsUpdate:  mu: +0.119810102  nElectrons: 327.000000  magneticMoment: [ Abs: 56.33591  Tot: +0.00000 ]
	SubspaceRotationAdjust: set factor to 0.116
ElecMinimize: Iter: 171  F: -1612.126620109118221  |grad|_K:  5.270e-06  alpha:  1.587e-01  linmin: -2.497e-02  t[s]:  14879.41
	FillingsUpdate:  mu: +0.123417281  nElectrons: 327.000000  magneticMoment: [ Abs: 56.33612  Tot: +0.00000 ]
	SubspaceRotationAdjust: set factor to 0.0949
ElecMinimize: Iter: 172  F: -1612.128181690567089  |grad|_K:  3.773e-06  alpha:  2.473e-01  linmin: -1.535e-03  t[s]:  14958.50
	FillingsUpdate:  mu: +0.124007114  nElectrons: 327.000000  magneticMoment: [ Abs: 56.37195  Tot: -0.00000 ]
	SubspaceRotationAdjust: set factor to 0.0959
ElecMinimize: Iter: 173  F: -1612.129794260731614  |grad|_K:  3.842e-06  alpha:  5.714e-01  linmin: -4.809e-04  t[s]:  15037.09
	FillingsUpdate:  mu: +0.121156879  nElectrons: 327.000000  magneticMoment: [ Abs: 56.43834  Tot: -0.00000 ]
	SubspaceRotationAdjust: set factor to 0.0872
ElecMinimize: Iter: 174  F: -1612.131325145460096  |grad|_K:  4.315e-06  alpha:  5.133e-01  linmin:  3.233e-03  t[s]:  15117.47
	FillingsUpdate:  mu: +0.120239589  nElectrons: 327.000000  magneticMoment: [ Abs: 56.50443  Tot: +0.00000 ]
	SubspaceRotationAdjust: set factor to 0.108
ElecMinimize: Iter: 175  F: -1612.132376847968089  |grad|_K:  3.976e-06  alpha:  3.240e-01  linmin: -1.186e-04  t[s]:  15195.93
	FillingsUpdate:  mu: +0.120814768  nElectrons: 327.000000  magneticMoment: [ Abs: 56.56588  Tot: -0.00000 ]
	SubspaceRotationAdjust: set factor to 0.108
ElecMinimize: Iter: 176  F: -1612.133479577423259  |grad|_K:  4.298e-06  alpha:  3.584e-01  linmin: -3.769e-04  t[s]:  15274.01
	FillingsUpdate:  mu: +0.122672492  nElectrons: 327.000000  magneticMoment: [ Abs: 56.61943  Tot: -0.00000 ]
	SubspaceRotationAdjust: set factor to 0.103
ElecMinimize: Iter: 177  F: -1612.134420897300060  |grad|_K:  4.169e-06  alpha:  2.587e-01  linmin:  8.774e-06  t[s]:  15352.01
	FillingsUpdate:  mu: +0.124046155  nElectrons: 327.000000  magneticMoment: [ Abs: 56.70737  Tot: -0.00000 ]
	SubspaceRotationAdjust: set factor to 0.13
ElecMinimize: Iter: 178  F: -1612.135872357766402  |grad|_K:  4.284e-06  alpha:  4.264e-01  linmin: -4.883e-04  t[s]:  15429.04
	FillingsUpdate:  mu: +0.123851964  nElectrons: 327.000000  magneticMoment: [ Abs: 56.75681  Tot: -0.00000 ]
	SubspaceRotationAdjust: set factor to 0.12
ElecMinimize: Iter: 179  F: -1612.137164025780066  |grad|_K:  5.264e-06  alpha:  2.032e-01  linmin: -6.952e-03  t[s]:  15509.26
	FillingsUpdate:  mu: +0.128978928  nElectrons: 327.000000  magneticMoment: [ Abs: 56.85245  Tot: -0.00000 ]
	SubspaceRotationAdjust: set factor to 0.0682
ElecMinimize: Iter: 180  F: -1612.139025496328713  |grad|_K:  1.616e-05  alpha:  2.042e-01  linmin:  3.527e-03  t[s]:  15592.02
	FillingsUpdate:  mu: +0.129139550  nElectrons: 327.000000  magneticMoment: [ Abs: 56.86309  Tot: +0.00000 ]
	SubspaceRotationAdjust: set factor to 0.0424
ElecMinimize: Iter: 181  F: -1612.139070045936251  |grad|_K:  1.351e-05  alpha:  2.458e-03  linmin: -9.797e-04  t[s]:  15673.56
ElecMinimize: 	Wrong curvature in test step, increasing alphaT to 7.373862e-03.
	FillingsUpdate:  mu: +0.129263404  nElectrons: 327.000000  magneticMoment: [ Abs: 56.87071  Tot: +0.00000 ]
	SubspaceRotationAdjust: set factor to 0.0296
ElecMinimize: Iter: 182  F: -1612.139296480656185  |grad|_K:  1.147e-05  alpha: -2.289e-02  linmin: -5.530e-03  t[s]:  15724.87
	FillingsUpdate:  mu: +0.128945913  nElectrons: 327.000000  magneticMoment: [ Abs: 56.91934  Tot: -0.00000 ]
	SubspaceRotationAdjust: set factor to 0.0258
ElecMinimize: Iter: 183  F: -1612.142042516060201  |grad|_K:  9.661e-06  alpha:  2.574e-02  linmin: -6.840e-03  t[s]:  15804.18
	FillingsUpdate:  mu: +0.130091216  nElectrons: 327.000000  magneticMoment: [ Abs: 56.95744  Tot: -0.00000 ]
	SubspaceRotationAdjust: set factor to 0.0244
ElecMinimize: Iter: 184  F: -1612.143299080518091  |grad|_K:  9.708e-06  alpha:  2.718e-02  linmin:  1.465e-03  t[s]:  15883.11
	FillingsUpdate:  mu: +0.130542667  nElectrons: 327.000000  magneticMoment: [ Abs: 56.96341  Tot: +0.00000 ]
	SubspaceRotationAdjust: set factor to 0.0235
ElecMinimize: Iter: 185  F: -1612.143351700323592  |grad|_K:  9.704e-06  alpha:  4.136e-03  linmin: -1.813e-04  t[s]:  15963.49
	FillingsUpdate:  mu: +0.131423566  nElectrons: 327.000000  magneticMoment: [ Abs: 56.97337  Tot: -0.00000 ]
	SubspaceRotationAdjust: set factor to 0.0225
ElecMinimize: Iter: 186  F: -1612.143481883103959  |grad|_K:  9.757e-06  alpha:  6.926e-03  linmin:  7.570e-05  t[s]:  16042.93
	FillingsUpdate:  mu: +0.132279488  nElectrons: 327.000000  magneticMoment: [ Abs: 56.98221  Tot: -0.00000 ]
	SubspaceRotationAdjust: set factor to 0.0214
ElecMinimize: Iter: 187  F: -1612.143593392596813  |grad|_K:  9.724e-06  alpha:  6.187e-03  linmin: -6.351e-07  t[s]:  16121.60
	FillingsUpdate:  mu: +0.133081483  nElectrons: 327.000000  magneticMoment: [ Abs: 56.99102  Tot: +0.00000 ]
	SubspaceRotationAdjust: set factor to 0.0201
ElecMinimize: Iter: 188  F: -1612.143709833747153  |grad|_K:  9.606e-06  alpha:  6.381e-03  linmin: -4.126e-05  t[s]:  16200.24
	FillingsUpdate:  mu: +0.133761504  nElectrons: 327.000000  magneticMoment: [ Abs: 56.99984  Tot: -0.00000 ]
	SubspaceRotationAdjust: set factor to 0.0188
ElecMinimize: Iter: 189  F: -1612.143833811941249  |grad|_K:  9.392e-06  alpha:  6.881e-03  linmin: -9.546e-05  t[s]:  16280.69
	FillingsUpdate:  mu: +0.134321529  nElectrons: 327.000000  magneticMoment: [ Abs: 57.00886  Tot: +0.00000 ]
	SubspaceRotationAdjust: set factor to 0.0176
ElecMinimize: Iter: 190  F: -1612.143972173067823  |grad|_K:  9.071e-06  alpha:  7.896e-03  linmin: -1.780e-04  t[s]:  16361.37
	FillingsUpdate:  mu: +0.134813605  nElectrons: 327.000000  magneticMoment: [ Abs: 57.01832  Tot: +0.00000 ]
	SubspaceRotationAdjust: set factor to 0.0164
ElecMinimize: Iter: 191  F: -1612.144136418789913  |grad|_K:  8.630e-06  alpha:  9.781e-03  linmin: -3.131e-04  t[s]:  16442.38
	FillingsUpdate:  mu: +0.135244572  nElectrons: 327.000000  magneticMoment: [ Abs: 57.02854  Tot: +0.00000 ]
	SubspaceRotationAdjust: set factor to 0.0156
	SubspaceRotationAdjust: resetting CG because factor has changed by 0.130326
ElecMinimize: 	State modified externally: resetting search direction.
ElecMinimize: Iter: 192  F: -1612.144348349888560  |grad|_K:  7.957e-06  alpha:  1.336e-02
ElecMinimize: 	Predicted alpha/alphaT>3.000000, increasing alphaT to 4.007972e-02.
ElecMinimize: 	Predicted alpha/alphaT>3.000000, increasing alphaT to 1.202392e-01.
ElecMinimize: 	Predicted alpha/alphaT>3.000000, increasing alphaT to 3.607175e-01.
	FillingsUpdate:  mu: +0.126237503  nElectrons: 327.000000  magneticMoment: [ Abs: 57.02234  Tot: -0.00000 ]
	SubspaceRotationAdjust: set factor to 0.0194
ElecMinimize: Iter: 193  F: -1612.152959798949951  |grad|_K:  5.078e-06  alpha:  7.044e-01  linmin:  2.250e-04  t[s]:  16679.22
	FillingsUpdate:  mu: +0.125642848  nElectrons: 327.000000  magneticMoment: [ Abs: 57.02135  Tot: +0.00000 ]
	SubspaceRotationAdjust: set factor to 0.0225
ElecMinimize: Iter: 194  F: -1612.155289662213590  |grad|_K:  3.397e-06  alpha:  4.692e-01  linmin:  3.400e-05  t[s]:  16760.58
	FillingsUpdate:  mu: +0.124335527  nElectrons: 327.000000  magneticMoment: [ Abs: 57.02053  Tot: +0.00000 ]
	SubspaceRotationAdjust: set factor to 0.0266
ElecMinimize: Iter: 195  F: -1612.156615828959730  |grad|_K:  2.800e-06  alpha:  5.955e-01  linmin: -3.340e-04  t[s]:  16839.53
[...]
	FillingsUpdate:  mu: +0.107859546  nElectrons: 327.000000  magneticMoment: [ Abs: 59.34968  Tot: +0.00000 ]
	SubspaceRotationAdjust: set factor to 0.133
ElecMinimize: Iter:   9  F: -1612.331878299341042  |grad|_K:  2.502e-07  alpha:  4.976e-01  linmin: -5.936e-07  t[s]: 128440.81
	FillingsUpdate:  mu: +0.108057139  nElectrons: 327.000000  magneticMoment: [ Abs: 59.34941  Tot: +0.00000 ]
	SubspaceRotationAdjust: set factor to 0.131
ElecMinimize: Iter:  10  F: -1612.331883949127587  |grad|_K:  2.359e-07  alpha:  4.680e-01  linmin:  1.013e-06  t[s]: 128517.40
	FillingsUpdate:  mu: +0.107868093  nElectrons: 327.000000  magneticMoment: [ Abs: 59.34915  Tot: +0.00000 ]
	SubspaceRotationAdjust: set factor to 0.118
ElecMinimize: Iter:  11  F: -1612.331887793935266  |grad|_K:  1.979e-07  alpha:  3.585e-01  linmin: -4.943e-07  t[s]: 128596.36
	FillingsUpdate:  mu: +0.107961423  nElectrons: 327.000000  magneticMoment: [ Abs: 59.34898  Tot: +0.00000 ]
	SubspaceRotationAdjust: set factor to 0.113
ElecMinimize: Iter:  12  F: -1612.331890687554505  |grad|_K:  1.441e-07  alpha:  3.833e-01  linmin:  7.843e-07  t[s]: 128673.75
	FillingsUpdate:  mu: +0.107913837  nElectrons: 327.000000  magneticMoment: [ Abs: 59.34888  Tot: -0.00000 ]
	SubspaceRotationAdjust: set factor to 0.116
ElecMinimize: Iter:  13  F: -1612.331892252712123  |grad|_K:  1.103e-07  alpha:  3.911e-01  linmin: -4.763e-07  t[s]: 128750.49
	FillingsUpdate:  mu: +0.107891290  nElectrons: 327.000000  magneticMoment: [ Abs: 59.34880  Tot: +0.00000 ]
	SubspaceRotationAdjust: set factor to 0.124
ElecMinimize: Iter:  14  F: -1612.331893127423427  |grad|_K:  8.070e-08  alpha:  3.728e-01  linmin: -9.406e-07  t[s]: 128827.85
	FillingsUpdate:  mu: +0.107930482  nElectrons: 327.000000  magneticMoment: [ Abs: 59.34875  Tot: -0.00000 ]
	SubspaceRotationAdjust: set factor to 0.131
ElecMinimize: Iter:  15  F: -1612.331893575267713  |grad|_K:  6.108e-08  alpha:  3.564e-01  linmin:  2.128e-06  t[s]: 128905.81
	FillingsUpdate:  mu: +0.107885220  nElectrons: 327.000000  magneticMoment: [ Abs: 59.34869  Tot: +0.00000 ]
	SubspaceRotationAdjust: set factor to 0.143
ElecMinimize: Iter:  16  F: -1612.331893861784920  |grad|_K:  5.023e-08  alpha:  3.981e-01  linmin: -9.761e-06  t[s]: 128984.99
	FillingsUpdate:  mu: +0.107909968  nElectrons: 327.000000  magneticMoment: [ Abs: 59.34864  Tot: +0.00000 ]
	SubspaceRotationAdjust: set factor to 0.163
ElecMinimize: Iter:  17  F: -1612.331894055126440  |grad|_K:  4.550e-08  alpha:  3.970e-01  linmin:  1.211e-05  t[s]: 129062.22
	FillingsUpdate:  mu: +0.107879897  nElectrons: 327.000000  magneticMoment: [ Abs: 59.34858  Tot: -0.00000 ]
	SubspaceRotationAdjust: set factor to 0.192
ElecMinimize: Iter:  18  F: -1612.331894222499841  |grad|_K:  4.117e-08  alpha:  4.198e-01  linmin:  3.457e-06  t[s]: 129141.77
ElecMinimize: Converged (|Delta F|<1.000000e-06 for 5 iters).
Setting wave functions to eigenvectors of Hamiltonian

# Ionic positions in lattice coordinates:
ion Cr   0.013322230650098   0.000471274220872   0.167509968679583 1
ion Cr   0.515885897265301  -0.002182292910382   0.163600059381530 1
ion Cr   0.010047176799956   0.498365894170560   0.165097005009409 1
ion Cr   0.512106368851767   0.497284518806867   0.164507371863243 1
ion Cr   0.256614475722816   0.248256960845765   0.059216098391270 1
ion Cr   0.257918663910382   0.747296663352882   0.059738219520403 1
ion Cr  -0.246665464221449   0.249375344208993   0.051511793700688 1
ion Cr  -0.246025655860260   0.747825566172337   0.051976308562245 1
ion Cr   0.000000000000000   0.000000000000000  -0.050000000000000 0
ion Cr   0.500000000000000   0.000000000000000  -0.050000000000000 0
ion Cr   0.000000000000000   0.500000000000000  -0.050000000000000 0
ion Cr   0.500000000000000   0.500000000000000  -0.050000000000000 0
ion Cr   0.250000000000000   0.250000000000000  -0.150000000000000 0
ion Cr   0.250000000000000   0.750000000000000  -0.150000000000000 0
ion Cr  -0.250000000000000   0.250000000000000  -0.150000000000000 0
ion Cr  -0.250000000000000   0.750000000000000  -0.150000000000000 0
ion O   0.274136076389373   0.262341864190739   0.159885697769957 1
ion O   0.272940792118234   0.728839697234387   0.159791018789352 1
ion O  -0.257585537991071   0.260716083442816   0.149978016228571 1
ion O  -0.257403781922548   0.736344983323226   0.150996613382807 1
ion O   0.060342870643017  -0.003508186045675   0.072765407487437 1
ion O   0.541625649353591  -0.002271373894232   0.041700964874565 1
ion O  -0.037087677872768   0.498116195727588   0.040542826245734 1
ion O   0.456670014384727   0.497778221181152   0.040442030332084 1
ion O   0.250000000000000   0.250000000000000  -0.050000000000000 0
ion O   0.250000000000000   0.750000000000000  -0.050000000000000 0
ion O  -0.250000000000000   0.250000000000000  -0.050000000000000 0
ion O  -0.250000000000000   0.750000000000000  -0.050000000000000 0
ion O   0.000000000000000   0.000000000000000  -0.150000000000000 0
ion O   0.500000000000000   0.000000000000000  -0.150000000000000 0
ion O   0.000000000000000   0.500000000000000  -0.150000000000000 0
ion O   0.500000000000000   0.500000000000000  -0.150000000000000 0
ion O  -0.050410518449811   0.006753045504020   0.253138620349831 1
ion H   0.060448699871119   0.057902969276086   0.279193769381939 1

# Forces in Lattice coordinates:
force Cr   0.005213168956975   0.002400344090954  -0.053224768106169 1
force Cr   0.000374603898770   0.000160281947906  -0.023629329146092 1
force Cr   0.011791795061279   0.002770429794546  -0.023812795944064 1
force Cr  -0.000905166316969   0.000666620622534  -0.016535025408889 1
force Cr   0.004014767753872   0.003404097462278   0.010235566379597 1
force Cr   0.001491096031665  -0.005299987426861   0.005699152614183 1
force Cr  -0.001300866216446  -0.000575459314189   0.000115026671717 1
force Cr  -0.000407387791233  -0.000214338011419   0.007489352456234 1
force Cr   0.042481421165333   0.012648864857460   0.673915404286662 0
force Cr   0.032510453565553   0.010547886761020   0.108813790332311 0
force Cr  -0.031967637517297  -0.021869596957553   0.251552248274413 0
force Cr  -0.148125690158621  -0.019559934160282   0.340823595913233 0
force Cr  -0.000627006394065  -0.019439845420045  -0.978813708985006 0
force Cr   0.007339339656164   0.030840938504067  -0.539533408551011 0
force Cr   0.026306851205714  -0.028016217459174  -1.035723083252983 0
force Cr   0.042686878605198   0.030111698581594  -0.657015168799259 0
force O  -0.004628276548371  -0.003029740901831   0.002535824689172 1
force O  -0.003266207470120   0.003783644681377   0.000436963112202 1
force O   0.002201018465760  -0.003696775544153  -0.015053148787867 1
force O   0.007634549440472   0.004396163717997  -0.015824931581513 1
force O  -0.000233399284704  -0.003029229263365   0.010985474465072 1
force O   0.002365680578492   0.000410912740557  -0.003273673855212 1
force O  -0.002166166924892   0.001509789195017  -0.007721662524169 1
force O  -0.000237656708172   0.001245919114613  -0.009702653413975 1
force O  -0.238360349264332  -0.086612826253524   0.472979630152120 0
force O  -0.241754940699440   0.072469757059487   0.081213981751269 0
force O   0.206854268410929  -0.045174474915951   0.610582793850289 0
force O   0.195690285255455   0.042643225210553   0.174193474225229 0
force O   0.017097598431952  -0.091012176239621  -0.649595495973713 0
force O  -0.001703154654879  -0.082393538577224   0.400875254736430 0
force O   0.032454000401298   0.081985478819552   0.447836187517581 0
force O   0.026375328809591   0.084414605323868   0.367087155719435 0
force O  -0.021994450415308  -0.010144073505590  -0.038964618132838 1
force H   0.021131758146489   0.004234894174722   0.070915773855575 1

# Energy components:
   Eewald =     4473.8554289625017191
       EH =     5912.7948589990328401
     Eloc =   -12127.7787826993098861
      Enl =     -394.0159748913671365
   Epulay =       -0.0003758999111746
      Exc =     -215.2698090653616987
       KE =      737.1246571487990877
        U =        0.9597485851642222
-------------------------------------
     Etot =    -1612.3302488604515474
       TS =        0.0016453620483029
-------------------------------------
        F =    -1612.3318942224998409

IonicMinimize: Iter:  31  F: -1612.331894222499841  |grad|_K:  5.614e-04  alpha:  1.000e+00  linmin:  4.718e-03  t[s]: 129152.19

#--- Lowdin population analysis ---
# oxidation-state Cr +3.003 +3.028 +3.028 +2.909 +2.871 +2.866 +2.868 +2.871 +2.889 +2.889 +2.937 +2.888 +2.960 +2.969 +2.943 +2.974
# magnetic-moments Cr +3.826 -2.017 +2.043 -3.965 +3.917 +3.930 -3.911 -3.934 -3.895 +3.773 -3.600 +3.780 -4.010 -2.081 +4.051 +2.081
# oxidation-state O -0.870 -0.868 -0.854 -0.859 -0.872 -0.854 -0.825 -0.844 -0.899 -0.879 -0.889 -0.872 -0.898 -0.864 -0.865 -0.871 -0.840
# magnetic-moments O -0.026 -0.024 +0.065 +0.060 -0.153 +0.035 +0.157 -0.184 -0.004 +0.073 +0.103 +0.031 -0.036 -0.040 +0.032 -0.031 -0.067
# oxidation-state H +0.380
# magnetic-moments H +0.006


-------- Electronic minimization -----------
	FillingsUpdate:  mu: +0.107753680  nElectrons: 327.000000  magneticMoment: [ Abs: 59.34737  Tot: +0.00000 ]
ElecMinimize: Iter:   0  F: -1612.330830207121380  |grad|_K:  5.032e-06  alpha:  1.000e+00
	FillingsUpdate:  mu: +0.107361495  nElectrons: 327.000000  magneticMoment: [ Abs: 59.34743  Tot: +0.00000 ]
	SubspaceRotationAdjust: set factor to 0.178
ElecMinimize: Iter:   1  F: -1612.331856677846645  |grad|_K:  1.044e-06  alpha:  2.103e-01  linmin:  1.642e-04  t[s]: 129280.96
	FillingsUpdate:  mu: +0.108355238  nElectrons: 327.000000  magneticMoment: [ Abs: 59.34761  Tot: +0.00000 ]
	SubspaceRotationAdjust: set factor to 0.118
ElecMinimize: Iter:   2  F: -1612.331897834061692  |grad|_K:  5.911e-07  alpha:  1.959e-01  linmin:  7.917e-05  t[s]: 129361.32
	FillingsUpdate:  mu: +0.107662747  nElectrons: 327.000000  magneticMoment: [ Abs: 59.34753  Tot: +0.00000 ]
	SubspaceRotationAdjust: set factor to 0.0745
ElecMinimize: Iter:   3  F: -1612.331909082374978  |grad|_K:  2.902e-07  alpha:  1.672e-01  linmin: -3.889e-05  t[s]: 129439.17
	FillingsUpdate:  mu: +0.107702197  nElectrons: 327.000000  magneticMoment: [ Abs: 59.34753  Tot: -0.00000 ]
	SubspaceRotationAdjust: set factor to 0.101
ElecMinimize: Iter:   4  F: -1612.331913974101781  |grad|_K:  1.994e-07  alpha:  3.008e-01  linmin:  1.411e-06  t[s]: 129518.70
	FillingsUpdate:  mu: +0.107899382  nElectrons: 327.000000  magneticMoment: [ Abs: 59.34756  Tot: -0.00000 ]
	SubspaceRotationAdjust: set factor to 0.0988
ElecMinimize: Iter:   5  F: -1612.331916731171532  |grad|_K:  1.440e-07  alpha:  3.597e-01  linmin:  3.838e-06  t[s]: 129596.90
	FillingsUpdate:  mu: +0.107761480  nElectrons: 327.000000  magneticMoment: [ Abs: 59.34751  Tot: -0.00000 ]
	SubspaceRotationAdjust: set factor to 0.103
ElecMinimize: Iter:   6  F: -1612.331918464517457  |grad|_K:  1.294e-07  alpha:  4.338e-01  linmin: -2.419e-06  t[s]: 129675.69
	FillingsUpdate:  mu: +0.107820901  nElectrons: 327.000000  magneticMoment: [ Abs: 59.34748  Tot: -0.00000 ]
	SubspaceRotationAdjust: set factor to 0.127
ElecMinimize: Iter:   7  F: -1612.331919829263597  |grad|_K:  1.157e-07  alpha:  4.224e-01  linmin:  6.846e-07  t[s]: 129753.77
	FillingsUpdate:  mu: +0.107910315  nElectrons: 327.000000  magneticMoment: [ Abs: 59.34743  Tot: -0.00000 ]
	SubspaceRotationAdjust: set factor to 0.141
ElecMinimize: Iter:   8  F: -1612.331921080853590  |grad|_K:  1.229e-07  alpha:  4.850e-01  linmin:  5.215e-07  t[s]: 129833.34
	FillingsUpdate:  mu: +0.107751839  nElectrons: 327.000000  magneticMoment: [ Abs: 59.34733  Tot: +0.00000 ]
	SubspaceRotationAdjust: set factor to 0.122
ElecMinimize: Iter:   9  F: -1612.331922258866143  |grad|_K:  1.238e-07  alpha:  4.046e-01  linmin: -1.550e-06  t[s]: 129912.35
	FillingsUpdate:  mu: +0.107868190  nElectrons: 327.000000  magneticMoment: [ Abs: 59.34725  Tot: +0.00000 ]
	SubspaceRotationAdjust: set factor to 0.111
ElecMinimize: Iter:  10  F: -1612.331923280832598  |grad|_K:  1.021e-07  alpha:  3.456e-01  linmin:  1.140e-06  t[s]: 129990.22
	FillingsUpdate:  mu: +0.107853854  nElectrons: 327.000000  magneticMoment: [ Abs: 59.34712  Tot: -0.00000 ]
	SubspaceRotationAdjust: set factor to 0.126
ElecMinimize: Iter:  11  F: -1612.331924184400577  |grad|_K:  7.933e-08  alpha:  4.498e-01  linmin: -1.324e-06  t[s]: 130069.99
	FillingsUpdate:  mu: +0.107775370  nElectrons: 327.000000  magneticMoment: [ Abs: 59.34703  Tot: -0.00000 ]
	SubspaceRotationAdjust: set factor to 0.113
ElecMinimize: Iter:  12  F: -1612.331924686613320  |grad|_K:  6.727e-08  alpha:  4.138e-01  linmin: -2.636e-07  t[s]: 130148.03
	FillingsUpdate:  mu: +0.107851037  nElectrons: 327.000000  magneticMoment: [ Abs: 59.34699  Tot: -0.00000 ]
	SubspaceRotationAdjust: set factor to 0.082
ElecMinimize: Iter:  13  F: -1612.331924942743854  |grad|_K:  4.782e-08  alpha:  2.934e-01  linmin:  7.482e-07  t[s]: 130228.08
	FillingsUpdate:  mu: +0.107819432  nElectrons: 327.000000  magneticMoment: [ Abs: 59.34695  Tot: +0.00000 ]
	SubspaceRotationAdjust: set factor to 0.0886
ElecMinimize: Iter:  14  F: -1612.331925114588330  |grad|_K:  3.519e-08  alpha:  3.896e-01  linmin: -5.266e-06  t[s]: 130304.94
	FillingsUpdate:  mu: +0.107802573  nElectrons: 327.000000  magneticMoment: [ Abs: 59.34692  Tot: +0.00000 ]
	SubspaceRotationAdjust: set factor to 0.0982
ElecMinimize: Iter:  15  F: -1612.331925205950938  |grad|_K:  2.604e-08  alpha:  3.821e-01  linmin: -6.376e-06  t[s]: 130383.08
ElecMinimize: Converged (|Delta F|<1.000000e-06 for 5 iters).
Setting wave functions to eigenvectors of Hamiltonian

# Ionic positions in lattice coordinates:
ion Cr   0.013426743613717   0.000494955974065   0.167337821101349 1
ion Cr   0.515991847760507  -0.002238373483834   0.163483222041825 1
ion Cr   0.010748396376206   0.498426861268835   0.165004913994770 1
ion Cr   0.512426342666262   0.497316174085676   0.164422701017945 1
ion Cr   0.256806973937474   0.248333144170906   0.059182620208810 1
ion Cr   0.258074238804285   0.747168638503983   0.059740077362322 1
ion Cr  -0.246774750566710   0.249270830455957   0.051490641762262 1
ion Cr  -0.246164876875826   0.747953419771409   0.051946743517031 1
ion Cr   0.000000000000000   0.000000000000000  -0.050000000000000 0
ion Cr   0.500000000000000   0.000000000000000  -0.050000000000000 0
ion Cr   0.000000000000000   0.500000000000000  -0.050000000000000 0
ion Cr   0.500000000000000   0.500000000000000  -0.050000000000000 0
ion Cr   0.250000000000000   0.250000000000000  -0.150000000000000 0
ion Cr   0.250000000000000   0.750000000000000  -0.150000000000000 0
ion Cr  -0.250000000000000   0.250000000000000  -0.150000000000000 0
ion Cr  -0.250000000000000   0.750000000000000  -0.150000000000000 0
ion O   0.274340213445311   0.262386025101093   0.159809808432791 1
ion O   0.273291207534501   0.729024694264431   0.159836768393142 1
ion O  -0.257314748807804   0.260681881535213   0.149908205308135 1
ion O  -0.257015465381845   0.736447103080899   0.150925146847092 1
ion O   0.060411948493916  -0.003591644144995   0.072690147728276 1
ion O   0.541609822410292  -0.002349346408690   0.041664598375624 1
ion O  -0.037370488162311   0.498318925515552   0.040517095819021 1
ion O   0.456690664869092   0.497912026152933   0.040419714935197 1
ion O   0.250000000000000   0.250000000000000  -0.050000000000000 0
ion O   0.250000000000000   0.750000000000000  -0.050000000000000 0
ion O  -0.250000000000000   0.250000000000000  -0.050000000000000 0
ion O  -0.250000000000000   0.750000000000000  -0.050000000000000 0
ion O   0.000000000000000   0.000000000000000  -0.150000000000000 0
ion O   0.500000000000000   0.000000000000000  -0.150000000000000 0
ion O   0.000000000000000   0.500000000000000  -0.150000000000000 0
ion O   0.500000000000000   0.500000000000000  -0.150000000000000 0
ion O  -0.050585982015039   0.006586165985004   0.253093822712529 1
ion H   0.060553031962394   0.057597159451659   0.279204701044905 1

# Forces in Lattice coordinates:
force Cr   0.002980279350470   0.002196288034701  -0.013327081284626 1
force Cr   0.001770951588363   0.000610228430120  -0.016112940977913 1
force Cr   0.010961807971927   0.002390970620756  -0.019026108221346 1
force Cr  -0.001083526524491   0.001193311115767  -0.012782927908408 1
force Cr   0.002302097554542   0.002862715460922   0.016987249809407 1
force Cr  -0.000786112918082  -0.003776643495177   0.014425137113897 1
force Cr   0.001181034894708   0.002074813276667   0.006085749978530 1
force Cr   0.002065991183429  -0.002406986514790   0.015579537592548 1
force Cr   0.042468465214332   0.012462397371319   0.674565351381527 0
force Cr   0.032294353921709   0.010151807333980   0.103062418340596 0
force Cr  -0.032702831534790  -0.021178904812629   0.251734868369603 0
force Cr  -0.147812111228655  -0.019010676220304   0.335483972822729 0
force Cr  -0.000671460448023  -0.019436751906475  -0.980168296753719 0
force Cr   0.007258510510522   0.030846069632166  -0.540272458553028 0
force Cr   0.026362047482325  -0.028013926885660  -1.036619423343297 0
force Cr   0.042732113306462   0.030115596866735  -0.657541698798341 0
force O  -0.004463173633216  -0.003768379247009   0.000385413684452 1
force O  -0.002007144223042   0.005445387363488  -0.006761942006397 1
force O   0.003020214333812  -0.003875512034768  -0.019110423223525 1
force O   0.006746178967278   0.004776596312023  -0.019611388113751 1
force O   0.001297152249521  -0.002211697953778  -0.001324615488692 1
force O   0.001088275015576   0.000852736848396  -0.006966082693163 1
force O  -0.001303474204103   0.000751756208267  -0.009783103082446 1
force O   0.000504006690079  -0.000245275354619  -0.012646719137591 1
force O  -0.238418729482924  -0.087278754181644   0.478509535228242 0
force O  -0.241659566489574   0.072969070503480   0.080697721741978 0
force O   0.206757049190822  -0.045811932072039   0.611781337175414 0
force O   0.195373693873165   0.043478131024678   0.173396351719755 0
force O   0.016995921177124  -0.090964979705946  -0.648671426125896 0
force O  -0.001607968180844  -0.082308968983445   0.400831572115049 0
force O   0.032476695686730   0.081856529857733   0.447836203032924 0
force O   0.026480936730882   0.084321053168947   0.367753071917809 0
force O  -0.007653419272135  -0.003135589921324  -0.038106311083244 1
force H   0.007223453512312  -0.002195637624830   0.028591378720956 1

# Energy components:
   Eewald =     4475.9842985577424770
       EH =     5914.8934645781901054
     Eloc =   -12132.0061225569879753
      Enl =     -394.0155028292712132
   Epulay =       -0.0003758999111746
      Exc =     -215.2700391899597321
       KE =      737.1241277381438977
        U =        0.9598705428405651
-------------------------------------
     Etot =    -1612.3302790592119891
       TS =        0.0016461467389138
-------------------------------------
        F =    -1612.3319252059509381

IonicMinimize: Iter:  32  F: -1612.331925205950938  |grad|_K:  3.424e-04  alpha:  1.000e+00  linmin: -1.991e-02  t[s]: 130393.31
IonicMinimize: Converged (|Delta F|<1.000000e-04 for 3 iters).

#--- Lowdin population analysis ---
# oxidation-state Cr +3.003 +3.027 +3.028 +2.909 +2.871 +2.865 +2.868 +2.870 +2.889 +2.889 +2.937 +2.888 +2.960 +2.969 +2.943 +2.974
# magnetic-moments Cr +3.826 -2.017 +2.043 -3.965 +3.917 +3.930 -3.911 -3.933 -3.895 +3.773 -3.600 +3.780 -4.010 -2.081 +4.051 +2.081
# oxidation-state O -0.870 -0.867 -0.853 -0.858 -0.872 -0.853 -0.825 -0.844 -0.899 -0.879 -0.889 -0.872 -0.898 -0.864 -0.865 -0.871 -0.841
# magnetic-moments O -0.026 -0.024 +0.065 +0.060 -0.153 +0.035 +0.157 -0.184 -0.004 +0.073 +0.103 +0.031 -0.036 -0.040 +0.032 -0.031 -0.068
# oxidation-state H +0.380
# magnetic-moments H +0.006


Dumping 'OH.ionpos' ... done
Dumping 'OH.lattice' ... done
Dumping 'OH.Ecomponents' ... done
End date and time: Tue May 20 11:41:44 2025  (Duration: 1-12:13:16.80)
Done!
