
*************** JDFTx 1.7.0  ***************

Start date and time: Sun May 18 01:37:59 2025
Executable /data2/jt577/jdftx_eat_withLibXC/build/jdftx with command-line: -i /data2/jt577/May_2025/Relax_Mag_litU/rel5+1_6/O/runs/calc_/run.in
Running on hosts (process indices):  node3215 (0-8)
Divided in process groups (process indices):  0 (0)  1 (1)  2 (2)  3 (3)  4 (4)  5 (5)  6 (6)  7 (7)  8 (8)
Resource initialization completed at t[s]:      0.00
Run totals: 9 processes, 36 threads, 0 GPUs


Input parsed successfully to the following command list (including defaults):

add-mix 
add-U 	Ni d 0.235196 \
	V d 0.113923 \
	Cr d 0.128623 \
	Co d 0.121273
basis kpoint-dependent
coords-type Lattice
core-overlap-check vector
coulomb-interaction Periodic
davidson-band-ratio 1.1
dump End IonicPositions Lattice Ecomponents
dump-name run.$VAR
elec-cutoff 30
elec-eigen-algo Davidson
elec-ex-corr gga-x-rpbe gga-c-pbe
elec-smearing Fermi 0.001
electronic-minimize  \
	dirUpdateScheme      FletcherReeves \
	linminMethod         DirUpdateRecommended \
	nIterations          1000 \
	history              15 \
	knormThreshold       0 \
	energyDiffThreshold  1e-06 \
	nEnergyDiff          5 \
	alphaTstart          1 \
	alphaTmin            1e-10 \
	updateTestStepSize   yes \
	alphaTreduceFactor   0.1 \
	alphaTincreaseFactor 3 \
	nAlphaAdjustMax      3 \
	wolfeEnergy          0.0001 \
	wolfeGradient        0.9 \
	fdTest               no
exchange-regularization WignerSeitzTruncated
fluid None
fluid-ex-corr (null) lda-PZ
fluid-gummel-loop 10 1.000000e-05
fluid-minimize  \
	dirUpdateScheme      PolakRibiere \
	linminMethod         DirUpdateRecommended \
	nIterations          100 \
	history              15 \
	knormThreshold       0 \
	energyDiffThreshold  0 \
	nEnergyDiff          2 \
	alphaTstart          1 \
	alphaTmin            1e-10 \
	updateTestStepSize   yes \
	alphaTreduceFactor   0.1 \
	alphaTincreaseFactor 3 \
	nAlphaAdjustMax      3 \
	wolfeEnergy          0.0001 \
	wolfeGradient        0.9 \
	fdTest               no
fluid-solvent H2O 55.338 ScalarEOS \
	epsBulk 78.4 \
	pMol 0.92466 \
	epsInf 1.77 \
	Pvap 1.06736e-10 \
	sigmaBulk 4.62e-05 \
	Rvdw 2.61727 \
	Res 1.42 \
	tauNuc 343133 \
	poleEl 15 7 1
forces-output-coords Positions
initial-magnetic-moments  \
	Ni 1 -1 -1 1 1 1 \
	V 1 1 -1 -1 -1 \
	Cr -1 1 -1 \
	Co -1 1
initial-state run.$VAR
ion Ni  0.000000000000000   0.000000000000000   0.150000000000000 1
ion Ni  0.500000000000000   0.000000000000000   0.150000000000000 1
ion Ni  0.500000000000000   0.500000000000000   0.150000000000000 1
ion Ni  0.250000000000000   0.250000000000000   0.050000000000000 1
ion Ni  0.500000000000000   0.000000000000000  -0.050000000000000 0
ion Ni -0.250000000000000   0.750000000000000  -0.150000000000000 0
ion V  0.000000000000000   0.500000000000000   0.150000000000000 1
ion V  0.250000000000000   0.750000000000000   0.050000000000000 1
ion V -0.250000000000000   0.250000000000000   0.050000000000000 1
ion V -0.250000000000000   0.750000000000000   0.050000000000000 1
ion V  0.000000000000000   0.000000000000000  -0.050000000000000 0
ion Cr  0.000000000000000   0.500000000000000  -0.050000000000000 0
ion Cr  0.500000000000000   0.500000000000000  -0.050000000000000 0
ion Cr  0.250000000000000   0.250000000000000  -0.150000000000000 0
ion Co  0.250000000000000   0.750000000000000  -0.150000000000000 0
ion Co -0.250000000000000   0.250000000000000  -0.150000000000000 0
ion O  0.250000000000000   0.250000000000000   0.150000000000000 1
ion O  0.250000000000000   0.750000000000000   0.150000000000000 1
ion O -0.250000000000000   0.250000000000000   0.150000000000000 1
ion O -0.250000000000000   0.750000000000000   0.150000000000000 1
ion O  0.000000000000000   0.000000000000000   0.050000000000000 1
ion O  0.500000000000000   0.000000000000000   0.050000000000000 1
ion O  0.000000000000000   0.500000000000000   0.050000000000000 1
ion O  0.500000000000000   0.500000000000000   0.050000000000000 1
ion O  0.250000000000000   0.250000000000000  -0.050000000000000 0
ion O  0.250000000000000   0.750000000000000  -0.050000000000000 0
ion O -0.250000000000000   0.250000000000000  -0.050000000000000 0
ion O -0.250000000000000   0.750000000000000  -0.050000000000000 0
ion O  0.000000000000000   0.000000000000000  -0.150000000000000 0
ion O  0.500000000000000   0.000000000000000  -0.150000000000000 0
ion O  0.000000000000000   0.500000000000000  -0.150000000000000 0
ion O  0.500000000000000   0.500000000000000  -0.150000000000000 0
ion O -0.000095572322686   0.000198307128402   0.224876729873325 1
ion-species SG15/$ID_ONCV_PBE.upf
ion-width 0
ionic-minimize  \
	dirUpdateScheme      L-BFGS \
	linminMethod         DirUpdateRecommended \
	nIterations          1000 \
	history              15 \
	knormThreshold       0.0001 \
	energyDiffThreshold  0.0001 \
	nEnergyDiff          3 \
	alphaTstart          1 \
	alphaTmin            1e-10 \
	updateTestStepSize   yes \
	alphaTreduceFactor   0.1 \
	alphaTincreaseFactor 3 \
	nAlphaAdjustMax      3 \
	wolfeEnergy          0.0001 \
	wolfeGradient        0.9 \
	fdTest               no
kpoint   0.500000000000   0.500000000000   0.500000000000  1.00000000000000
kpoint-folding 3 3 1 
latt-move-scale 1 1 1
latt-scale 1 1 1 
lattice  \
	   8.140000000000001    8.140000000000001    0.000000000000000  \
	   8.140000000000001   -8.140000000000001    0.000000000000000  \
	   0.000000000000000    0.000000000000000   40.700000000000003 
lattice-minimize  \
	dirUpdateScheme      L-BFGS \
	linminMethod         DirUpdateRecommended \
	nIterations          0 \
	history              15 \
	knormThreshold       0 \
	energyDiffThreshold  1e-06 \
	nEnergyDiff          2 \
	alphaTstart          1 \
	alphaTmin            1e-10 \
	updateTestStepSize   yes \
	alphaTreduceFactor   0.1 \
	alphaTincreaseFactor 3 \
	nAlphaAdjustMax      3 \
	wolfeEnergy          0.0001 \
	wolfeGradient        0.9 \
	fdTest               no
lcao-params -1 1e-06 0.001
pcm-variant GLSSA13
spintype z-spin
subspace-rotation-factor 1 yes
symmetries none
symmetry-threshold 0.0001


Applied RMS atom displacement 0 bohrs to make symmetries exact.

---------- Initializing the Grid ----------
R = 
[         8.14         8.14            0  ]
[         8.14        -8.14            0  ]
[            0            0         40.7  ]
unit cell volume = 5393.53
G =
[   0.385945   0.385945         -0  ]
[   0.385945  -0.385945         -0  ]
[         -0         -0   0.154378  ]
Minimum fftbox size, Smin = [  60  60  204  ]
Chosen fftbox size, S = [  60  60  210  ]

---------- Exchange Correlation functional ----------
Initialized LibXC exchange functional 'Hammer, Hansen, and Norskov'
Initialized LibXC correlation functional 'Perdew, Burke & Ernzerhof'

---------- Setting up pseudopotentials ----------
Width of ionic core gaussian charges (only for fluid interactions / plotting) set to 0

Reading pseudopotential file '/data2/jt577/jdftx_eat_withLibXC/build/pseudopotentials/SG15/Ni_ONCV_PBE.upf':
  'Ni' pseudopotential, 'PBE' functional
  Generated using ONCVPSP code by D. R. Hamann
  Author: Martin Schlipf and Francois Gygi  Date: 150915.
  18 valence electrons, 4 orbitals, 6 projectors, 1292 radial grid points, with lMax = 2
  Transforming local potential to a uniform radial grid of dG=0.02 with 1419 points.
  Transforming nonlocal projectors to a uniform radial grid of dG=0.02 with 528 points.
    3S    l: 0   occupation:  2.0   eigenvalue: -4.081355
    3P    l: 1   occupation:  6.0   eigenvalue: -2.623460
    4S    l: 0   occupation:  2.0   eigenvalue: -0.207378
    3D    l: 2   occupation:  8.0   eigenvalue: -0.326118
  Transforming atomic orbitals to a uniform radial grid of dG=0.02 with 528 points.
  WARNING: large normalization error in atomic orbital 1s (integral: 0.000006).
  Core radius for overlap checks: 1.99 bohrs.
  Reading pulay file /data2/jt577/jdftx_eat_withLibXC/build/pseudopotentials/SG15/Ni_ONCV_PBE.pulay ... using dE_dnG = -7.250568e-04 computed for Ecut = 30.

Reading pseudopotential file '/data2/jt577/jdftx_eat_withLibXC/build/pseudopotentials/SG15/V_ONCV_PBE.upf':
  'V' pseudopotential, 'PBE' functional
  Generated using ONCVPSP code by D. R. Hamann
  Author: Martin Schlipf and Francois Gygi  Date: 150915.
  13 valence electrons, 4 orbitals, 6 projectors, 1536 radial grid points, with lMax = 2
  Transforming local potential to a uniform radial grid of dG=0.02 with 1419 points.
  Transforming nonlocal projectors to a uniform radial grid of dG=0.02 with 528 points.
    3S    l: 0   occupation:  2.0   eigenvalue: -2.581105
    3P    l: 1   occupation:  6.0   eigenvalue: -1.618486
    4S    l: 0   occupation:  2.0   eigenvalue: -0.172804
    3D    l: 2   occupation:  3.0   eigenvalue: -0.189795
  Transforming atomic orbitals to a uniform radial grid of dG=0.02 with 528 points.
  Core radius for overlap checks: 1.80 bohrs.
  Reading pulay file /data2/jt577/jdftx_eat_withLibXC/build/pseudopotentials/SG15/V_ONCV_PBE.pulay ... using dE_dnG = -1.698632e-04 computed for Ecut = 30.

Reading pseudopotential file '/data2/jt577/jdftx_eat_withLibXC/build/pseudopotentials/SG15/Cr_ONCV_PBE.upf':
  'Cr' pseudopotential, 'PBE' functional
  Generated using ONCVPSP code by D. R. Hamann
  Author: Martin Schlipf and Francois Gygi  Date: 150915.
  14 valence electrons, 4 orbitals, 6 projectors, 1160 radial grid points, with lMax = 2
  Transforming local potential to a uniform radial grid of dG=0.02 with 1419 points.
  Transforming nonlocal projectors to a uniform radial grid of dG=0.02 with 528 points.
    3S    l: 0   occupation:  2.0   eigenvalue: -2.865131
    3P    l: 1   occupation:  6.0   eigenvalue: -1.810600
    4S    l: 0   occupation:  2.0   eigenvalue: -0.180525
    3D    l: 2   occupation:  4.0   eigenvalue: -0.220312
  Transforming atomic orbitals to a uniform radial grid of dG=0.02 with 528 points.
  WARNING: large normalization error in atomic orbital 1s (integral: 0.000001).
  Core radius for overlap checks: 2.10 bohrs.
  Reading pulay file /data2/jt577/jdftx_eat_withLibXC/build/pseudopotentials/SG15/Cr_ONCV_PBE.pulay ... using dE_dnG = -9.817895e-06 computed for Ecut = 30.

Reading pseudopotential file '/data2/jt577/jdftx_eat_withLibXC/build/pseudopotentials/SG15/Co_ONCV_PBE.upf':
  'Co' pseudopotential, 'PBE' functional
  Generated using ONCVPSP code by D. R. Hamann
  Author: Martin Schlipf and Francois Gygi  Date: 150915.
  17 valence electrons, 4 orbitals, 6 projectors, 1388 radial grid points, with lMax = 2
  Transforming local potential to a uniform radial grid of dG=0.02 with 1419 points.
  Transforming nonlocal projectors to a uniform radial grid of dG=0.02 with 528 points.
    3S    l: 0   occupation:  2.0   eigenvalue: -3.763303
    3P    l: 1   occupation:  6.0   eigenvalue: -2.412101
    4S    l: 0   occupation:  2.0   eigenvalue: -0.201022
    3D    l: 2   occupation:  7.0   eigenvalue: -0.301498
  Transforming atomic orbitals to a uniform radial grid of dG=0.02 with 528 points.
  Core radius for overlap checks: 1.94 bohrs.
  Reading pulay file /data2/jt577/jdftx_eat_withLibXC/build/pseudopotentials/SG15/Co_ONCV_PBE.pulay ... using dE_dnG = -9.787391e-05 computed for Ecut = 30.

Reading pseudopotential file '/data2/jt577/jdftx_eat_withLibXC/build/pseudopotentials/SG15/O_ONCV_PBE.upf':
  'O' pseudopotential, 'PBE' functional
  Generated using ONCVPSP code by D. R. Hamann
  Author: Martin Schlipf and Francois Gygi  Date: 150915.
  6 valence electrons, 2 orbitals, 4 projectors, 936 radial grid points, with lMax = 1
  Transforming local potential to a uniform radial grid of dG=0.02 with 1419 points.
  Transforming nonlocal projectors to a uniform radial grid of dG=0.02 with 528 points.
    2S    l: 0   occupation:  2.0   eigenvalue: -0.880572
    2P    l: 1   occupation:  4.0   eigenvalue: -0.331869
  Transforming atomic orbitals to a uniform radial grid of dG=0.02 with 528 points.
  Core radius for overlap checks: 1.29 bohrs.
  Reading pulay file /data2/jt577/jdftx_eat_withLibXC/build/pseudopotentials/SG15/O_ONCV_PBE.pulay ... using dE_dnG = -8.209514e-03 computed for Ecut = 30.

Initialized 5 species with 33 total atoms.

Folded 1 k-points by 3x3x1 to 9 k-points.

---------- Setting up k-points, bands, fillings ----------
No reducable k-points. 
Computing the number of bands and number of electrons
Calculating initial fillings.
nElectrons: 351.000000   nBands: 228   nStates: 18

----- Setting up reduced wavefunction bases (one per k-point) -----
average nbasis = 42312.000 , ideal nbasis = 42330.081

---------- Setting up ewald sum ----------
Optimum gaussian width for ewald sums = 3.906449 bohr.
Real space sum over 605 unit cells with max indices [  5  5  2  ]
Reciprocal space sum over 5915 terms with max indices [  6  6  17  ]

---------- Allocating electronic variables ----------
Initializing wave functions:  linear combination of atomic orbitals
Ni (M=1) pseudo-atom majority spin occupations:   s ( 1 0.5 )  p ( 3 )  d ( 5 )
Ni (M=1) pseudo-atom minority spin occupations:   s ( 1 0 )  p ( 3 )  d ( 4.5 )
V (M=1) pseudo-atom majority spin occupations:   s ( 1 0 )  p ( 3 )  d ( 3 )
V (M=1) pseudo-atom minority spin occupations:   s ( 1 0 )  p ( 3 )  d ( 2 )
Cr (M=1) pseudo-atom majority spin occupations:   s ( 1 0 )  p ( 3 )  d ( 3.5 )
Cr (M=1) pseudo-atom minority spin occupations:   s ( 1 0 )  p ( 3 )  d ( 2.5 )
Co (M=1) pseudo-atom majority spin occupations:   s ( 1 0 )  p ( 3 )  d ( 5 )
Co (M=1) pseudo-atom minority spin occupations:   s ( 1 0 )  p ( 3 )  d ( 4 )
O pseudo-atom occupations:   s ( 2 )  p ( 4 )
	FillingsUpdate:  mu: +0.486656548  nElectrons: 351.000000  magneticMoment: [ Abs: 0.21861  Tot: -0.00000 ]
LCAOMinimize: Iter:   0  F: -1918.1754474913777813  |grad|_K:  7.326e-03  alpha:  1.000e+00
	FillingsUpdate:  mu: +0.534200769  nElectrons: 351.000000  magneticMoment: [ Abs: 0.31280  Tot: -0.00000 ]
LCAOMinimize: Iter:   1  F: -1925.0448825902876706  |grad|_K:  1.009e-02  alpha:  1.023e-01  linmin: -7.777e-02  cgtest:  5.571e-01  t[s]:     91.47
	FillingsUpdate:  mu: +0.506091210  nElectrons: 351.000000  magneticMoment: [ Abs: 0.40930  Tot: +0.00000 ]
LCAOMinimize: Iter:   2  F: -1927.6387464481099414  |grad|_K:  1.146e-02  alpha:  9.344e-03  linmin: -1.419e-01  cgtest:  6.969e-01  t[s]:    125.14
LCAOMinimize: 	Wrong curvature in test step, increasing alphaT to 2.803322e-02.
	FillingsUpdate:  mu: +0.975472609  nElectrons: 351.000000  magneticMoment: [ Abs: 5.56501  Tot: -0.00000 ]
LCAOMinimize: Iter:   3  F: -1939.9197512066100444  |grad|_K:  2.298e-02  alpha: -1.254e-03  linmin: -7.180e-02  cgtest:  2.787e-01  t[s]:    154.26
LCAOMinimize: 	Step increased F by 2.977494e+02, reducing alpha to 4.637834e-02.
LCAOMinimize: 	Step increased F by 8.390111e+01, reducing alpha to 4.637834e-03.
LCAOMinimize: 	Step increased F by 5.718707e+01, reducing alpha to 4.637834e-04.
LCAOMinimize: 	Step failed to reduce F after 3 attempts. Quitting step.
LCAOMinimize: 	Undoing step.
LCAOMinimize: 	Step failed: resetting search direction.
	FillingsUpdate:  mu: +3.415712485  nElectrons: 351.000000  magneticMoment: [ Abs: 0.70440  Tot: -0.00000 ]
LCAOMinimize: Iter:   4  F: -1882.6032932001483005  |grad|_K:  7.605e-02  alpha:  4.638e-04
LCAOMinimize: 	Step increased F by 6.320605e+02, reducing alpha to 4.230432e-02.
	FillingsUpdate:  mu: +0.506275022  nElectrons: 351.000000  magneticMoment: [ Abs: 2.12997  Tot: +0.00000 ]
LCAOMinimize: Iter:   5  F: -1935.3070802492170515  |grad|_K:  2.808e-02  alpha:  4.230e-02  linmin:  3.925e-02  cgtest: -7.900e-01  t[s]:    311.55
	FillingsUpdate:  mu: +0.252720679  nElectrons: 351.000000  magneticMoment: [ Abs: 5.80612  Tot: -0.00000 ]
LCAOMinimize: Iter:   6  F: -1949.2901097709557234  |grad|_K:  3.488e-02  alpha:  2.589e-02  linmin:  1.377e-03  cgtest:  4.105e-01  t[s]:    343.56
	FillingsUpdate:  mu: -0.310766920  nElectrons: 351.000000  magneticMoment: [ Abs: 3.37660  Tot: +0.00000 ]
LCAOMinimize: Iter:   7  F: -1957.3830367229829790  |grad|_K:  1.207e-02  alpha:  1.656e-02  linmin:  1.765e-03  cgtest:  3.999e-01  t[s]:    376.16
LCAOMinimize: Encountered beta<0, resetting CG.
	FillingsUpdate:  mu: -0.344488378  nElectrons: 351.000000  magneticMoment: [ Abs: 4.78778  Tot: -0.00000 ]
LCAOMinimize: Iter:   8  F: -1961.6534428777631547  |grad|_K:  8.550e-03  alpha:  4.373e-02  linmin: -1.051e-01  cgtest:  8.046e-01  t[s]:    408.75
LCAOMinimize: Encountered beta<0, resetting CG.
LCAOMinimize: 	Predicted alpha/alphaT>3.000000, increasing alphaT to 1.311820e-01.
	FillingsUpdate:  mu: -0.371884085  nElectrons: 351.000000  magneticMoment: [ Abs: 4.83196  Tot: +0.00000 ]
LCAOMinimize: Iter:   9  F: -1962.4104316666050636  |grad|_K:  8.800e-03  alpha:  1.043e-02  linmin: -1.021e-01  cgtest:  8.928e-01  t[s]:    450.40
LCAOMinimize: 	Wrong curvature in test step, increasing alphaT to 3.128161e-02.
	FillingsUpdate:  mu: -0.368854250  nElectrons: 351.000000  magneticMoment: [ Abs: 4.92756  Tot: +0.00000 ]
LCAOMinimize: Iter:  10  F: -1963.7162051448833608  |grad|_K:  1.618e-02  alpha: -1.065e-02  linmin: -1.122e-01  cgtest:  4.842e-01  t[s]:    480.12
LCAOMinimize: 	Step increased F by 5.880415e+02, reducing alpha to 2.598840e-02.
LCAOMinimize: 	Step increased F by 2.703289e+01, reducing alpha to 2.598840e-03.
	FillingsUpdate:  mu: +0.155207040  nElectrons: 351.000000  magneticMoment: [ Abs: 4.28659  Tot: -0.00000 ]
LCAOMinimize: Iter:  11  F: -1965.4090237289303786  |grad|_K:  1.552e-02  alpha:  2.599e-03  linmin:  7.527e-02  cgtest: -2.758e-01  t[s]:    559.45
LCAOMinimize: 	Bad step direction: g.d > 0.
LCAOMinimize: 	Undoing step.
LCAOMinimize: 	Step failed: resetting search direction.
	FillingsUpdate:  mu: +0.155207040  nElectrons: 351.000000  magneticMoment: [ Abs: 4.28659  Tot: -0.00000 ]
LCAOMinimize: Iter:  12  F: -1965.4090237289303786  |grad|_K:  1.552e-02  alpha:  0.000e+00
LCAOMinimize: 	Predicted alpha/alphaT>3.000000, increasing alphaT to 7.796519e-03.
	FillingsUpdate:  mu: -0.221487379  nElectrons: 351.000000  magneticMoment: [ Abs: 5.93488  Tot: -0.00000 ]
LCAOMinimize: Iter:  13  F: -1966.0790692142556964  |grad|_K:  1.905e-02  alpha:  1.226e-02  linmin:  1.129e-01  cgtest: -4.539e-01  t[s]:    626.09
LCAOMinimize: 	Bad step direction: g.d > 0.
LCAOMinimize: 	Undoing step.
LCAOMinimize: 	Step failed: resetting search direction.
	FillingsUpdate:  mu: -0.221487379  nElectrons: 351.000000  magneticMoment: [ Abs: 5.93488  Tot: -0.00000 ]
LCAOMinimize: Iter:  14  F: -1966.0790692142556964  |grad|_K:  1.905e-02  alpha:  0.000e+00
	FillingsUpdate:  mu: +0.050087591  nElectrons: 351.000000  magneticMoment: [ Abs: 5.30843  Tot: -0.00000 ]
LCAOMinimize: Iter:  15  F: -1967.0813163043790155  |grad|_K:  7.597e-03  alpha:  7.114e-03  linmin:  4.373e-02  cgtest: -3.283e-01  t[s]:    684.23
LCAOMinimize: 	Wrong curvature in test step, increasing alphaT to 2.134087e-02.
	FillingsUpdate:  mu: +0.052628422  nElectrons: 351.000000  magneticMoment: [ Abs: 5.47382  Tot: -0.00000 ]
LCAOMinimize: Iter:  16  F: -1967.4095106576314720  |grad|_K:  7.572e-03  alpha: -3.694e-01  linmin: -6.870e-02  cgtest:  9.648e-01  t[s]:    715.48
LCAOMinimize: 	Step increased F by 3.457090e+01, reducing alpha to 1.654361e-02.
	FillingsUpdate:  mu: -0.092277855  nElectrons: 351.000000  magneticMoment: [ Abs: 6.38240  Tot: -0.00000 ]
LCAOMinimize: Iter:  17  F: -1967.8188832741636816  |grad|_K:  1.070e-02  alpha:  1.654e-02  linmin:  1.059e-02  cgtest: -1.464e-01  t[s]:    773.65
	FillingsUpdate:  mu: +0.346105633  nElectrons: 351.000000  magneticMoment: [ Abs: 9.11365  Tot: +0.00000 ]
LCAOMinimize: Iter:  18  F: -1968.4728748321442708  |grad|_K:  1.820e-02  alpha:  1.976e-02  linmin:  1.554e-02  cgtest:  7.236e-01  t[s]:    806.67
	FillingsUpdate:  mu: +0.299908105  nElectrons: 351.000000  magneticMoment: [ Abs: 9.29889  Tot: +0.00000 ]
LCAOMinimize: Iter:  19  F: -1968.7418450148529701  |grad|_K:  1.560e-02  alpha:  2.244e-03  linmin: -6.843e-03  cgtest:  9.787e-01  t[s]:    839.08
LCAOMinimize: Encountered beta<0, resetting CG.
LCAOMinimize: 	Predicted alpha/alphaT>3.000000, increasing alphaT to 6.732280e-03.
	FillingsUpdate:  mu: +0.063167910  nElectrons: 351.000000  magneticMoment: [ Abs: 7.87692  Tot: -0.00000 ]
LCAOMinimize: Iter:  20  F: -1969.7281686317544427  |grad|_K:  4.803e-03  alpha:  8.527e-03  linmin: -1.173e-02  cgtest:  6.514e-02  t[s]:    880.21
	FillingsUpdate:  mu: -0.019383985  nElectrons: 351.000000  magneticMoment: [ Abs: 7.66695  Tot: -0.00000 ]
LCAOMinimize: Iter:  21  F: -1969.8966975981388714  |grad|_K:  2.195e-03  alpha:  1.544e-02  linmin:  8.627e-03  cgtest: -1.184e-01  t[s]:    912.61
	FillingsUpdate:  mu: -0.015214298  nElectrons: 351.000000  magneticMoment: [ Abs: 7.63584  Tot: -0.00000 ]
LCAOMinimize: Iter:  22  F: -1969.9876265694163067  |grad|_K:  2.825e-03  alpha:  3.995e-02  linmin: -2.112e-03  cgtest: -1.312e-02  t[s]:    944.67
	FillingsUpdate:  mu: -0.017892513  nElectrons: 351.000000  magneticMoment: [ Abs: 8.26810  Tot: -0.00000 ]
LCAOMinimize: Iter:  23  F: -1970.0830258127768957  |grad|_K:  2.019e-03  alpha:  2.346e-02  linmin: -2.259e-05  cgtest: -2.310e-01  t[s]:    977.55
	FillingsUpdate:  mu: +0.019005888  nElectrons: 351.000000  magneticMoment: [ Abs: 8.66643  Tot: -0.00000 ]
LCAOMinimize: Iter:  24  F: -1970.1211702118314406  |grad|_K:  1.521e-03  alpha:  1.987e-02  linmin: -1.398e-04  cgtest:  1.444e-01  t[s]:   1010.03
	FillingsUpdate:  mu: +0.008323049  nElectrons: 351.000000  magneticMoment: [ Abs: 9.30435  Tot: +0.00000 ]
LCAOMinimize: Iter:  25  F: -1970.1732021943189466  |grad|_K:  1.028e-03  alpha:  4.613e-02  linmin: -1.658e-03  cgtest:  2.934e-01  t[s]:   1043.08
	FillingsUpdate:  mu: +0.013388051  nElectrons: 351.000000  magneticMoment: [ Abs: 9.64590  Tot: +0.00000 ]
LCAOMinimize: Iter:  26  F: -1970.1938419726920984  |grad|_K:  1.359e-03  alpha:  4.108e-02  linmin: -1.075e-03  cgtest: -1.280e-03  t[s]:   1076.09
	FillingsUpdate:  mu: +0.004664906  nElectrons: 351.000000  magneticMoment: [ Abs: 10.38181  Tot: -0.00000 ]
LCAOMinimize: Iter:  27  F: -1970.2223617389784067  |grad|_K:  9.779e-04  alpha:  3.206e-02  linmin: -9.775e-04  cgtest:  9.101e-02  t[s]:   1109.46
	FillingsUpdate:  mu: +0.012876080  nElectrons: 351.000000  magneticMoment: [ Abs: 11.05159  Tot: -0.00000 ]
LCAOMinimize: Iter:  28  F: -1970.2657333296638171  |grad|_K:  7.144e-04  alpha:  8.243e-02  linmin: -6.859e-03  cgtest:  3.035e-01  t[s]:   1143.28
	FillingsUpdate:  mu: +0.023766075  nElectrons: 351.000000  magneticMoment: [ Abs: 11.83593  Tot: -0.00000 ]
LCAOMinimize: Iter:  29  F: -1970.2995628606463470  |grad|_K:  8.406e-04  alpha:  1.208e-01  linmin: -1.390e-03  cgtest:  4.431e-02  t[s]:   1176.73
	FillingsUpdate:  mu: +0.024628724  nElectrons: 351.000000  magneticMoment: [ Abs: 11.99649  Tot: -0.00000 ]
LCAOMinimize: Iter:  30  F: -1970.3097032744451553  |grad|_K:  7.895e-04  alpha:  3.841e-02  linmin:  2.973e-03  cgtest: -3.566e-01  t[s]:   1209.51
LCAOMinimize: None of the convergence criteria satisfied after 30 iterations.


---- Citations for features of the code used in this run ----

   Software package:
      R. Sundararaman, K. Letchworth-Weaver, K.A. Schwarz, D. Gunceler, Y. Ozhabes and T.A. Arias, 'JDFTx: software for joint density-functional theory', SoftwareX 6, 278 (2017)

   Simplified rotationally-invariant DFT+U:
      S. L. Dudarev et al., Phys. Rev. B 57, 1505 (1998)

   LibXC library of exchange-correlation functions:
      M. A. L. Marques, M. J. T. Oliveira and T. Burnus, Comput. Phys. Commun. 183, 2272 (2012)

   Hammer, Hansen, and Norskov exchange functional:
      B. Hammer, L. B. Hansen, and J. K. Nørskov, Phys. Rev. B 59, 7413 (1999)

   Perdew, Burke & Ernzerhof correlation functional:
      J. P. Perdew, K. Burke, and M. Ernzerhof, Phys. Rev. Lett. 77, 3865 (1996)

   Pseudopotentials:
      M Schlipf and F Gygi, Comput. Phys. Commun. 196, 36 (2015)

   Total energy minimization with Auxiliary Hamiltonian:
      C. Freysoldt, S. Boeck, and J. Neugebauer, Phys. Rev. B 79, 241103(R) (2009)

This list may not be complete. Please suggest additional citations or
report any other bugs at https://github.com/shankar1729/jdftx/issues

Initialization completed successfully at t[s]:   1221.18


-------- Electronic minimization -----------
	FillingsUpdate:  mu: +0.024628730  nElectrons: 351.000000  magneticMoment: [ Abs: 11.99649  Tot: -0.00000 ]
ElecMinimize: Iter:   0  F: -1970.309703274441745  |grad|_K:  1.058e-03  alpha:  1.000e+00
	FillingsUpdate:  mu: +0.950492449  nElectrons: 351.000000  magneticMoment: [ Abs: 14.84402  Tot: +0.00000 ]
	SubspaceRotationAdjust: set factor to 0.839
ElecMinimize: Iter:   1  F: -2022.717697306613445  |grad|_K:  1.826e-03  alpha:  4.610e-01  linmin:  1.369e-02  t[s]:   1328.35
ElecMinimize: 	Step increased F by 5.333992e+01, reducing alpha to 8.385338e-03.
	FillingsUpdate:  mu: +0.351150595  nElectrons: 351.000000  magneticMoment: [ Abs: 13.83244  Tot: +0.00000 ]
	SubspaceRotationAdjust: set factor to 1.21
ElecMinimize: Iter:   2  F: -2028.259498522375679  |grad|_K:  8.669e-04  alpha:  8.385e-03  linmin: -1.115e-03  t[s]:   1446.19
	FillingsUpdate:  mu: +0.334949691  nElectrons: 351.000000  magneticMoment: [ Abs: 13.31981  Tot: -0.00000 ]
	SubspaceRotationAdjust: set factor to 1.27
ElecMinimize: Iter:   3  F: -2032.382416058560921  |grad|_K:  8.457e-04  alpha:  2.078e-02  linmin: -3.512e-03  t[s]:   1518.61
ElecMinimize: 	Predicted alpha/alphaT>3.000000, increasing alphaT to 6.232655e-02.
	FillingsUpdate:  mu: +0.593000010  nElectrons: 351.000000  magneticMoment: [ Abs: 14.92898  Tot: -0.00000 ]
	SubspaceRotationAdjust: set factor to 0.707
ElecMinimize: Iter:   4  F: -2050.291429157040966  |grad|_K:  1.628e-03  alpha:  1.136e-01  linmin:  1.120e-03  t[s]:   1610.73
	FillingsUpdate:  mu: +0.414213996  nElectrons: 351.000000  magneticMoment: [ Abs: 14.51564  Tot: -0.00000 ]
	SubspaceRotationAdjust: set factor to 0.483
ElecMinimize: Iter:   5  F: -2051.728412781134011  |grad|_K:  1.010e-03  alpha:  5.089e-03  linmin: -1.147e-04  t[s]:   1682.58
ElecMinimize: 	Predicted alpha/alphaT>3.000000, increasing alphaT to 1.526838e-02.
	FillingsUpdate:  mu: +0.299288072  nElectrons: 351.000000  magneticMoment: [ Abs: 15.33824  Tot: +0.00000 ]
	SubspaceRotationAdjust: set factor to 0.39
ElecMinimize: Iter:   6  F: -2054.362456811530592  |grad|_K:  8.550e-04  alpha:  1.316e-02  linmin:  4.333e-04  t[s]:   1773.71
	FillingsUpdate:  mu: +0.525100663  nElectrons: 351.000000  magneticMoment: [ Abs: 16.12480  Tot: -0.00000 ]
	SubspaceRotationAdjust: set factor to 0.29
ElecMinimize: Iter:   7  F: -2055.204987827924469  |grad|_K:  9.067e-04  alpha:  7.894e-03  linmin:  3.779e-05  t[s]:   1846.63
	FillingsUpdate:  mu: +0.811700050  nElectrons: 351.000000  magneticMoment: [ Abs: 17.41368  Tot: +0.00000 ]
	SubspaceRotationAdjust: set factor to 0.211
ElecMinimize: Iter:   8  F: -2056.544628717128944  |grad|_K:  8.899e-04  alpha:  1.087e-02  linmin:  6.680e-04  t[s]:   1918.74
	FillingsUpdate:  mu: +0.916118039  nElectrons: 351.000000  magneticMoment: [ Abs: 17.96100  Tot: -0.00000 ]
	SubspaceRotationAdjust: set factor to 0.163
ElecMinimize: Iter:   9  F: -2057.038187915302842  |grad|_K:  8.101e-04  alpha:  5.104e-03  linmin: -3.717e-05  t[s]:   1990.85
	FillingsUpdate:  mu: +0.957179015  nElectrons: 351.000000  magneticMoment: [ Abs: 18.47519  Tot: -0.00000 ]
	SubspaceRotationAdjust: set factor to 0.139
ElecMinimize: Iter:  10  F: -2057.894867207200605  |grad|_K:  7.080e-04  alpha:  7.086e-03  linmin: -2.225e-04  t[s]:   2063.00
	FillingsUpdate:  mu: +0.749007944  nElectrons: 351.000000  magneticMoment: [ Abs: 18.71514  Tot: -0.00000 ]
	SubspaceRotationAdjust: set factor to 0.117
	SubspaceRotationAdjust: resetting CG because factor has changed by 0.116823
ElecMinimize: 	State modified externally: resetting search direction.
ElecMinimize: Iter:  11  F: -2059.130001940934562  |grad|_K:  6.128e-04  alpha:  1.271e-02
ElecMinimize: 	Predicted alpha/alphaT>3.000000, increasing alphaT to 3.814479e-02.
ElecMinimize: 	Predicted alpha/alphaT>3.000000, increasing alphaT to 1.144344e-01.
	FillingsUpdate:  mu: +0.364874280  nElectrons: 351.000000  magneticMoment: [ Abs: 18.75244  Tot: -0.00000 ]
	SubspaceRotationAdjust: set factor to 0.0513
ElecMinimize: Iter:  12  F: -2066.779951682246519  |grad|_K:  3.712e-04  alpha:  1.186e-01  linmin:  2.073e-02  t[s]:   2280.72
	FillingsUpdate:  mu: +0.098252539  nElectrons: 351.000000  magneticMoment: [ Abs: 18.56162  Tot: +0.00000 ]
	SubspaceRotationAdjust: set factor to 0.109
ElecMinimize: Iter:  13  F: -2069.127533869529998  |grad|_K:  1.252e-04  alpha:  1.216e-01  linmin: -4.558e-03  t[s]:   2352.10
	FillingsUpdate:  mu: +0.142456060  nElectrons: 351.000000  magneticMoment: [ Abs: 18.67215  Tot: +0.00000 ]
	SubspaceRotationAdjust: set factor to 0.0829
ElecMinimize: Iter:  14  F: -2069.820902934939568  |grad|_K:  1.019e-04  alpha:  2.339e-01  linmin: -2.011e-03  t[s]:   2423.45
	FillingsUpdate:  mu: +0.145042383  nElectrons: 351.000000  magneticMoment: [ Abs: 19.29397  Tot: +0.00000 ]
	SubspaceRotationAdjust: set factor to 0.0589
ElecMinimize: Iter:  15  F: -2070.209177256589101  |grad|_K:  7.890e-05  alpha:  1.966e-01  linmin: -4.907e-05  t[s]:   2495.45
	FillingsUpdate:  mu: +0.111823660  nElectrons: 351.000000  magneticMoment: [ Abs: 19.83091  Tot: -0.00000 ]
	SubspaceRotationAdjust: set factor to 0.0898
ElecMinimize: Iter:  16  F: -2070.586909130609911  |grad|_K:  5.889e-05  alpha:  3.429e-01  linmin: -7.720e-04  t[s]:   2566.68
	FillingsUpdate:  mu: +0.101115496  nElectrons: 351.000000  magneticMoment: [ Abs: 20.22482  Tot: +0.00000 ]
	SubspaceRotationAdjust: set factor to 0.0833
ElecMinimize: Iter:  17  F: -2070.834477537964176  |grad|_K:  6.303e-05  alpha:  3.593e-01  linmin: -4.081e-04  t[s]:   2638.35
	FillingsUpdate:  mu: +0.107785180  nElectrons: 351.000000  magneticMoment: [ Abs: 21.11036  Tot: -0.00000 ]
	SubspaceRotationAdjust: set factor to 0.0885
ElecMinimize: Iter:  18  F: -2071.064490127562749  |grad|_K:  5.603e-05  alpha:  3.090e-01  linmin: -3.328e-04  t[s]:   2710.67
	FillingsUpdate:  mu: +0.117266713  nElectrons: 351.000000  magneticMoment: [ Abs: 22.24431  Tot: -0.00000 ]
	SubspaceRotationAdjust: set factor to 0.102
ElecMinimize: Iter:  19  F: -2071.309382104134329  |grad|_K:  5.553e-05  alpha:  3.960e-01  linmin: -2.195e-04  t[s]:   2782.58
	FillingsUpdate:  mu: +0.116245899  nElectrons: 351.000000  magneticMoment: [ Abs: 23.84044  Tot: -0.00000 ]
	SubspaceRotationAdjust: set factor to 0.117
ElecMinimize: Iter:  20  F: -2071.637307713556311  |grad|_K:  6.533e-05  alpha:  5.385e-01  linmin: -2.114e-04  t[s]:   2855.32
	FillingsUpdate:  mu: +0.093435731  nElectrons: 351.000000  magneticMoment: [ Abs: 25.59627  Tot: -0.00000 ]
	SubspaceRotationAdjust: set factor to 0.111
ElecMinimize: Iter:  21  F: -2072.053050382404763  |grad|_K:  8.264e-05  alpha:  4.771e-01  linmin: -7.142e-05  t[s]:   2927.97
ElecMinimize: 	Step increased F by 1.022177e-01, reducing alpha to 2.076960e-03.
ElecMinimize: 	Step increased F by 1.519971e-01, reducing alpha to 2.076960e-04.
ElecMinimize: 	Step increased F by 1.571494e-01, reducing alpha to 2.076960e-05.
ElecMinimize: 	Step failed to reduce F after 3 attempts. Quitting step.
ElecMinimize: 	Undoing step.
ElecMinimize: 	Step failed: resetting search direction.
	FillingsUpdate:  mu: +0.082557770  nElectrons: 351.000000  magneticMoment: [ Abs: 25.58966  Tot: -0.00000 ]
	SubspaceRotationAdjust: set factor to 0.152
ElecMinimize: Iter:  22  F: -2071.895843526579938  |grad|_K:  8.318e-05  alpha:  2.077e-05
	FillingsUpdate:  mu: +0.151399767  nElectrons: 351.000000  magneticMoment: [ Abs: 25.85488  Tot: +0.00000 ]
	SubspaceRotationAdjust: set factor to 0.108
ElecMinimize: Iter:  23  F: -2072.133059079286795  |grad|_K:  7.873e-05  alpha:  2.254e-01  linmin:  2.513e-03  t[s]:   3210.22
	FillingsUpdate:  mu: +0.117927866  nElectrons: 351.000000  magneticMoment: [ Abs: 25.92769  Tot: -0.00000 ]
	SubspaceRotationAdjust: set factor to 0.0903
ElecMinimize: Iter:  24  F: -2072.297985106733904  |grad|_K:  5.285e-05  alpha:  1.703e-01  linmin: -5.984e-04  t[s]:   3282.16
	FillingsUpdate:  mu: +0.102890425  nElectrons: 351.000000  magneticMoment: [ Abs: 26.14663  Tot: -0.00000 ]
	SubspaceRotationAdjust: set factor to 0.121
ElecMinimize: Iter:  25  F: -2072.475024567623677  |grad|_K:  4.545e-05  alpha:  3.507e-01  linmin: -2.882e-04  t[s]:   3353.81
	FillingsUpdate:  mu: +0.123453698  nElectrons: 351.000000  magneticMoment: [ Abs: 26.61184  Tot: -0.00000 ]
	SubspaceRotationAdjust: set factor to 0.0939
ElecMinimize: Iter:  26  F: -2072.591235514882555  |grad|_K:  5.187e-05  alpha:  3.105e-01  linmin:  3.751e-05  t[s]:   3426.21
	FillingsUpdate:  mu: +0.098165123  nElectrons: 351.000000  magneticMoment: [ Abs: 27.13966  Tot: +0.00000 ]
	SubspaceRotationAdjust: set factor to 0.0831
ElecMinimize: Iter:  27  F: -2072.708361436209543  |grad|_K:  4.338e-05  alpha:  2.521e-01  linmin: -7.869e-05  t[s]:   3498.75
	FillingsUpdate:  mu: +0.103870081  nElectrons: 351.000000  magneticMoment: [ Abs: 27.86920  Tot: -0.00000 ]
	SubspaceRotationAdjust: set factor to 0.103
ElecMinimize: Iter:  28  F: -2072.821880085185512  |grad|_K:  4.006e-05  alpha:  3.403e-01  linmin: -7.488e-05  t[s]:   3570.60
	FillingsUpdate:  mu: +0.112783274  nElectrons: 351.000000  magneticMoment: [ Abs: 28.65340  Tot: +0.00000 ]
	SubspaceRotationAdjust: set factor to 0.0967
ElecMinimize: Iter:  29  F: -2072.913298792726437  |grad|_K:  4.065e-05  alpha:  3.208e-01  linmin: -5.441e-05  t[s]:   3643.17
	FillingsUpdate:  mu: +0.099486544  nElectrons: 351.000000  magneticMoment: [ Abs: 29.39312  Tot: -0.00000 ]
	SubspaceRotationAdjust: set factor to 0.084
ElecMinimize: Iter:  30  F: -2073.001167701974282  |grad|_K:  3.929e-05  alpha:  3.012e-01  linmin: -5.144e-05  t[s]:   3715.66
	FillingsUpdate:  mu: +0.097730296  nElectrons: 351.000000  magneticMoment: [ Abs: 30.49580  Tot: +0.00000 ]
	SubspaceRotationAdjust: set factor to 0.0955
ElecMinimize: Iter:  31  F: -2073.103983257258733  |grad|_K:  4.310e-05  alpha:  3.752e-01  linmin: -4.443e-05  t[s]:   3788.20
	FillingsUpdate:  mu: +0.126646750  nElectrons: 351.000000  magneticMoment: [ Abs: 31.50347  Tot: -0.00000 ]
	SubspaceRotationAdjust: set factor to 0.0809
ElecMinimize: Iter:  32  F: -2073.207429397607484  |grad|_K:  4.610e-05  alpha:  2.764e-01  linmin:  8.550e-05  t[s]:   3860.16
	FillingsUpdate:  mu: +0.118082054  nElectrons: 351.000000  magneticMoment: [ Abs: 31.76758  Tot: +0.00000 ]
	SubspaceRotationAdjust: set factor to 0.0822
ElecMinimize: Iter:  33  F: -2073.245152696723380  |grad|_K:  3.597e-05  alpha:  6.920e-02  linmin: -1.684e-03  t[s]:   3931.95
	FillingsUpdate:  mu: +0.110126361  nElectrons: 351.000000  magneticMoment: [ Abs: 32.01359  Tot: -0.00000 ]
	SubspaceRotationAdjust: set factor to 0.0823
ElecMinimize: Iter:  34  F: -2073.279635003087151  |grad|_K:  2.578e-05  alpha:  1.049e-01  linmin:  4.488e-04  t[s]:   4005.16
	FillingsUpdate:  mu: +0.101347615  nElectrons: 351.000000  magneticMoment: [ Abs: 32.13787  Tot: -0.00000 ]
	SubspaceRotationAdjust: set factor to 0.0805
ElecMinimize: Iter:  35  F: -2073.289765079404788  |grad|_K:  2.374e-05  alpha:  9.660e-02  linmin:  1.276e-04  t[s]:   4076.77
	FillingsUpdate:  mu: +0.089469667  nElectrons: 351.000000  magneticMoment: [ Abs: 32.23902  Tot: -0.00000 ]
	SubspaceRotationAdjust: set factor to 0.0933
ElecMinimize: Iter:  36  F: -2073.296914959717469  |grad|_K:  1.859e-05  alpha:  7.419e-02  linmin:  2.152e-05  t[s]:   4149.24
	FillingsUpdate:  mu: +0.087113426  nElectrons: 351.000000  magneticMoment: [ Abs: 32.33053  Tot: +0.00000 ]
	SubspaceRotationAdjust: set factor to 0.107
ElecMinimize: Iter:  37  F: -2073.301413105737993  |grad|_K:  1.633e-05  alpha:  7.496e-02  linmin: -1.699e-05  t[s]:   4222.02
	FillingsUpdate:  mu: +0.088012290  nElectrons: 351.000000  magneticMoment: [ Abs: 32.44602  Tot: -0.00000 ]
	SubspaceRotationAdjust: set factor to 0.0864
ElecMinimize: Iter:  38  F: -2073.305470087473168  |grad|_K:  1.720e-05  alpha:  8.702e-02  linmin: -6.909e-05  t[s]:   4294.22
	FillingsUpdate:  mu: +0.090412441  nElectrons: 351.000000  magneticMoment: [ Abs: 32.58483  Tot: +0.00000 ]
	SubspaceRotationAdjust: set factor to 0.0782
ElecMinimize: Iter:  39  F: -2073.309780798715110  |grad|_K:  1.533e-05  alpha:  8.313e-02  linmin: -1.160e-04  t[s]:   4366.20
	FillingsUpdate:  mu: +0.091606431  nElectrons: 351.000000  magneticMoment: [ Abs: 32.71461  Tot: -0.00000 ]
	SubspaceRotationAdjust: set factor to 0.0886
ElecMinimize: Iter:  40  F: -2073.313668190955923  |grad|_K:  1.370e-05  alpha:  9.388e-02  linmin: -3.852e-05  t[s]:   4438.14
	FillingsUpdate:  mu: +0.088100377  nElectrons: 351.000000  magneticMoment: [ Abs: 32.85350  Tot: +0.00000 ]
	SubspaceRotationAdjust: set factor to 0.0739
ElecMinimize: Iter:  41  F: -2073.316960486293738  |grad|_K:  1.474e-05  alpha:  1.010e-01  linmin:  5.530e-04  t[s]:   4510.44
	FillingsUpdate:  mu: +0.085212252  nElectrons: 351.000000  magneticMoment: [ Abs: 33.01724  Tot: -0.00000 ]
	SubspaceRotationAdjust: set factor to 0.0604
ElecMinimize: Iter:  42  F: -2073.319907722881908  |grad|_K:  1.484e-05  alpha:  8.223e-02  linmin: -4.629e-05  t[s]:   4582.34
	FillingsUpdate:  mu: +0.081800229  nElectrons: 351.000000  magneticMoment: [ Abs: 33.20254  Tot: +0.00000 ]
	SubspaceRotationAdjust: set factor to 0.0659
ElecMinimize: Iter:  43  F: -2073.323243122869371  |grad|_K:  1.337e-05  alpha:  8.674e-02  linmin:  5.940e-05  t[s]:   4654.75
	FillingsUpdate:  mu: +0.083301613  nElectrons: 351.000000  magneticMoment: [ Abs: 33.35772  Tot: -0.00000 ]
	SubspaceRotationAdjust: set factor to 0.0755
ElecMinimize: Iter:  44  F: -2073.325896516529156  |grad|_K:  1.266e-05  alpha:  8.564e-02  linmin:  1.905e-05  t[s]:   4726.99
	FillingsUpdate:  mu: +0.084843928  nElectrons: 351.000000  magneticMoment: [ Abs: 33.50305  Tot: +0.00000 ]
	SubspaceRotationAdjust: set factor to 0.0696
ElecMinimize: Iter:  45  F: -2073.328247652873870  |grad|_K:  1.313e-05  alpha:  8.435e-02  linmin: -8.457e-05  t[s]:   4798.63
	FillingsUpdate:  mu: +0.086984858  nElectrons: 351.000000  magneticMoment: [ Abs: 33.66037  Tot: +0.00000 ]
	SubspaceRotationAdjust: set factor to 0.0678
ElecMinimize: Iter:  46  F: -2073.330850786753217  |grad|_K:  1.388e-05  alpha:  8.613e-02  linmin: -1.697e-04  t[s]:   4870.52
	FillingsUpdate:  mu: +0.087323342  nElectrons: 351.000000  magneticMoment: [ Abs: 33.83101  Tot: -0.00000 ]
	SubspaceRotationAdjust: set factor to 0.0876
ElecMinimize: Iter:  47  F: -2073.333944583342145  |grad|_K:  1.458e-05  alpha:  9.078e-02  linmin: -2.239e-04  t[s]:   4942.02
	FillingsUpdate:  mu: +0.086813398  nElectrons: 351.000000  magneticMoment: [ Abs: 34.00163  Tot: -0.00000 ]
	SubspaceRotationAdjust: set factor to 0.115
ElecMinimize: Iter:  48  F: -2073.337271935829449  |grad|_K:  1.512e-05  alpha:  8.790e-02  linmin: -2.151e-04  t[s]:   5014.49
	FillingsUpdate:  mu: +0.089505478  nElectrons: 351.000000  magneticMoment: [ Abs: 34.18586  Tot: +0.00000 ]
	SubspaceRotationAdjust: set factor to 0.129
ElecMinimize: Iter:  49  F: -2073.340608550708112  |grad|_K:  1.678e-05  alpha:  8.170e-02  linmin: -1.058e-04  t[s]:   5086.88
	FillingsUpdate:  mu: +0.096339978  nElectrons: 351.000000  magneticMoment: [ Abs: 34.42037  Tot: +0.00000 ]
	SubspaceRotationAdjust: set factor to 0.13
ElecMinimize: Iter:  50  F: -2073.343958634563478  |grad|_K:  1.972e-05  alpha:  6.618e-02  linmin:  5.048e-05  t[s]:   5158.66
	FillingsUpdate:  mu: +0.100066404  nElectrons: 351.000000  magneticMoment: [ Abs: 34.73819  Tot: -0.00000 ]
	SubspaceRotationAdjust: set factor to 0.158
ElecMinimize: Iter:  51  F: -2073.347844301976693  |grad|_K:  2.135e-05  alpha:  5.851e-02  linmin: -4.231e-04  t[s]:   5231.32
	FillingsUpdate:  mu: +0.103511456  nElectrons: 351.000000  magneticMoment: [ Abs: 35.07591  Tot: -0.00000 ]
	SubspaceRotationAdjust: set factor to 0.201
ElecMinimize: Iter:  52  F: -2073.352516724965426  |grad|_K:  2.156e-05  alpha:  5.507e-02  linmin:  4.289e-06  t[s]:   5302.70
	FillingsUpdate:  mu: +0.102015026  nElectrons: 351.000000  magneticMoment: [ Abs: 35.35278  Tot: -0.00000 ]
	SubspaceRotationAdjust: set factor to 0.249
ElecMinimize: Iter:  53  F: -2073.356327529073496  |grad|_K:  2.390e-05  alpha:  4.720e-02  linmin: -1.264e-04  t[s]:   5374.37
	FillingsUpdate:  mu: +0.096586927  nElectrons: 351.000000  magneticMoment: [ Abs: 35.62516  Tot: +0.00000 ]
	SubspaceRotationAdjust: set factor to 0.252
ElecMinimize: Iter:  54  F: -2073.361024132528655  |grad|_K:  2.627e-05  alpha:  4.612e-02  linmin: -6.952e-05  t[s]:   5446.21
	FillingsUpdate:  mu: +0.094080298  nElectrons: 351.000000  magneticMoment: [ Abs: 35.78452  Tot: +0.00000 ]
	SubspaceRotationAdjust: set factor to 0.281
ElecMinimize: Iter:  55  F: -2073.364915662484691  |grad|_K:  2.580e-05  alpha:  3.076e-02  linmin: -9.141e-05  t[s]:   5518.59
	FillingsUpdate:  mu: +0.095976777  nElectrons: 351.000000  magneticMoment: [ Abs: 35.90990  Tot: +0.00000 ]
	SubspaceRotationAdjust: set factor to 0.252
ElecMinimize: Iter:  56  F: -2073.368394177862683  |grad|_K:  2.947e-05  alpha:  2.942e-02  linmin:  4.379e-05  t[s]:   5590.51
	FillingsUpdate:  mu: +0.092113095  nElectrons: 351.000000  magneticMoment: [ Abs: 36.08329  Tot: -0.00000 ]
	SubspaceRotationAdjust: set factor to 0.204
ElecMinimize: Iter:  57  F: -2073.372483564297909  |grad|_K:  3.249e-05  alpha:  2.726e-02  linmin: -1.183e-05  t[s]:   5662.75
	FillingsUpdate:  mu: +0.091088788  nElectrons: 351.000000  magneticMoment: [ Abs: 36.31297  Tot: -0.00000 ]
	SubspaceRotationAdjust: set factor to 0.188
ElecMinimize: Iter:  58  F: -2073.377058145962565  |grad|_K:  3.038e-05  alpha:  2.474e-02  linmin:  2.971e-05  t[s]:   5734.82
	FillingsUpdate:  mu: +0.095645041  nElectrons: 351.000000  magneticMoment: [ Abs: 36.52478  Tot: -0.00000 ]
	SubspaceRotationAdjust: set factor to 0.218
ElecMinimize: Iter:  59  F: -2073.380649381443618  |grad|_K:  2.746e-05  alpha:  2.239e-02  linmin:  6.608e-05  t[s]:   5807.95
	FillingsUpdate:  mu: +0.096252350  nElectrons: 351.000000  magneticMoment: [ Abs: 36.71152  Tot: +0.00000 ]
	SubspaceRotationAdjust: set factor to 0.246
ElecMinimize: Iter:  60  F: -2073.383484596313338  |grad|_K:  2.727e-05  alpha:  2.195e-02  linmin:  1.996e-05  t[s]:   5880.95
	FillingsUpdate:  mu: +0.101116397  nElectrons: 351.000000  magneticMoment: [ Abs: 36.91294  Tot: +0.00000 ]
	SubspaceRotationAdjust: set factor to 0.224
ElecMinimize: Iter:  61  F: -2073.386614105214903  |grad|_K:  2.949e-05  alpha:  2.422e-02  linmin: -7.556e-05  t[s]:   5953.10
	FillingsUpdate:  mu: +0.109648942  nElectrons: 351.000000  magneticMoment: [ Abs: 37.14055  Tot: -0.00000 ]
	SubspaceRotationAdjust: set factor to 0.203
ElecMinimize: Iter:  62  F: -2073.390917084635475  |grad|_K:  2.944e-05  alpha:  2.780e-02  linmin: -5.386e-05  t[s]:   6024.74
	FillingsUpdate:  mu: +0.112187358  nElectrons: 351.000000  magneticMoment: [ Abs: 37.29856  Tot: -0.00000 ]
	SubspaceRotationAdjust: set factor to 0.232
ElecMinimize: Iter:  63  F: -2073.394944023593780  |grad|_K:  2.701e-05  alpha:  2.626e-02  linmin:  6.882e-05  t[s]:   6096.32
	FillingsUpdate:  mu: +0.113967175  nElectrons: 351.000000  magneticMoment: [ Abs: 37.39772  Tot: +0.00000 ]
	SubspaceRotationAdjust: set factor to 0.257
ElecMinimize: Iter:  64  F: -2073.398142419204305  |grad|_K:  2.779e-05  alpha:  2.563e-02  linmin:  4.199e-05  t[s]:   6168.12
	FillingsUpdate:  mu: +0.112439390  nElectrons: 351.000000  magneticMoment: [ Abs: 37.49984  Tot: -0.00000 ]
	SubspaceRotationAdjust: set factor to 0.247
ElecMinimize: Iter:  65  F: -2073.401545492562491  |grad|_K:  2.954e-05  alpha:  2.560e-02  linmin:  1.855e-06  t[s]:   6239.83
	FillingsUpdate:  mu: +0.102420600  nElectrons: 351.000000  magneticMoment: [ Abs: 37.62993  Tot: -0.00000 ]
	SubspaceRotationAdjust: set factor to 0.268
ElecMinimize: Iter:  66  F: -2073.405154011124978  |grad|_K:  2.745e-05  alpha:  2.379e-02  linmin: -1.744e-05  t[s]:   6312.25
	FillingsUpdate:  mu: +0.096985263  nElectrons: 351.000000  magneticMoment: [ Abs: 37.77192  Tot: -0.00000 ]
	SubspaceRotationAdjust: set factor to 0.379
ElecMinimize: Iter:  67  F: -2073.408224949315809  |grad|_K:  2.388e-05  alpha:  2.332e-02  linmin: -5.536e-05  t[s]:   6384.37
	FillingsUpdate:  mu: +0.093737135  nElectrons: 351.000000  magneticMoment: [ Abs: 37.92318  Tot: -0.00000 ]
	SubspaceRotationAdjust: set factor to 0.444
ElecMinimize: Iter:  68  F: -2073.410808615180031  |grad|_K:  2.304e-05  alpha:  2.558e-02  linmin: -7.948e-05  t[s]:   6457.20
	FillingsUpdate:  mu: +0.094957413  nElectrons: 351.000000  magneticMoment: [ Abs: 38.11982  Tot: +0.00000 ]
	SubspaceRotationAdjust: set factor to 0.417
ElecMinimize: Iter:  69  F: -2073.413792730526438  |grad|_K:  2.690e-05  alpha:  3.152e-02  linmin: -6.409e-05  t[s]:   6529.21
	FillingsUpdate:  mu: +0.094388789  nElectrons: 351.000000  magneticMoment: [ Abs: 38.34596  Tot: -0.00000 ]
	SubspaceRotationAdjust: set factor to 0.432
ElecMinimize: Iter:  70  F: -2073.417619042092156  |grad|_K:  2.569e-05  alpha:  2.990e-02  linmin:  1.435e-05  t[s]:   6601.31
	FillingsUpdate:  mu: +0.091320328  nElectrons: 351.000000  magneticMoment: [ Abs: 38.47884  Tot: +0.00000 ]
	SubspaceRotationAdjust: set factor to 0.568
ElecMinimize: Iter:  71  F: -2073.420248251701196  |grad|_K:  2.222e-05  alpha:  2.276e-02  linmin:  2.250e-05  t[s]:   6673.88
	FillingsUpdate:  mu: +0.088414451  nElectrons: 351.000000  magneticMoment: [ Abs: 38.59318  Tot: +0.00000 ]
	SubspaceRotationAdjust: set factor to 0.563
ElecMinimize: Iter:  72  F: -2073.422500560810477  |grad|_K:  2.621e-05  alpha:  2.641e-02  linmin:  4.482e-05  t[s]:   6746.83
	FillingsUpdate:  mu: +0.093485342  nElectrons: 351.000000  magneticMoment: [ Abs: 38.77533  Tot: +0.00000 ]
	SubspaceRotationAdjust: set factor to 0.461
ElecMinimize: Iter:  73  F: -2073.425608049257789  |grad|_K:  2.834e-05  alpha:  2.627e-02  linmin: -8.180e-06  t[s]:   6819.14
	FillingsUpdate:  mu: +0.097367067  nElectrons: 351.000000  magneticMoment: [ Abs: 38.93783  Tot: -0.00000 ]
	SubspaceRotationAdjust: set factor to 0.58
ElecMinimize: Iter:  74  F: -2073.428271459546522  |grad|_K:  2.246e-05  alpha:  1.896e-02  linmin: -1.518e-07  t[s]:   6891.21
	FillingsUpdate:  mu: +0.098056105  nElectrons: 351.000000  magneticMoment: [ Abs: 39.03942  Tot: +0.00000 ]
	SubspaceRotationAdjust: set factor to 0.566
ElecMinimize: Iter:  75  F: -2073.430395090807451  |grad|_K:  2.456e-05  alpha:  2.414e-02  linmin: -3.451e-05  t[s]:   6963.03
	FillingsUpdate:  mu: +0.097193097  nElectrons: 351.000000  magneticMoment: [ Abs: 39.08696  Tot: -0.00000 ]
	SubspaceRotationAdjust: set factor to 0.555
ElecMinimize: Iter:  76  F: -2073.433126928181991  |grad|_K:  2.415e-05  alpha:  2.580e-02  linmin: -4.711e-05  t[s]:   7035.56
	FillingsUpdate:  mu: +0.096552064  nElectrons: 351.000000  magneticMoment: [ Abs: 39.07569  Tot: +0.00000 ]
	SubspaceRotationAdjust: set factor to 0.714
ElecMinimize: Iter:  77  F: -2073.435190781867732  |grad|_K:  2.139e-05  alpha:  2.007e-02  linmin:  2.445e-06  t[s]:   7108.74
	FillingsUpdate:  mu: +0.097612548  nElectrons: 351.000000  magneticMoment: [ Abs: 39.07669  Tot: +0.00000 ]
	SubspaceRotationAdjust: set factor to 0.552
ElecMinimize: Iter:  78  F: -2073.437386587139827  |grad|_K:  2.747e-05  alpha:  2.754e-02  linmin: -1.634e-05  t[s]:   7181.65
	FillingsUpdate:  mu: +0.094664263  nElectrons: 351.000000  magneticMoment: [ Abs: 39.15265  Tot: -0.00000 ]
	SubspaceRotationAdjust: set factor to 0.513
ElecMinimize: Iter:  79  F: -2073.440313274990331  |grad|_K:  2.419e-05  alpha:  2.223e-02  linmin: -1.844e-05  t[s]:   7254.23
	FillingsUpdate:  mu: +0.095862717  nElectrons: 351.000000  magneticMoment: [ Abs: 39.25064  Tot: +0.00000 ]
	SubspaceRotationAdjust: set factor to 0.715
ElecMinimize: Iter:  80  F: -2073.442457834422385  |grad|_K:  2.001e-05  alpha:  2.098e-02  linmin: -4.185e-05  t[s]:   7325.64
	FillingsUpdate:  mu: +0.098846840  nElectrons: 351.000000  magneticMoment: [ Abs: 39.34046  Tot: +0.00000 ]
	SubspaceRotationAdjust: set factor to 0.739
ElecMinimize: Iter:  81  F: -2073.444489777884883  |grad|_K:  2.269e-05  alpha:  2.872e-02  linmin: -5.613e-05  t[s]:   7398.32
	FillingsUpdate:  mu: +0.098483419  nElectrons: 351.000000  magneticMoment: [ Abs: 39.37196  Tot: -0.00000 ]
	SubspaceRotationAdjust: set factor to 0.873
	SubspaceRotationAdjust: resetting CG because factor has changed by 7.46989
ElecMinimize: 	State modified externally: resetting search direction.
ElecMinimize: Iter:  82  F: -2073.446715994130500  |grad|_K:  2.173e-05  alpha:  2.444e-02
ElecMinimize: 	Predicted alpha/alphaT>3.000000, increasing alphaT to 7.332093e-02.
	FillingsUpdate:  mu: +0.096863832  nElectrons: 351.000000  magneticMoment: [ Abs: 39.16047  Tot: +0.00000 ]
	SubspaceRotationAdjust: set factor to 0.519
ElecMinimize: Iter:  83  F: -2073.453267169781157  |grad|_K:  3.209e-05  alpha:  7.970e-02  linmin: -3.822e-05  t[s]:   7596.55
	FillingsUpdate:  mu: +0.100955850  nElectrons: 351.000000  magneticMoment: [ Abs: 39.24382  Tot: +0.00000 ]
	SubspaceRotationAdjust: set factor to 0.309
ElecMinimize: Iter:  84  F: -2073.461735056550879  |grad|_K:  2.350e-05  alpha:  5.142e-02  linmin:  6.300e-06  t[s]:   7668.45
	FillingsUpdate:  mu: +0.109637491  nElectrons: 351.000000  magneticMoment: [ Abs: 39.17909  Tot: -0.00000 ]
	SubspaceRotationAdjust: set factor to 0.188
ElecMinimize: Iter:  85  F: -2073.471752638152338  |grad|_K:  2.328e-05  alpha:  1.130e-01  linmin:  2.088e-03  t[s]:   7740.49
	FillingsUpdate:  mu: +0.106155678  nElectrons: 351.000000  magneticMoment: [ Abs: 39.25591  Tot: -0.00000 ]
	SubspaceRotationAdjust: set factor to 0.22
ElecMinimize: Iter:  86  F: -2073.480397523315332  |grad|_K:  1.564e-05  alpha:  1.086e-01  linmin: -1.796e-04  t[s]:   7812.23
	FillingsUpdate:  mu: +0.100917131  nElectrons: 351.000000  magneticMoment: [ Abs: 39.11346  Tot: +0.00000 ]
	SubspaceRotationAdjust: set factor to 0.18
ElecMinimize: Iter:  87  F: -2073.488421824100442  |grad|_K:  1.313e-05  alpha:  1.829e-01  linmin: -6.148e-04  t[s]:   7883.89
	FillingsUpdate:  mu: +0.094938363  nElectrons: 351.000000  magneticMoment: [ Abs: 38.93767  Tot: +0.00000 ]
	SubspaceRotationAdjust: set factor to 0.149
ElecMinimize: Iter:  88  F: -2073.491647942008967  |grad|_K:  9.528e-06  alpha:  1.020e-01  linmin: -1.099e-04  t[s]:   7956.15
	FillingsUpdate:  mu: +0.099815906  nElectrons: 351.000000  magneticMoment: [ Abs: 38.88740  Tot: +0.00000 ]
	SubspaceRotationAdjust: set factor to 0.188
ElecMinimize: Iter:  89  F: -2073.494236413604995  |grad|_K:  6.756e-06  alpha:  1.609e-01  linmin: -6.560e-04  t[s]:   8027.86
	FillingsUpdate:  mu: +0.100269063  nElectrons: 351.000000  magneticMoment: [ Abs: 38.92173  Tot: -0.00000 ]
	SubspaceRotationAdjust: set factor to 0.172
ElecMinimize: Iter:  90  F: -2073.495467642784206  |grad|_K:  6.160e-06  alpha:  1.509e-01  linmin: -1.367e-04  t[s]:   8100.30
	FillingsUpdate:  mu: +0.097541569  nElectrons: 351.000000  magneticMoment: [ Abs: 38.88450  Tot: +0.00000 ]
	SubspaceRotationAdjust: set factor to 0.196
ElecMinimize: Iter:  91  F: -2073.496491274432628  |grad|_K:  3.911e-06  alpha:  1.542e-01  linmin:  1.134e-04  t[s]:   8171.95
	FillingsUpdate:  mu: +0.096950069  nElectrons: 351.000000  magneticMoment: [ Abs: 38.84362  Tot: +0.00000 ]
	SubspaceRotationAdjust: set factor to 0.16
ElecMinimize: Iter:  92  F: -2073.497004995316729  |grad|_K:  3.877e-06  alpha:  1.938e-01  linmin:  1.335e-04  t[s]:   8244.44
	FillingsUpdate:  mu: +0.097385331  nElectrons: 351.000000  magneticMoment: [ Abs: 38.85100  Tot: -0.00000 ]
	SubspaceRotationAdjust: set factor to 0.151
ElecMinimize: Iter:  93  F: -2073.497322087467637  |grad|_K:  2.839e-06  alpha:  1.222e-01  linmin:  4.257e-05  t[s]:   8317.11
	FillingsUpdate:  mu: +0.098629063  nElectrons: 351.000000  magneticMoment: [ Abs: 38.83797  Tot: -0.00000 ]
	SubspaceRotationAdjust: set factor to 0.166
ElecMinimize: Iter:  94  F: -2073.497648112283059  |grad|_K:  2.585e-06  alpha:  2.323e-01  linmin: -5.792e-05  t[s]:   8390.18
	FillingsUpdate:  mu: +0.098920175  nElectrons: 351.000000  magneticMoment: [ Abs: 38.80416  Tot: +0.00000 ]
	SubspaceRotationAdjust: set factor to 0.158
ElecMinimize: Iter:  95  F: -2073.497846079420924  |grad|_K:  2.512e-06  alpha:  1.693e-01  linmin:  4.412e-05  t[s]:   8462.14
	FillingsUpdate:  mu: +0.097712832  nElectrons: 351.000000  magneticMoment: [ Abs: 38.78814  Tot: -0.00000 ]
	SubspaceRotationAdjust: set factor to 0.184
ElecMinimize: Iter:  96  F: -2073.498066235110400  |grad|_K:  2.117e-06  alpha:  2.006e-01  linmin: -4.174e-05  t[s]:   8533.69
	FillingsUpdate:  mu: +0.098268190  nElectrons: 351.000000  magneticMoment: [ Abs: 38.78649  Tot: +0.00000 ]
	SubspaceRotationAdjust: set factor to 0.166
ElecMinimize: Iter:  97  F: -2073.498238792310985  |grad|_K:  2.376e-06  alpha:  2.205e-01  linmin: -9.286e-05  t[s]:   8605.25
	FillingsUpdate:  mu: +0.098448879  nElectrons: 351.000000  magneticMoment: [ Abs: 38.76464  Tot: -0.00000 ]
	SubspaceRotationAdjust: set factor to 0.155
ElecMinimize: Iter:  98  F: -2073.498393768138158  |grad|_K:  2.131e-06  alpha:  1.551e-01  linmin:  3.021e-05  t[s]:   8677.18
	FillingsUpdate:  mu: +0.098968067  nElectrons: 351.000000  magneticMoment: [ Abs: 38.75769  Tot: -0.00000 ]
	SubspaceRotationAdjust: set factor to 0.175
ElecMinimize: Iter:  99  F: -2073.498605854671496  |grad|_K:  2.404e-06  alpha:  2.705e-01  linmin:  1.482e-04  t[s]:   8749.31
	FillingsUpdate:  mu: +0.097946483  nElectrons: 351.000000  magneticMoment: [ Abs: 38.77181  Tot: +0.00000 ]
	SubspaceRotationAdjust: set factor to 0.154
ElecMinimize: Iter: 100  F: -2073.498775015254978  |grad|_K:  2.370e-06  alpha:  1.759e-01  linmin:  1.101e-05  t[s]:   8821.51
	FillingsUpdate:  mu: +0.097453418  nElectrons: 351.000000  magneticMoment: [ Abs: 38.75661  Tot: +0.00000 ]
	SubspaceRotationAdjust: set factor to 0.166
ElecMinimize: Iter: 101  F: -2073.499025668625109  |grad|_K:  2.213e-06  alpha:  2.611e-01  linmin:  3.156e-04  t[s]:   8894.07
	FillingsUpdate:  mu: +0.098203606  nElectrons: 351.000000  magneticMoment: [ Abs: 38.74751  Tot: -0.00000 ]
	SubspaceRotationAdjust: set factor to 0.174
ElecMinimize: Iter: 102  F: -2073.499216079929738  |grad|_K:  2.339e-06  alpha:  2.316e-01  linmin:  1.575e-04  t[s]:   8965.98
	FillingsUpdate:  mu: +0.098615751  nElectrons: 351.000000  magneticMoment: [ Abs: 38.76453  Tot: +0.00000 ]
	SubspaceRotationAdjust: set factor to 0.178
ElecMinimize: Iter: 103  F: -2073.499377508795988  |grad|_K:  2.100e-06  alpha:  1.760e-01  linmin: -6.481e-05  t[s]:   9038.88
	FillingsUpdate:  mu: +0.098467245  nElectrons: 351.000000  magneticMoment: [ Abs: 38.77049  Tot: +0.00000 ]
	SubspaceRotationAdjust: set factor to 0.204
ElecMinimize: Iter: 104  F: -2073.499541304214745  |grad|_K:  1.736e-06  alpha:  2.113e-01  linmin: -3.374e-07  t[s]:   9110.94
	FillingsUpdate:  mu: +0.098346611  nElectrons: 351.000000  magneticMoment: [ Abs: 38.76763  Tot: -0.00000 ]
	SubspaceRotationAdjust: set factor to 0.202
ElecMinimize: Iter: 105  F: -2073.499656299896287  |grad|_K:  1.883e-06  alpha:  2.193e-01  linmin:  1.132e-04  t[s]:   9183.67
	FillingsUpdate:  mu: +0.098789419  nElectrons: 351.000000  magneticMoment: [ Abs: 38.78421  Tot: -0.00000 ]
	SubspaceRotationAdjust: set factor to 0.203
ElecMinimize: Iter: 106  F: -2073.499745422180240  |grad|_K:  1.567e-06  alpha:  1.490e-01  linmin: -2.517e-06  t[s]:   9255.79
	FillingsUpdate:  mu: +0.099478418  nElectrons: 351.000000  magneticMoment: [ Abs: 38.79628  Tot: -0.00000 ]
	SubspaceRotationAdjust: set factor to 0.235
ElecMinimize: Iter: 107  F: -2073.499850139311093  |grad|_K:  1.545e-06  alpha:  2.450e-01  linmin:  4.301e-05  t[s]:   9327.69
	FillingsUpdate:  mu: +0.099167966  nElectrons: 351.000000  magneticMoment: [ Abs: 38.80464  Tot: +0.00000 ]
	SubspaceRotationAdjust: set factor to 0.255
ElecMinimize: Iter: 108  F: -2073.499935313543119  |grad|_K:  1.504e-06  alpha:  2.059e-01  linmin:  2.849e-05  t[s]:   9399.93
	FillingsUpdate:  mu: +0.098859047  nElectrons: 351.000000  magneticMoment: [ Abs: 38.82284  Tot: +0.00000 ]
	SubspaceRotationAdjust: set factor to 0.234
ElecMinimize: Iter: 109  F: -2073.499997088478267  |grad|_K:  1.581e-06  alpha:  1.593e-01  linmin: -4.834e-05  t[s]:   9472.26
	FillingsUpdate:  mu: +0.098918677  nElectrons: 351.000000  magneticMoment: [ Abs: 38.82703  Tot: -0.00000 ]
	SubspaceRotationAdjust: set factor to 0.22
ElecMinimize: Iter: 110  F: -2073.500067737827521  |grad|_K:  1.314e-06  alpha:  1.613e-01  linmin:  1.025e-04  t[s]:   9544.35
	FillingsUpdate:  mu: +0.099150266  nElectrons: 351.000000  magneticMoment: [ Abs: 38.84905  Tot: +0.00000 ]
	SubspaceRotationAdjust: set factor to 0.253
ElecMinimize: Iter: 111  F: -2073.500143557409046  |grad|_K:  1.308e-06  alpha:  2.548e-01  linmin: -8.260e-05  t[s]:   9616.73
	FillingsUpdate:  mu: +0.098820328  nElectrons: 351.000000  magneticMoment: [ Abs: 38.86737  Tot: -0.00000 ]
	SubspaceRotationAdjust: set factor to 0.249
ElecMinimize: Iter: 112  F: -2073.500214674375457  |grad|_K:  1.254e-06  alpha:  2.357e-01  linmin:  7.695e-06  t[s]:   9688.19
	FillingsUpdate:  mu: +0.099032701  nElectrons: 351.000000  magneticMoment: [ Abs: 38.88255  Tot: +0.00000 ]
	SubspaceRotationAdjust: set factor to 0.285
ElecMinimize: Iter: 113  F: -2073.500287849602501  |grad|_K:  1.224e-06  alpha:  2.682e-01  linmin:  7.463e-05  t[s]:   9760.22
	FillingsUpdate:  mu: +0.099345230  nElectrons: 351.000000  magneticMoment: [ Abs: 38.90912  Tot: -0.00000 ]
	SubspaceRotationAdjust: set factor to 0.27
ElecMinimize: Iter: 114  F: -2073.500345533993368  |grad|_K:  1.397e-06  alpha:  2.257e-01  linmin: -8.766e-05  t[s]:   9832.61
	FillingsUpdate:  mu: +0.099549777  nElectrons: 351.000000  magneticMoment: [ Abs: 38.91902  Tot: +0.00000 ]
	SubspaceRotationAdjust: set factor to 0.223
ElecMinimize: Iter: 115  F: -2073.500389547988561  |grad|_K:  1.264e-06  alpha:  1.243e-01  linmin: -7.998e-05  t[s]:   9904.83
	FillingsUpdate:  mu: +0.099230552  nElectrons: 351.000000  magneticMoment: [ Abs: 38.94169  Tot: -0.00000 ]
	SubspaceRotationAdjust: set factor to 0.224
ElecMinimize: Iter: 116  F: -2073.500438643777215  |grad|_K:  1.112e-06  alpha:  1.729e-01  linmin: -1.853e-04  t[s]:   9977.94
	FillingsUpdate:  mu: +0.099352646  nElectrons: 351.000000  magneticMoment: [ Abs: 38.95786  Tot: -0.00000 ]
	SubspaceRotationAdjust: set factor to 0.241
ElecMinimize: Iter: 117  F: -2073.500493352223657  |grad|_K:  1.058e-06  alpha:  2.475e-01  linmin:  8.060e-06  t[s]:  10049.98
	FillingsUpdate:  mu: +0.099589311  nElectrons: 351.000000  magneticMoment: [ Abs: 38.96692  Tot: +0.00000 ]
	SubspaceRotationAdjust: set factor to 0.225
ElecMinimize: Iter: 118  F: -2073.500538168150342  |grad|_K:  1.290e-06  alpha:  2.294e-01  linmin:  9.741e-05  t[s]:  10122.74
	FillingsUpdate:  mu: +0.099289644  nElectrons: 351.000000  magneticMoment: [ Abs: 38.98555  Tot: -0.00000 ]
	SubspaceRotationAdjust: set factor to 0.205
ElecMinimize: Iter: 119  F: -2073.500578856563607  |grad|_K:  1.083e-06  alpha:  1.470e-01  linmin:  1.209e-05  t[s]:  10194.62
	FillingsUpdate:  mu: +0.099239060  nElectrons: 351.000000  magneticMoment: [ Abs: 38.99579  Tot: -0.00000 ]
	SubspaceRotationAdjust: set factor to 0.247
ElecMinimize: Iter: 120  F: -2073.500634006729797  |grad|_K:  1.007e-06  alpha:  2.719e-01  linmin:  6.185e-05  t[s]:  10266.40
	FillingsUpdate:  mu: +0.099580134  nElectrons: 351.000000  magneticMoment: [ Abs: 38.99715  Tot: -0.00000 ]
	SubspaceRotationAdjust: set factor to 0.248
ElecMinimize: Iter: 121  F: -2073.500673995139550  |grad|_K:  1.105e-06  alpha:  2.279e-01  linmin:  4.266e-05  t[s]:  10338.96
	FillingsUpdate:  mu: +0.099491433  nElectrons: 351.000000  magneticMoment: [ Abs: 39.00713  Tot: +0.00000 ]
	SubspaceRotationAdjust: set factor to 0.237
ElecMinimize: Iter: 122  F: -2073.500709483505489  |grad|_K:  1.087e-06  alpha:  1.706e-01  linmin: -4.235e-05  t[s]:  10411.66
	FillingsUpdate:  mu: +0.099496151  nElectrons: 351.000000  magneticMoment: [ Abs: 39.00752  Tot: -0.00000 ]
	SubspaceRotationAdjust: set factor to 0.217
ElecMinimize: Iter: 123  F: -2073.500749714968151  |grad|_K:  1.048e-06  alpha:  1.948e-01  linmin:  7.904e-05  t[s]:  10485.60
	FillingsUpdate:  mu: +0.099606994  nElectrons: 351.000000  magneticMoment: [ Abs: 39.00532  Tot: -0.00000 ]
	SubspaceRotationAdjust: set factor to 0.258
ElecMinimize: Iter: 124  F: -2073.500801100186891  |grad|_K:  1.039e-06  alpha:  2.725e-01  linmin: -2.151e-06  t[s]:  10558.01
	FillingsUpdate:  mu: +0.099649270  nElectrons: 351.000000  magneticMoment: [ Abs: 39.00111  Tot: +0.00000 ]
	SubspaceRotationAdjust: set factor to 0.276
ElecMinimize: Iter: 125  F: -2073.500854580972373  |grad|_K:  1.150e-06  alpha:  2.841e-01  linmin: -2.370e-05  t[s]:  10630.89
	FillingsUpdate:  mu: +0.099624500  nElectrons: 351.000000  magneticMoment: [ Abs: 38.99346  Tot: -0.00000 ]
	SubspaceRotationAdjust: set factor to 0.255
ElecMinimize: Iter: 126  F: -2073.500898523081105  |grad|_K:  1.209e-06  alpha:  1.883e-01  linmin:  4.882e-07  t[s]:  10703.31
	FillingsUpdate:  mu: +0.099472560  nElectrons: 351.000000  magneticMoment: [ Abs: 38.98946  Tot: +0.00000 ]
	SubspaceRotationAdjust: set factor to 0.246
ElecMinimize: Iter: 127  F: -2073.500945353638599  |grad|_K:  1.161e-06  alpha:  1.842e-01  linmin: -9.185e-05  t[s]:  10775.50
	FillingsUpdate:  mu: +0.099781726  nElectrons: 351.000000  magneticMoment: [ Abs: 38.96998  Tot: -0.00000 ]
	SubspaceRotationAdjust: set factor to 0.244
ElecMinimize: Iter: 128  F: -2073.500995960750515  |grad|_K:  1.069e-06  alpha:  2.122e-01  linmin:  4.685e-05  t[s]:  10847.18
	FillingsUpdate:  mu: +0.099772583  nElectrons: 351.000000  magneticMoment: [ Abs: 38.94890  Tot: +0.00000 ]
	SubspaceRotationAdjust: set factor to 0.292
ElecMinimize: Iter: 129  F: -2073.501050276699516  |grad|_K:  1.086e-06  alpha:  2.759e-01  linmin:  2.983e-05  t[s]:  10919.58
	FillingsUpdate:  mu: +0.099561050  nElectrons: 351.000000  magneticMoment: [ Abs: 38.93536  Tot: +0.00000 ]
	SubspaceRotationAdjust: set factor to 0.292
ElecMinimize: Iter: 130  F: -2073.501097764925362  |grad|_K:  1.187e-06  alpha:  2.337e-01  linmin: -4.519e-05  t[s]:  10991.84
	FillingsUpdate:  mu: +0.099740447  nElectrons: 351.000000  magneticMoment: [ Abs: 38.91196  Tot: +0.00000 ]
	SubspaceRotationAdjust: set factor to 0.277
ElecMinimize: Iter: 131  F: -2073.501141731555890  |grad|_K:  1.128e-06  alpha:  1.772e-01  linmin:  4.962e-06  t[s]:  11063.52
	FillingsUpdate:  mu: +0.099684078  nElectrons: 351.000000  magneticMoment: [ Abs: 38.89032  Tot: +0.00000 ]
	SubspaceRotationAdjust: set factor to 0.298
ElecMinimize: Iter: 132  F: -2073.501188904784158  |grad|_K:  1.123e-06  alpha:  2.131e-01  linmin: -4.525e-06  t[s]:  11135.34
	FillingsUpdate:  mu: +0.099588571  nElectrons: 351.000000  magneticMoment: [ Abs: 38.86508  Tot: +0.00000 ]
	SubspaceRotationAdjust: set factor to 0.325
ElecMinimize: Iter: 133  F: -2073.501236563295151  |grad|_K:  1.055e-06  alpha:  2.169e-01  linmin: -4.959e-05  t[s]:  11207.45
	FillingsUpdate:  mu: +0.099673421  nElectrons: 351.000000  magneticMoment: [ Abs: 38.83611  Tot: -0.00000 ]
	SubspaceRotationAdjust: set factor to 0.391
ElecMinimize: Iter: 134  F: -2073.501290678662826  |grad|_K:  1.086e-06  alpha:  2.778e-01  linmin:  6.229e-05  t[s]:  11279.73
	FillingsUpdate:  mu: +0.099595354  nElectrons: 351.000000  magneticMoment: [ Abs: 38.81615  Tot: +0.00000 ]
	SubspaceRotationAdjust: set factor to 0.389
ElecMinimize: Iter: 135  F: -2073.501339134357295  |grad|_K:  1.315e-06  alpha:  2.388e-01  linmin:  1.562e-05  t[s]:  11352.08
	FillingsUpdate:  mu: +0.099542058  nElectrons: 351.000000  magneticMoment: [ Abs: 38.79295  Tot: -0.00000 ]
	SubspaceRotationAdjust: set factor to 0.369
ElecMinimize: Iter: 136  F: -2073.501381027200296  |grad|_K:  1.280e-06  alpha:  1.416e-01  linmin:  7.701e-06  t[s]:  11424.44
	FillingsUpdate:  mu: +0.099325486  nElectrons: 351.000000  magneticMoment: [ Abs: 38.77413  Tot: -0.00000 ]
	SubspaceRotationAdjust: set factor to 0.38
ElecMinimize: Iter: 137  F: -2073.501433904736132  |grad|_K:  1.198e-06  alpha:  1.847e-01  linmin: -6.452e-05  t[s]:  11497.00
	FillingsUpdate:  mu: +0.099501450  nElectrons: 351.000000  magneticMoment: [ Abs: 38.74708  Tot: -0.00000 ]
	SubspaceRotationAdjust: set factor to 0.395
ElecMinimize: Iter: 138  F: -2073.501485909194798  |grad|_K:  1.317e-06  alpha:  2.067e-01  linmin:  2.350e-04  t[s]:  11569.27
	FillingsUpdate:  mu: +0.099499648  nElectrons: 351.000000  magneticMoment: [ Abs: 38.73043  Tot: -0.00000 ]
	SubspaceRotationAdjust: set factor to 0.526
ElecMinimize: Iter: 139  F: -2073.501537796096727  |grad|_K:  1.265e-06  alpha:  1.830e-01  linmin: -5.117e-05  t[s]:  11642.00
	FillingsUpdate:  mu: +0.099515237  nElectrons: 351.000000  magneticMoment: [ Abs: 38.71639  Tot: -0.00000 ]
	SubspaceRotationAdjust: set factor to 0.613
ElecMinimize: Iter: 140  F: -2073.501597172151378  |grad|_K:  1.269e-06  alpha:  2.077e-01  linmin: -2.568e-04  t[s]:  11714.08
	FillingsUpdate:  mu: +0.099681058  nElectrons: 351.000000  magneticMoment: [ Abs: 38.70402  Tot: +0.00000 ]
	SubspaceRotationAdjust: set factor to 0.488
ElecMinimize: Iter: 141  F: -2073.501651311033129  |grad|_K:  1.622e-06  alpha:  1.770e-01  linmin:  2.045e-04  t[s]:  11786.60
	FillingsUpdate:  mu: +0.099505909  nElectrons: 351.000000  magneticMoment: [ Abs: 38.70289  Tot: -0.00000 ]
	SubspaceRotationAdjust: set factor to 0.558
ElecMinimize: Iter: 142  F: -2073.501701486283309  |grad|_K:  1.589e-06  alpha:  1.160e-01  linmin: -2.878e-05  t[s]:  11857.94
	FillingsUpdate:  mu: +0.099470583  nElectrons: 351.000000  magneticMoment: [ Abs: 38.69714  Tot: +0.00000 ]
	SubspaceRotationAdjust: set factor to 0.61
ElecMinimize: Iter: 143  F: -2073.501762348094871  |grad|_K:  1.524e-06  alpha:  1.348e-01  linmin: -2.627e-04  t[s]:  11929.41
	FillingsUpdate:  mu: +0.099595009  nElectrons: 351.000000  magneticMoment: [ Abs: 38.70426  Tot: -0.00000 ]
	SubspaceRotationAdjust: set factor to 0.528
ElecMinimize: Iter: 144  F: -2073.501835308356021  |grad|_K:  1.761e-06  alpha:  1.732e-01  linmin:  4.633e-04  t[s]:  12001.54
	FillingsUpdate:  mu: +0.099755800  nElectrons: 351.000000  magneticMoment: [ Abs: 38.70543  Tot: +0.00000 ]
	SubspaceRotationAdjust: set factor to 0.52
ElecMinimize: Iter: 145  F: -2073.501877456348211  |grad|_K:  1.739e-06  alpha:  8.698e-02  linmin: -9.681e-05  t[s]:  12073.06
	FillingsUpdate:  mu: +0.099674452  nElectrons: 351.000000  magneticMoment: [ Abs: 38.71727  Tot: -0.00000 ]
	SubspaceRotationAdjust: set factor to 0.755
ElecMinimize: Iter: 146  F: -2073.501944956497482  |grad|_K:  1.467e-06  alpha:  1.197e-01  linmin: -2.967e-04  t[s]:  12145.11
	FillingsUpdate:  mu: +0.099720057  nElectrons: 351.000000  magneticMoment: [ Abs: 38.73675  Tot: -0.00000 ]
	SubspaceRotationAdjust: set factor to 0.562
ElecMinimize: Iter: 147  F: -2073.502014045989199  |grad|_K:  1.894e-06  alpha:  1.670e-01  linmin: -1.578e-05  t[s]:  12216.34
	FillingsUpdate:  mu: +0.099635033  nElectrons: 351.000000  magneticMoment: [ Abs: 38.73924  Tot: -0.00000 ]
	SubspaceRotationAdjust: set factor to 0.597
ElecMinimize: Iter: 148  F: -2073.502048768376881  |grad|_K:  1.556e-06  alpha:  4.944e-02  linmin: -3.383e-04  t[s]:  12287.41
ElecMinimize: 	Predicted alpha/alphaT>3.000000, increasing alphaT to 1.483164e-01.
	FillingsUpdate:  mu: +0.099927096  nElectrons: 351.000000  magneticMoment: [ Abs: 38.76109  Tot: -0.00000 ]
	SubspaceRotationAdjust: set factor to 0.429
ElecMinimize: Iter: 149  F: -2073.502121953672486  |grad|_K:  2.131e-06  alpha:  1.575e-01  linmin:  8.691e-05  t[s]:  12380.33
	FillingsUpdate:  mu: +0.099644408  nElectrons: 351.000000  magneticMoment: [ Abs: 38.78029  Tot: +0.00000 ]
	SubspaceRotationAdjust: set factor to 0.58
ElecMinimize: Iter: 150  F: -2073.502159319797556  |grad|_K:  1.617e-06  alpha:  4.580e-02  linmin: -1.695e-04  t[s]:  12452.85
	FillingsUpdate:  mu: +0.099930089  nElectrons: 351.000000  magneticMoment: [ Abs: 38.80189  Tot: +0.00000 ]
	SubspaceRotationAdjust: set factor to 0.392
ElecMinimize: Iter: 151  F: -2073.502212278709521  |grad|_K:  2.280e-06  alpha:  1.059e-01  linmin: -1.839e-04  t[s]:  12525.11
	FillingsUpdate:  mu: +0.099604109  nElectrons: 351.000000  magneticMoment: [ Abs: 38.80850  Tot: -0.00000 ]
	SubspaceRotationAdjust: set factor to 0.469
ElecMinimize: Iter: 152  F: -2073.502264532180106  |grad|_K:  1.522e-06  alpha:  5.025e-02  linmin: -2.104e-04  t[s]:  12596.55
	FillingsUpdate:  mu: +0.099752459  nElectrons: 351.000000  magneticMoment: [ Abs: 38.81646  Tot: +0.00000 ]
	SubspaceRotationAdjust: set factor to 0.325
ElecMinimize: Iter: 153  F: -2073.502304651246504  |grad|_K:  2.060e-06  alpha:  9.435e-02  linmin:  9.385e-05  t[s]:  12667.71
	FillingsUpdate:  mu: +0.099917224  nElectrons: 351.000000  magneticMoment: [ Abs: 38.83978  Tot: -0.00000 ]
	SubspaceRotationAdjust: set factor to 0.292
ElecMinimize: Iter: 154  F: -2073.502354318997277  |grad|_K:  1.745e-06  alpha:  6.823e-02  linmin: -1.032e-05  t[s]:  12739.83
	FillingsUpdate:  mu: +0.099853132  nElectrons: 351.000000  magneticMoment: [ Abs: 38.86060  Tot: -0.00000 ]
	SubspaceRotationAdjust: set factor to 0.354
ElecMinimize: Iter: 155  F: -2073.502390004535755  |grad|_K:  1.542e-06  alpha:  6.713e-02  linmin: -3.651e-05  t[s]:  12812.00
	FillingsUpdate:  mu: +0.100042092  nElectrons: 351.000000  magneticMoment: [ Abs: 38.87984  Tot: -0.00000 ]
	SubspaceRotationAdjust: set factor to 0.263
ElecMinimize: Iter: 156  F: -2073.502436892300466  |grad|_K:  1.856e-06  alpha:  1.098e-01  linmin: -1.639e-04  t[s]:  12885.08
	FillingsUpdate:  mu: +0.099695482  nElectrons: 351.000000  magneticMoment: [ Abs: 38.88479  Tot: +0.00000 ]
	SubspaceRotationAdjust: set factor to 0.351
ElecMinimize: Iter: 157  F: -2073.502481541458565  |grad|_K:  1.384e-06  alpha:  6.957e-02  linmin: -4.116e-05  t[s]:  12957.97
	FillingsUpdate:  mu: +0.099708935  nElectrons: 351.000000  magneticMoment: [ Abs: 38.88845  Tot: -0.00000 ]
	SubspaceRotationAdjust: set factor to 0.266
ElecMinimize: Iter: 158  F: -2073.502516005314646  |grad|_K:  1.759e-06  alpha:  1.029e-01  linmin:  7.736e-05  t[s]:  13030.97
	FillingsUpdate:  mu: +0.099850647  nElectrons: 351.000000  magneticMoment: [ Abs: 38.90414  Tot: +0.00000 ]
	SubspaceRotationAdjust: set factor to 0.238
ElecMinimize: Iter: 159  F: -2073.502563051666129  |grad|_K:  1.637e-06  alpha:  8.884e-02  linmin:  1.626e-06  t[s]:  13103.19
	FillingsUpdate:  mu: +0.099904063  nElectrons: 351.000000  magneticMoment: [ Abs: 38.92115  Tot: +0.00000 ]
	SubspaceRotationAdjust: set factor to 0.321
ElecMinimize: Iter: 160  F: -2073.502600052965136  |grad|_K:  1.415e-06  alpha:  7.952e-02  linmin: -2.700e-05  t[s]:  13175.36
	FillingsUpdate:  mu: +0.100177023  nElectrons: 351.000000  magneticMoment: [ Abs: 38.93573  Tot: +0.00000 ]
	SubspaceRotationAdjust: set factor to 0.242
ElecMinimize: Iter: 161  F: -2073.502641651958129  |grad|_K:  1.738e-06  alpha:  1.174e-01  linmin: -9.312e-05  t[s]:  13247.33
	FillingsUpdate:  mu: +0.100003410  nElectrons: 351.000000  magneticMoment: [ Abs: 38.93732  Tot: -0.00000 ]
	SubspaceRotationAdjust: set factor to 0.271
ElecMinimize: Iter: 162  F: -2073.502687134272037  |grad|_K:  1.409e-06  alpha:  8.265e-02  linmin: -5.407e-06  t[s]:  13319.18
	FillingsUpdate:  mu: +0.099917624  nElectrons: 351.000000  magneticMoment: [ Abs: 38.93348  Tot: +0.00000 ]
	SubspaceRotationAdjust: set factor to 0.25
ElecMinimize: Iter: 163  F: -2073.502720624717313  |grad|_K:  1.552e-06  alpha:  9.710e-02  linmin:  5.828e-05  t[s]:  13391.66
	FillingsUpdate:  mu: +0.099848159  nElectrons: 351.000000  magneticMoment: [ Abs: 38.93333  Tot: -0.00000 ]
	SubspaceRotationAdjust: set factor to 0.214
ElecMinimize: Iter: 164  F: -2073.502763119394785  |grad|_K:  1.625e-06  alpha:  1.028e-01  linmin: -2.886e-05  t[s]:  13464.03
	FillingsUpdate:  mu: +0.099764468  nElectrons: 351.000000  magneticMoment: [ Abs: 38.93907  Tot: +0.00000 ]
	SubspaceRotationAdjust: set factor to 0.306
ElecMinimize: Iter: 165  F: -2073.502802819461976  |grad|_K:  1.339e-06  alpha:  8.609e-02  linmin: -3.595e-05  t[s]:  13535.84
	FillingsUpdate:  mu: +0.099972184  nElectrons: 351.000000  magneticMoment: [ Abs: 38.94562  Tot: -0.00000 ]
	SubspaceRotationAdjust: set factor to 0.266
ElecMinimize: Iter: 166  F: -2073.502838232596787  |grad|_K:  1.482e-06  alpha:  1.117e-01  linmin: -7.116e-05  t[s]:  13608.74
	FillingsUpdate:  mu: +0.100035152  nElectrons: 351.000000  magneticMoment: [ Abs: 38.94434  Tot: +0.00000 ]
	SubspaceRotationAdjust: set factor to 0.279
ElecMinimize: Iter: 167  F: -2073.502878513080304  |grad|_K:  1.320e-06  alpha:  1.034e-01  linmin:  2.336e-05  t[s]:  13681.29
	FillingsUpdate:  mu: +0.100106585  nElectrons: 351.000000  magneticMoment: [ Abs: 38.93655  Tot: +0.00000 ]
	SubspaceRotationAdjust: set factor to 0.278
ElecMinimize: Iter: 168  F: -2073.502909760666171  |grad|_K:  1.378e-06  alpha:  1.036e-01  linmin:  1.932e-05  t[s]:  13753.54
	FillingsUpdate:  mu: +0.099997372  nElectrons: 351.000000  magneticMoment: [ Abs: 38.92826  Tot: -0.00000 ]
	SubspaceRotationAdjust: set factor to 0.278
ElecMinimize: Iter: 169  F: -2073.502948301356810  |grad|_K:  1.393e-06  alpha:  1.167e-01  linmin: -7.252e-05  t[s]:  13826.09
	FillingsUpdate:  mu: +0.099957289  nElectrons: 351.000000  magneticMoment: [ Abs: 38.92610  Tot: -0.00000 ]
	SubspaceRotationAdjust: set factor to 0.357
ElecMinimize: Iter: 170  F: -2073.502982377849094  |grad|_K:  1.203e-06  alpha:  9.961e-02  linmin: -5.492e-05  t[s]:  13898.53
	FillingsUpdate:  mu: +0.100034513  nElectrons: 351.000000  magneticMoment: [ Abs: 38.92372  Tot: -0.00000 ]
	SubspaceRotationAdjust: set factor to 0.315
ElecMinimize: Iter: 171  F: -2073.503018956205324  |grad|_K:  1.330e-06  alpha:  1.425e-01  linmin: -3.760e-05  t[s]:  13970.73
	FillingsUpdate:  mu: +0.100003521  nElectrons: 351.000000  magneticMoment: [ Abs: 38.91509  Tot: +0.00000 ]
	SubspaceRotationAdjust: set factor to 0.373
ElecMinimize: Iter: 172  F: -2073.503047038667319  |grad|_K:  1.164e-06  alpha:  8.821e-02  linmin: -2.695e-05  t[s]:  14042.94
	FillingsUpdate:  mu: +0.100091926  nElectrons: 351.000000  magneticMoment: [ Abs: 38.90448  Tot: -0.00000 ]
	SubspaceRotationAdjust: set factor to 0.292
ElecMinimize: Iter: 173  F: -2073.503078598173033  |grad|_K:  1.436e-06  alpha:  1.330e-01  linmin:  2.054e-05  t[s]:  14114.38
	FillingsUpdate:  mu: +0.099879637  nElectrons: 351.000000  magneticMoment: [ Abs: 38.89835  Tot: -0.00000 ]
	SubspaceRotationAdjust: set factor to 0.445
ElecMinimize: Iter: 174  F: -2073.503108204042292  |grad|_K:  1.115e-06  alpha:  8.472e-02  linmin: -2.740e-06  t[s]:  14186.37
	FillingsUpdate:  mu: +0.099908561  nElectrons: 351.000000  magneticMoment: [ Abs: 38.89221  Tot: +0.00000 ]
	SubspaceRotationAdjust: set factor to 0.365
ElecMinimize: Iter: 175  F: -2073.503136337785236  |grad|_K:  1.332e-06  alpha:  1.283e-01  linmin: -1.288e-04  t[s]:  14258.55
	FillingsUpdate:  mu: +0.099826697  nElectrons: 351.000000  magneticMoment: [ Abs: 38.87885  Tot: -0.00000 ]
	SubspaceRotationAdjust: set factor to 0.474
ElecMinimize: Iter: 176  F: -2073.503164802714309  |grad|_K:  1.050e-06  alpha:  8.771e-02  linmin: -3.142e-06  t[s]:  14330.83
	FillingsUpdate:  mu: +0.100004665  nElectrons: 351.000000  magneticMoment: [ Abs: 38.86877  Tot: -0.00000 ]
	SubspaceRotationAdjust: set factor to 0.373
ElecMinimize: Iter: 177  F: -2073.503191808614247  |grad|_K:  1.340e-06  alpha:  1.415e-01  linmin:  6.972e-05  t[s]:  14403.22
	FillingsUpdate:  mu: +0.099980755  nElectrons: 351.000000  magneticMoment: [ Abs: 38.86523  Tot: +0.00000 ]
	SubspaceRotationAdjust: set factor to 0.516
ElecMinimize: Iter: 178  F: -2073.503215252373138  |grad|_K:  1.065e-06  alpha:  7.847e-02  linmin:  2.339e-05  t[s]:  14475.28
	FillingsUpdate:  mu: +0.099869018  nElectrons: 351.000000  magneticMoment: [ Abs: 38.85567  Tot: -0.00000 ]
	SubspaceRotationAdjust: set factor to 0.448
ElecMinimize: Iter: 179  F: -2073.503242777943797  |grad|_K:  1.225e-06  alpha:  1.377e-01  linmin: -1.418e-04  t[s]:  14547.13
	FillingsUpdate:  mu: +0.099735029  nElectrons: 351.000000  magneticMoment: [ Abs: 38.84269  Tot: -0.00000 ]
	SubspaceRotationAdjust: set factor to 0.498
ElecMinimize: Iter: 180  F: -2073.503262712136348  |grad|_K:  1.043e-06  alpha:  7.109e-02  linmin: -6.846e-05  t[s]:  14618.92
	FillingsUpdate:  mu: +0.099822527  nElectrons: 351.000000  magneticMoment: [ Abs: 38.83384  Tot: +0.00000 ]
	SubspaceRotationAdjust: set factor to 0.429
ElecMinimize: Iter: 181  F: -2073.503288005902505  |grad|_K:  1.157e-06  alpha:  1.315e-01  linmin:  2.747e-05  t[s]:  14690.79
	FillingsUpdate:  mu: +0.099841339  nElectrons: 351.000000  magneticMoment: [ Abs: 38.83387  Tot: -0.00000 ]
	SubspaceRotationAdjust: set factor to 0.468
ElecMinimize: Iter: 182  F: -2073.503303244453036  |grad|_K:  9.624e-07  alpha:  6.767e-02  linmin:  3.608e-05  t[s]:  14763.74
	FillingsUpdate:  mu: +0.099811601  nElectrons: 351.000000  magneticMoment: [ Abs: 38.82708  Tot: +0.00000 ]
	SubspaceRotationAdjust: set factor to 0.445
ElecMinimize: Iter: 183  F: -2073.503325674138068  |grad|_K:  1.007e-06  alpha:  1.390e-01  linmin: -7.347e-05  t[s]:  14835.75
	FillingsUpdate:  mu: +0.099732859  nElectrons: 351.000000  magneticMoment: [ Abs: 38.81852  Tot: +0.00000 ]
	SubspaceRotationAdjust: set factor to 0.458
ElecMinimize: Iter: 184  F: -2073.503338213000461  |grad|_K:  8.705e-07  alpha:  6.774e-02  linmin: -5.400e-05  t[s]:  14908.92
	FillingsUpdate:  mu: +0.099723435  nElectrons: 351.000000  magneticMoment: [ Abs: 38.81351  Tot: +0.00000 ]
	SubspaceRotationAdjust: set factor to 0.384
ElecMinimize: Iter: 185  F: -2073.503355766850746  |grad|_K:  9.606e-07  alpha:  1.312e-01  linmin:  1.460e-05  t[s]:  14981.24
	FillingsUpdate:  mu: +0.099725885  nElectrons: 351.000000  magneticMoment: [ Abs: 38.81616  Tot: +0.00000 ]
	SubspaceRotationAdjust: set factor to 0.422
ElecMinimize: Iter: 186  F: -2073.503366126086348  |grad|_K:  7.498e-07  alpha:  6.615e-02  linmin:  3.529e-05  t[s]:  15053.47
	FillingsUpdate:  mu: +0.099756920  nElectrons: 351.000000  magneticMoment: [ Abs: 38.81707  Tot: +0.00000 ]
	SubspaceRotationAdjust: set factor to 0.347
ElecMinimize: Iter: 187  F: -2073.503380195816135  |grad|_K:  8.772e-07  alpha:  1.436e-01  linmin: -8.061e-05  t[s]:  15125.27
	FillingsUpdate:  mu: +0.099719167  nElectrons: 351.000000  magneticMoment: [ Abs: 38.81220  Tot: +0.00000 ]
	SubspaceRotationAdjust: set factor to 0.4
ElecMinimize: Iter: 188  F: -2073.503389791074824  |grad|_K:  6.592e-07  alpha:  6.864e-02  linmin: -4.940e-05  t[s]:  15197.52
	FillingsUpdate:  mu: +0.099696725  nElectrons: 351.000000  magneticMoment: [ Abs: 38.80849  Tot: +0.00000 ]
	SubspaceRotationAdjust: set factor to 0.293
ElecMinimize: Iter: 189  F: -2073.503400672155294  |grad|_K:  8.606e-07  alpha:  1.434e-01  linmin:  7.985e-05  t[s]:  15269.61
	FillingsUpdate:  mu: +0.099666636  nElectrons: 351.000000  magneticMoment: [ Abs: 38.81127  Tot: -0.00000 ]
	SubspaceRotationAdjust: set factor to 0.44
ElecMinimize: Iter: 190  F: -2073.503409738083064  |grad|_K:  6.266e-07  alpha:  7.256e-02  linmin:  2.048e-05  t[s]:  15340.94
	FillingsUpdate:  mu: +0.099747458  nElectrons: 351.000000  magneticMoment: [ Abs: 38.81615  Tot: -0.00000 ]
	SubspaceRotationAdjust: set factor to 0.331
ElecMinimize: Iter: 191  F: -2073.503418251621042  |grad|_K:  8.346e-07  alpha:  1.243e-01  linmin: -6.382e-05  t[s]:  15412.60
	FillingsUpdate:  mu: +0.099783068  nElectrons: 351.000000  magneticMoment: [ Abs: 38.81661  Tot: -0.00000 ]
	SubspaceRotationAdjust: set factor to 0.518
ElecMinimize: Iter: 192  F: -2073.503429101304846  |grad|_K:  6.183e-07  alpha:  8.780e-02  linmin:  1.357e-06  t[s]:  15483.96
	FillingsUpdate:  mu: +0.099815912  nElectrons: 351.000000  magneticMoment: [ Abs: 38.81550  Tot: +0.00000 ]
	SubspaceRotationAdjust: set factor to 0.373
[...]
	SubspaceRotationAdjust: set factor to 0.112
ElecMinimize: Iter:  13  F: -2073.568011853968073  |grad|_K:  1.163e-06  alpha:  3.633e-01  linmin: -6.582e-07  t[s]: 155231.47
	FillingsUpdate:  mu: +0.097919457  nElectrons: 351.000000  magneticMoment: [ Abs: 36.31478  Tot: +0.00000 ]
	SubspaceRotationAdjust: set factor to 0.12
ElecMinimize: Iter:  14  F: -2073.568089862331817  |grad|_K:  9.215e-07  alpha:  3.310e-01  linmin: -5.383e-06  t[s]: 155304.48
	FillingsUpdate:  mu: +0.097842614  nElectrons: 351.000000  magneticMoment: [ Abs: 36.31719  Tot: -0.00000 ]
	SubspaceRotationAdjust: set factor to 0.128
ElecMinimize: Iter:  15  F: -2073.568148090772411  |grad|_K:  7.961e-07  alpha:  3.938e-01  linmin:  1.402e-05  t[s]: 155377.58
	FillingsUpdate:  mu: +0.097811958  nElectrons: 351.000000  magneticMoment: [ Abs: 36.31739  Tot: +0.00000 ]
	SubspaceRotationAdjust: set factor to 0.139
ElecMinimize: Iter:  16  F: -2073.568190970406704  |grad|_K:  7.435e-07  alpha:  3.891e-01  linmin: -8.008e-06  t[s]: 155450.87
	FillingsUpdate:  mu: +0.097797375  nElectrons: 351.000000  magneticMoment: [ Abs: 36.31994  Tot: -0.00000 ]
	SubspaceRotationAdjust: set factor to 0.156
ElecMinimize: Iter:  17  F: -2073.568230761557061  |grad|_K:  6.759e-07  alpha:  4.130e-01  linmin:  5.933e-06  t[s]: 155523.14
	FillingsUpdate:  mu: +0.097800302  nElectrons: 351.000000  magneticMoment: [ Abs: 36.32227  Tot: -0.00000 ]
	SubspaceRotationAdjust: set factor to 0.173
ElecMinimize: Iter:  18  F: -2073.568264187177647  |grad|_K:  5.908e-07  alpha:  4.207e-01  linmin:  1.901e-06  t[s]: 155595.26
	FillingsUpdate:  mu: +0.097837789  nElectrons: 351.000000  magneticMoment: [ Abs: 36.32336  Tot: +0.00000 ]
	SubspaceRotationAdjust: set factor to 0.173
ElecMinimize: Iter:  19  F: -2073.568286323323719  |grad|_K:  5.158e-07  alpha:  3.645e-01  linmin: -5.312e-06  t[s]: 155667.18
	FillingsUpdate:  mu: +0.097850742  nElectrons: 351.000000  magneticMoment: [ Abs: 36.32582  Tot: -0.00000 ]
	SubspaceRotationAdjust: set factor to 0.135
ElecMinimize: Iter:  20  F: -2073.568298672023502  |grad|_K:  4.311e-07  alpha:  2.662e-01  linmin:  1.786e-06  t[s]: 155739.04
	FillingsUpdate:  mu: +0.097804347  nElectrons: 351.000000  magneticMoment: [ Abs: 36.32600  Tot: +0.00000 ]
	SubspaceRotationAdjust: set factor to 0.104
ElecMinimize: Iter:  21  F: -2073.568306597490846  |grad|_K:  3.129e-07  alpha:  2.450e-01  linmin: -3.496e-06  t[s]: 155810.99
	FillingsUpdate:  mu: +0.097779729  nElectrons: 351.000000  magneticMoment: [ Abs: 36.32696  Tot: +0.00000 ]
	SubspaceRotationAdjust: set factor to 0.121
ElecMinimize: Iter:  22  F: -2073.568311924756927  |grad|_K:  2.278e-07  alpha:  3.124e-01  linmin:  2.207e-06  t[s]: 155883.18
	FillingsUpdate:  mu: +0.097788731  nElectrons: 351.000000  magneticMoment: [ Abs: 36.32785  Tot: -0.00000 ]
	SubspaceRotationAdjust: set factor to 0.122
ElecMinimize: Iter:  23  F: -2073.568314844116230  |grad|_K:  1.783e-07  alpha:  3.232e-01  linmin:  7.748e-07  t[s]: 155955.61
	FillingsUpdate:  mu: +0.097790875  nElectrons: 351.000000  magneticMoment: [ Abs: 36.32807  Tot: +0.00000 ]
	SubspaceRotationAdjust: set factor to 0.114
ElecMinimize: Iter:  24  F: -2073.568316542714456  |grad|_K:  1.432e-07  alpha:  3.070e-01  linmin:  6.739e-07  t[s]: 156027.98
	FillingsUpdate:  mu: +0.097781484  nElectrons: 351.000000  magneticMoment: [ Abs: 36.32872  Tot: -0.00000 ]
	SubspaceRotationAdjust: set factor to 0.127
ElecMinimize: Iter:  25  F: -2073.568317804462367  |grad|_K:  1.186e-07  alpha:  3.534e-01  linmin: -3.611e-06  t[s]: 156101.20
	FillingsUpdate:  mu: +0.097779018  nElectrons: 351.000000  magneticMoment: [ Abs: 36.32925  Tot: +0.00000 ]
	SubspaceRotationAdjust: set factor to 0.15
ElecMinimize: Iter:  26  F: -2073.568318723869652  |grad|_K:  1.115e-07  alpha:  3.753e-01  linmin: -2.059e-06  t[s]: 156174.26
	FillingsUpdate:  mu: +0.097782057  nElectrons: 351.000000  magneticMoment: [ Abs: 36.32972  Tot: -0.00000 ]
	SubspaceRotationAdjust: set factor to 0.158
ElecMinimize: Iter:  27  F: -2073.568319536404033  |grad|_K:  1.134e-07  alpha:  3.756e-01  linmin:  5.410e-06  t[s]: 156246.49
	FillingsUpdate:  mu: +0.097776131  nElectrons: 351.000000  magneticMoment: [ Abs: 36.33075  Tot: +0.00000 ]
	SubspaceRotationAdjust: set factor to 0.149
ElecMinimize: Iter:  28  F: -2073.568320365164254  |grad|_K:  1.217e-07  alpha:  3.701e-01  linmin: -9.058e-06  t[s]: 156318.99
	FillingsUpdate:  mu: +0.097757440  nElectrons: 351.000000  magneticMoment: [ Abs: 36.33157  Tot: +0.00000 ]
	SubspaceRotationAdjust: set factor to 0.15
ElecMinimize: Iter:  29  F: -2073.568321330084927  |grad|_K:  1.208e-07  alpha:  3.740e-01  linmin:  8.569e-06  t[s]: 156390.98
	FillingsUpdate:  mu: +0.097753193  nElectrons: 351.000000  magneticMoment: [ Abs: 36.33312  Tot: +0.00000 ]
	SubspaceRotationAdjust: set factor to 0.164
ElecMinimize: Iter:  30  F: -2073.568322481614814  |grad|_K:  1.249e-07  alpha:  4.534e-01  linmin: -1.635e-06  t[s]: 156463.59
	FillingsUpdate:  mu: +0.097753818  nElectrons: 351.000000  magneticMoment: [ Abs: 36.33486  Tot: -0.00000 ]
	SubspaceRotationAdjust: set factor to 0.176
ElecMinimize: Iter:  31  F: -2073.568323614696055  |grad|_K:  1.264e-07  alpha:  4.170e-01  linmin: -6.624e-06  t[s]: 156536.07
	FillingsUpdate:  mu: +0.097739544  nElectrons: 351.000000  magneticMoment: [ Abs: 36.33605  Tot: +0.00000 ]
	SubspaceRotationAdjust: set factor to 0.164
ElecMinimize: Iter:  32  F: -2073.568324624375236  |grad|_K:  1.306e-07  alpha:  3.623e-01  linmin:  8.237e-06  t[s]: 156608.44
	FillingsUpdate:  mu: +0.097732564  nElectrons: 351.000000  magneticMoment: [ Abs: 36.33767  Tot: -0.00000 ]
	SubspaceRotationAdjust: set factor to 0.137
ElecMinimize: Iter:  33  F: -2073.568325461697441  |grad|_K:  1.217e-07  alpha:  2.827e-01  linmin: -7.738e-06  t[s]: 156680.21
	FillingsUpdate:  mu: +0.097729157  nElectrons: 351.000000  magneticMoment: [ Abs: 36.33891  Tot: -0.00000 ]
	SubspaceRotationAdjust: set factor to 0.142
ElecMinimize: Iter:  34  F: -2073.568326310097746  |grad|_K:  1.024e-07  alpha:  3.286e-01  linmin:  1.096e-05  t[s]: 156752.61
	FillingsUpdate:  mu: +0.097723703  nElectrons: 351.000000  magneticMoment: [ Abs: 36.33996  Tot: +0.00000 ]
	SubspaceRotationAdjust: set factor to 0.165
ElecMinimize: Iter:  35  F: -2073.568327011067595  |grad|_K:  9.190e-08  alpha:  3.846e-01  linmin:  3.600e-06  t[s]: 156824.91
	FillingsUpdate:  mu: +0.097717594  nElectrons: 351.000000  magneticMoment: [ Abs: 36.34082  Tot: +0.00000 ]
	SubspaceRotationAdjust: set factor to 0.166
ElecMinimize: Iter:  36  F: -2073.568327518570186  |grad|_K:  8.854e-08  alpha:  3.453e-01  linmin: -1.101e-05  t[s]: 156897.78
	FillingsUpdate:  mu: +0.097715544  nElectrons: 351.000000  magneticMoment: [ Abs: 36.34117  Tot: +0.00000 ]
	SubspaceRotationAdjust: set factor to 0.148
ElecMinimize: Iter:  37  F: -2073.568327920581396  |grad|_K:  8.279e-08  alpha:  2.941e-01  linmin:  1.275e-05  t[s]: 156971.41
ElecMinimize: Converged (|Delta F|<1.000000e-06 for 5 iters).
Setting wave functions to eigenvectors of Hamiltonian
IonicMinimize: 	Wolfe criterion not satisfied: alpha: 1  (E-E0)/|gdotd0|: 0.413211  gdotd/gdotd0: -1.79651 (taking cubic step)

-------- Electronic minimization -----------
	FillingsUpdate:  mu: +0.100360149  nElectrons: 351.000000  magneticMoment: [ Abs: 36.34580  Tot: -0.00000 ]
ElecMinimize: Iter:   0  F: -2073.486583920001976  |grad|_K:  4.931e-05  alpha:  1.000e+00
	FillingsUpdate:  mu: +0.098392382  nElectrons: 351.000000  magneticMoment: [ Abs: 36.34197  Tot: -0.00000 ]
	SubspaceRotationAdjust: set factor to 0.145
ElecMinimize: Iter:   1  F: -2073.564515102234964  |grad|_K:  7.633e-06  alpha:  1.843e-01  linmin:  1.451e-03  t[s]: 157124.10
	FillingsUpdate:  mu: +0.098299917  nElectrons: 351.000000  magneticMoment: [ Abs: 36.34287  Tot: -0.00000 ]
	SubspaceRotationAdjust: set factor to 0.139
ElecMinimize: Iter:   2  F: -2073.566834289917551  |grad|_K:  4.217e-06  alpha:  2.289e-01  linmin: -7.136e-05  t[s]: 157196.87
	FillingsUpdate:  mu: +0.098118543  nElectrons: 351.000000  magneticMoment: [ Abs: 36.33657  Tot: -0.00000 ]
	SubspaceRotationAdjust: set factor to 0.123
ElecMinimize: Iter:   3  F: -2073.567608689731060  |grad|_K:  2.370e-06  alpha:  2.500e-01  linmin:  6.160e-05  t[s]: 157269.32
	FillingsUpdate:  mu: +0.098026157  nElectrons: 351.000000  magneticMoment: [ Abs: 36.34100  Tot: +0.00000 ]
	SubspaceRotationAdjust: set factor to 0.109
ElecMinimize: Iter:   4  F: -2073.567895698731718  |grad|_K:  1.651e-06  alpha:  2.938e-01  linmin: -2.967e-05  t[s]: 157341.26
	FillingsUpdate:  mu: +0.097789169  nElectrons: 351.000000  magneticMoment: [ Abs: 36.33776  Tot: +0.00000 ]
	SubspaceRotationAdjust: set factor to 0.11
ElecMinimize: Iter:   5  F: -2073.568049965113914  |grad|_K:  1.155e-06  alpha:  3.249e-01  linmin:  1.020e-05  t[s]: 157413.67
	FillingsUpdate:  mu: +0.097663564  nElectrons: 351.000000  magneticMoment: [ Abs: 36.33667  Tot: -0.00000 ]
	SubspaceRotationAdjust: set factor to 0.127
ElecMinimize: Iter:   6  F: -2073.568135930481731  |grad|_K:  9.893e-07  alpha:  3.702e-01  linmin:  1.414e-06  t[s]: 157486.37
	FillingsUpdate:  mu: +0.097663301  nElectrons: 351.000000  magneticMoment: [ Abs: 36.33545  Tot: -0.00000 ]
	SubspaceRotationAdjust: set factor to 0.153
ElecMinimize: Iter:   7  F: -2073.568195390541405  |grad|_K:  8.682e-07  alpha:  3.490e-01  linmin:  4.574e-07  t[s]: 157560.79
	FillingsUpdate:  mu: +0.097719469  nElectrons: 351.000000  magneticMoment: [ Abs: 36.33327  Tot: +0.00000 ]
	SubspaceRotationAdjust: set factor to 0.169
ElecMinimize: Iter:   8  F: -2073.568247058155521  |grad|_K:  8.573e-07  alpha:  3.937e-01  linmin: -1.039e-06  t[s]: 157635.41
	FillingsUpdate:  mu: +0.097769037  nElectrons: 351.000000  magneticMoment: [ Abs: 36.33307  Tot: -0.00000 ]
	SubspaceRotationAdjust: set factor to 0.161
ElecMinimize: Iter:   9  F: -2073.568294231297841  |grad|_K:  8.738e-07  alpha:  3.686e-01  linmin:  2.940e-06  t[s]: 157708.38
	FillingsUpdate:  mu: +0.097716066  nElectrons: 351.000000  magneticMoment: [ Abs: 36.32888  Tot: +0.00000 ]
	SubspaceRotationAdjust: set factor to 0.135
ElecMinimize: Iter:  10  F: -2073.568336253877533  |grad|_K:  8.237e-07  alpha:  3.164e-01  linmin: -5.991e-07  t[s]: 157781.63
	FillingsUpdate:  mu: +0.097684875  nElectrons: 351.000000  magneticMoment: [ Abs: 36.32854  Tot: +0.00000 ]
	SubspaceRotationAdjust: set factor to 0.125
ElecMinimize: Iter:  11  F: -2073.568373639717720  |grad|_K:  6.305e-07  alpha:  3.164e-01  linmin:  3.518e-06  t[s]: 157855.54
	FillingsUpdate:  mu: +0.097698332  nElectrons: 351.000000  magneticMoment: [ Abs: 36.32749  Tot: -0.00000 ]
	SubspaceRotationAdjust: set factor to 0.131
ElecMinimize: Iter:  12  F: -2073.568398082120893  |grad|_K:  4.715e-07  alpha:  3.535e-01  linmin: -6.701e-07  t[s]: 157929.06
	FillingsUpdate:  mu: +0.097693210  nElectrons: 351.000000  magneticMoment: [ Abs: 36.32647  Tot: +0.00000 ]
	SubspaceRotationAdjust: set factor to 0.132
ElecMinimize: Iter:  13  F: -2073.568411697115152  |grad|_K:  3.640e-07  alpha:  3.517e-01  linmin: -7.262e-07  t[s]: 158001.82
	FillingsUpdate:  mu: +0.097695524  nElectrons: 351.000000  magneticMoment: [ Abs: 36.32659  Tot: +0.00000 ]
	SubspaceRotationAdjust: set factor to 0.118
ElecMinimize: Iter:  14  F: -2073.568418514159475  |grad|_K:  2.629e-07  alpha:  2.955e-01  linmin:  1.099e-07  t[s]: 158074.61
	FillingsUpdate:  mu: +0.097693337  nElectrons: 351.000000  magneticMoment: [ Abs: 36.32617  Tot: +0.00000 ]
	SubspaceRotationAdjust: set factor to 0.107
ElecMinimize: Iter:  15  F: -2073.568422124387325  |grad|_K:  1.897e-07  alpha:  3.001e-01  linmin: -2.934e-07  t[s]: 158148.07
	FillingsUpdate:  mu: +0.097694631  nElectrons: 351.000000  magneticMoment: [ Abs: 36.32626  Tot: +0.00000 ]
	SubspaceRotationAdjust: set factor to 0.113
ElecMinimize: Iter:  16  F: -2073.568424108477757  |grad|_K:  1.371e-07  alpha:  3.166e-01  linmin:  1.326e-06  t[s]: 158221.51
	FillingsUpdate:  mu: +0.097697773  nElectrons: 351.000000  magneticMoment: [ Abs: 36.32619  Tot: -0.00000 ]
	SubspaceRotationAdjust: set factor to 0.128
ElecMinimize: Iter:  17  F: -2073.568425275438585  |grad|_K:  1.115e-07  alpha:  3.566e-01  linmin: -2.677e-06  t[s]: 158294.06
	FillingsUpdate:  mu: +0.097700218  nElectrons: 351.000000  magneticMoment: [ Abs: 36.32598  Tot: +0.00000 ]
	SubspaceRotationAdjust: set factor to 0.14
ElecMinimize: Iter:  18  F: -2073.568425986063176  |grad|_K:  9.371e-08  alpha:  3.283e-01  linmin:  1.836e-06  t[s]: 158366.43
	FillingsUpdate:  mu: +0.097704749  nElectrons: 351.000000  magneticMoment: [ Abs: 36.32598  Tot: +0.00000 ]
	SubspaceRotationAdjust: set factor to 0.154
ElecMinimize: Iter:  19  F: -2073.568426556984832  |grad|_K:  8.725e-08  alpha:  3.733e-01  linmin: -6.488e-06  t[s]: 158439.74
	FillingsUpdate:  mu: +0.097707576  nElectrons: 351.000000  magneticMoment: [ Abs: 36.32571  Tot: +0.00000 ]
	SubspaceRotationAdjust: set factor to 0.175
ElecMinimize: Iter:  20  F: -2073.568427072822033  |grad|_K:  8.504e-08  alpha:  3.891e-01  linmin:  1.458e-06  t[s]: 158512.17
	FillingsUpdate:  mu: +0.097713926  nElectrons: 351.000000  magneticMoment: [ Abs: 36.32546  Tot: -0.00000 ]
	SubspaceRotationAdjust: set factor to 0.195
ElecMinimize: Iter:  21  F: -2073.568427652998253  |grad|_K:  9.166e-08  alpha:  4.607e-01  linmin: -1.590e-06  t[s]: 158585.01
	FillingsUpdate:  mu: +0.097717427  nElectrons: 351.000000  magneticMoment: [ Abs: 36.32489  Tot: -0.00000 ]
	SubspaceRotationAdjust: set factor to 0.211
ElecMinimize: Iter:  22  F: -2073.568428270863933  |grad|_K:  9.502e-08  alpha:  4.223e-01  linmin:  2.883e-06  t[s]: 158657.38
ElecMinimize: Converged (|Delta F|<1.000000e-06 for 5 iters).
Setting wave functions to eigenvectors of Hamiltonian

# Ionic positions in lattice coordinates:
ion Ni   0.014471189064192   0.021766155685927   0.158363010903297 1
ion Ni   0.514363295747387   0.007075279026340   0.161409831665170 1
ion Ni   0.488238875642071   0.502538974528816   0.154018418584188 1
ion Ni   0.263151152788188   0.253041775386786   0.055948689266845 1
ion Ni   0.500000000000000   0.000000000000000  -0.050000000000000 0
ion Ni  -0.250000000000000   0.750000000000000  -0.150000000000000 0
ion V  -0.000914805489420   0.490334381277014   0.153527848721988 1
ion V   0.258089745517248   0.768724232575373   0.055874739091122 1
ion V  -0.261355193305213   0.257100874087527   0.055806554169607 1
ion V  -0.255748728854249   0.760548310212914   0.056753381500700 1
ion V   0.000000000000000   0.000000000000000  -0.050000000000000 0
ion Cr   0.000000000000000   0.500000000000000  -0.050000000000000 0
ion Cr   0.500000000000000   0.500000000000000  -0.050000000000000 0
ion Cr   0.250000000000000   0.250000000000000  -0.150000000000000 0
ion Co   0.250000000000000   0.750000000000000  -0.150000000000000 0
ion Co  -0.250000000000000   0.250000000000000  -0.150000000000000 0
ion O   0.246108501548650   0.276432121602076   0.148921566788029 1
ion O   0.245558095743898   0.724230718739062   0.144899571612333 1
ion O  -0.265967561572701   0.286684979822544   0.152526484520704 1
ion O  -0.269972963031338   0.725658013077840   0.147363634613777 1
ion O  -0.020553185896633  -0.010076710671414   0.057734468723823 1
ion O   0.491362788153043  -0.006390761248458   0.045117073434087 1
ion O   0.002522950576638   0.523783761169909   0.051231713280404 1
ion O   0.507864504476384   0.527860726865818   0.039968866634700 1
ion O   0.250000000000000   0.250000000000000  -0.050000000000000 0
ion O   0.250000000000000   0.750000000000000  -0.050000000000000 0
ion O  -0.250000000000000   0.250000000000000  -0.050000000000000 0
ion O  -0.250000000000000   0.750000000000000  -0.050000000000000 0
ion O   0.000000000000000   0.000000000000000  -0.150000000000000 0
ion O   0.500000000000000   0.000000000000000  -0.150000000000000 0
ion O   0.000000000000000   0.500000000000000  -0.150000000000000 0
ion O   0.500000000000000   0.500000000000000  -0.150000000000000 0
ion O   0.002424487975764  -0.006309353765969   0.236669997667482 1

# Forces in Lattice coordinates:
force Ni   0.005378718821619   0.003762325146503  -0.009190392827596 1
force Ni   0.004001828107769   0.003984591679442  -0.007971943630310 1
force Ni   0.000440398790126  -0.003066371756427   0.001848054003319 1
force Ni   0.001613779970045   0.005511902274208   0.001279530173598 1
force Ni  -0.011352872676809  -0.002783016800073  -0.456139681968485 0
force Ni  -0.024996236975040   0.047886009717477  -0.376284977779255 0
force V   0.001581451431312  -0.002963122810714  -0.018189707867359 1
force V  -0.003137498713963   0.003204962964451  -0.016615226598370 1
force V   0.002472977995323  -0.002655131299275  -0.023618249529449 1
force V  -0.000879091080573   0.005274475466645   0.007857861709522 1
force V  -0.038613209380193  -0.004321292770742   0.093554585187349 0
force Cr  -0.012877526862553  -0.010596930232249  -0.318398404969145 0
force Cr   0.022578837903588   0.019265052861199  -1.026108350593426 0
force Cr   0.062911300210599  -0.088959365910444  -1.501562008697479 0
force Co   0.072815059068756   0.090982206911633  -0.544916526269594 0
force Co  -0.047584888726638  -0.118050766194644  -0.498266289497375 0
force O  -0.006209586212149  -0.005752982547641   0.029167085448972 1
force O   0.001723987632779   0.004541953473095   0.010574079296362 1
force O   0.003795289667655   0.003064599892042   0.012753740286765 1
force O  -0.002885623140439  -0.001047706075789   0.002609734355401 1
force O   0.005222300907158   0.010892658965041   0.013199413009315 1
force O  -0.008424604192156   0.002911008976244  -0.010283800197287 1
force O   0.003359645985711  -0.004841763113324   0.008896051898722 1
force O  -0.003394492292581  -0.012833647181788  -0.008578851844796 1
force O   0.010556250255930   0.313346890099045   1.180041387137022 0
force O  -0.016805197042875  -0.322716344010675   0.583187512329893 0
force O  -0.016505340950750   0.324322062751607   0.297455919792232 0
force O  -0.015320605620844  -0.294063375316370   0.973609373614523 0
force O   0.052917587489186   0.048700987081806   0.150074041540766 0
force O  -0.029997248872379   0.026148473758810   0.267121184501667 0
force O   0.018386961150911  -0.003140776136378   0.663356458090480 0
force O  -0.037008848383950  -0.016563433917988   0.544026938094984 0
force O  -0.003655821446275  -0.012813081624904  -0.023248061437684 1

# Energy components:
   Eewald =     5400.5254497632668063
       EH =     7264.7352076444230988
     Eloc =   -14883.5272784948974731
      Enl =     -554.8346252872304376
   Epulay =       -0.0004860324562652
      Exc =     -250.5833150098347346
       KE =      948.7092368721704361
        U =        1.4087203578284555
-------------------------------------
     Etot =    -2073.5670901867310931
       TS =        0.0013380841328174
-------------------------------------
        F =    -2073.5684282708639330

IonicMinimize: Iter:  22  F: -2073.568428270863933  |grad|_K:  4.234e-04  alpha:  3.503e-01  linmin: -7.557e-04  t[s]: 158682.80
IonicMinimize: Converged (|Delta F|<1.000000e-04 for 3 iters).

#--- Lowdin population analysis ---
# oxidation-state Ni +3.470 +3.540 +3.291 +3.291 +3.227 +3.505
# magnetic-moments Ni +0.730 +0.711 -0.339 -0.764 +0.460 -0.751
# oxidation-state V +1.369 +1.237 +1.022 +1.211 +0.979
# magnetic-moments V +2.111 +2.049 -2.851 -2.100 -2.873
# oxidation-state Cr +2.892 +2.973 +2.916
# magnetic-moments Cr +3.505 +3.196 -3.945
# oxidation-state Co +1.242 +1.236
# magnetic-moments Co -2.703 +2.684
# oxidation-state O -0.664 -0.693 -0.719 -0.715 -0.838 -0.766 -0.855 -0.785 -0.787 -0.841 -0.844 -0.792 -0.920 -0.870 -0.871 -0.889 -0.276
# magnetic-moments O -0.059 -0.058 +0.099 +0.084 +0.048 -0.035 -0.072 -0.074 -0.156 -0.141 -0.048 -0.116 +0.010 +0.042 -0.122 -0.067 +1.445


Dumping 'run.ionpos' ... done
Dumping 'run.lattice' ... done
Dumping 'run.Ecomponents' ... done
End date and time: Mon May 19 21:42:48 2025  (Duration: 1-20:04:49.47)
Done!
