/var/spool/slurmd/job44094/slurm_script: line 9: module: command not found
/var/spool/slurmd/job44094/slurm_script: line 10: module: command not found

*************** JDFTx 1.7.0  ***************

Start date and time: Tue May  6 14:54:19 2025
Executable /data2/jt577/jdftx_eat_withLibXC/build/jdftx with command-line: -i /data2/jt577/May_2025/Relax_Mag/rel5+1_6/O/runs/calc_/run.in
Running on hosts (process indices):  node3220 (0-8)
Divided in process groups (process indices):  0 (0)  1 (1)  2 (2)  3 (3)  4 (4)  5 (5)  6 (6)  7 (7)  8 (8)
Resource initialization completed at t[s]:      0.00
Run totals: 9 processes, 36 threads, 0 GPUs


Input parsed successfully to the following command list (including defaults):

add-mix 
add-U 	Ni d 0.22 \
	V d 0.12 \
	Cr d 0.16 \
	Co d 0.2
basis kpoint-dependent
coords-type Lattice
core-overlap-check vector
coulomb-interaction Periodic
davidson-band-ratio 1.1
dump End IonicPositions Lattice Ecomponents
dump-name run.$VAR
elec-cutoff 30
elec-eigen-algo Davidson
elec-ex-corr gga-x-rpbe gga-c-pbe
elec-smearing Fermi 0.001
electronic-minimize  \
	dirUpdateScheme      FletcherReeves \
	linminMethod         DirUpdateRecommended \
	nIterations          1000 \
	history              15 \
	knormThreshold       0 \
	energyDiffThreshold  1e-06 \
	nEnergyDiff          5 \
	alphaTstart          1 \
	alphaTmin            1e-10 \
	updateTestStepSize   yes \
	alphaTreduceFactor   0.1 \
	alphaTincreaseFactor 3 \
	nAlphaAdjustMax      3 \
	wolfeEnergy          0.0001 \
	wolfeGradient        0.9 \
	fdTest               no
exchange-regularization WignerSeitzTruncated
fluid None
fluid-ex-corr (null) lda-PZ
fluid-gummel-loop 10 1.000000e-05
fluid-minimize  \
	dirUpdateScheme      PolakRibiere \
	linminMethod         DirUpdateRecommended \
	nIterations          100 \
	history              15 \
	knormThreshold       0 \
	energyDiffThreshold  0 \
	nEnergyDiff          2 \
	alphaTstart          1 \
	alphaTmin            1e-10 \
	updateTestStepSize   yes \
	alphaTreduceFactor   0.1 \
	alphaTincreaseFactor 3 \
	nAlphaAdjustMax      3 \
	wolfeEnergy          0.0001 \
	wolfeGradient        0.9 \
	fdTest               no
fluid-solvent H2O 55.338 ScalarEOS \
	epsBulk 78.4 \
	pMol 0.92466 \
	epsInf 1.77 \
	Pvap 1.06736e-10 \
	sigmaBulk 4.62e-05 \
	Rvdw 2.61727 \
	Res 1.42 \
	tauNuc 343133 \
	poleEl 15 7 1
forces-output-coords Positions
initial-magnetic-moments  \
	Ni 1 -1 -1 1 1 1 \
	V 1 1 -1 -1 -1 \
	Cr -1 1 -1 \
	Co -1 1
initial-state run.$VAR
ion Ni  0.000000000000000   0.000000000000000   0.150000000000000 1
ion Ni  0.500000000000000   0.000000000000000   0.150000000000000 1
ion Ni  0.500000000000000   0.500000000000000   0.150000000000000 1
ion Ni  0.250000000000000   0.250000000000000   0.050000000000000 1
ion Ni  0.500000000000000   0.000000000000000  -0.050000000000000 0
ion Ni -0.250000000000000   0.750000000000000  -0.150000000000000 0
ion V  0.000000000000000   0.500000000000000   0.150000000000000 1
ion V  0.250000000000000   0.750000000000000   0.050000000000000 1
ion V -0.250000000000000   0.250000000000000   0.050000000000000 1
ion V -0.250000000000000   0.750000000000000   0.050000000000000 1
ion V  0.000000000000000   0.000000000000000  -0.050000000000000 0
ion Cr  0.000000000000000   0.500000000000000  -0.050000000000000 0
ion Cr  0.500000000000000   0.500000000000000  -0.050000000000000 0
ion Cr  0.250000000000000   0.250000000000000  -0.150000000000000 0
ion Co  0.250000000000000   0.750000000000000  -0.150000000000000 0
ion Co -0.250000000000000   0.250000000000000  -0.150000000000000 0
ion O  0.250000000000000   0.250000000000000   0.150000000000000 1
ion O  0.250000000000000   0.750000000000000   0.150000000000000 1
ion O -0.250000000000000   0.250000000000000   0.150000000000000 1
ion O -0.250000000000000   0.750000000000000   0.150000000000000 1
ion O  0.000000000000000   0.000000000000000   0.050000000000000 1
ion O  0.500000000000000   0.000000000000000   0.050000000000000 1
ion O  0.000000000000000   0.500000000000000   0.050000000000000 1
ion O  0.500000000000000   0.500000000000000   0.050000000000000 1
ion O  0.250000000000000   0.250000000000000  -0.050000000000000 0
ion O  0.250000000000000   0.750000000000000  -0.050000000000000 0
ion O -0.250000000000000   0.250000000000000  -0.050000000000000 0
ion O -0.250000000000000   0.750000000000000  -0.050000000000000 0
ion O  0.000000000000000   0.000000000000000  -0.150000000000000 0
ion O  0.500000000000000   0.000000000000000  -0.150000000000000 0
ion O  0.000000000000000   0.500000000000000  -0.150000000000000 0
ion O  0.500000000000000   0.500000000000000  -0.150000000000000 0
ion O -0.000095572322686   0.000198307128402   0.224876729873325 1
ion-species SG15/$ID_ONCV_PBE.upf
ion-width 0
ionic-minimize  \
	dirUpdateScheme      L-BFGS \
	linminMethod         DirUpdateRecommended \
	nIterations          1000 \
	history              15 \
	knormThreshold       0.0001 \
	energyDiffThreshold  0.0001 \
	nEnergyDiff          3 \
	alphaTstart          1 \
	alphaTmin            1e-10 \
	updateTestStepSize   yes \
	alphaTreduceFactor   0.1 \
	alphaTincreaseFactor 3 \
	nAlphaAdjustMax      3 \
	wolfeEnergy          0.0001 \
	wolfeGradient        0.9 \
	fdTest               no
kpoint   0.500000000000   0.500000000000   0.500000000000  1.00000000000000
kpoint-folding 3 3 1 
latt-move-scale 1 1 1
latt-scale 1 1 1 
lattice  \
	   8.140000000000001    8.140000000000001    0.000000000000000  \
	   8.140000000000001   -8.140000000000001    0.000000000000000  \
	   0.000000000000000    0.000000000000000   40.700000000000003 
lattice-minimize  \
	dirUpdateScheme      L-BFGS \
	linminMethod         DirUpdateRecommended \
	nIterations          0 \
	history              15 \
	knormThreshold       0 \
	energyDiffThreshold  1e-06 \
	nEnergyDiff          2 \
	alphaTstart          1 \
	alphaTmin            1e-10 \
	updateTestStepSize   yes \
	alphaTreduceFactor   0.1 \
	alphaTincreaseFactor 3 \
	nAlphaAdjustMax      3 \
	wolfeEnergy          0.0001 \
	wolfeGradient        0.9 \
	fdTest               no
lcao-params -1 1e-06 0.001
pcm-variant GLSSA13
spintype z-spin
subspace-rotation-factor 1 yes
symmetries none
symmetry-threshold 0.0001


Applied RMS atom displacement 0 bohrs to make symmetries exact.

---------- Initializing the Grid ----------
R = 
[         8.14         8.14            0  ]
[         8.14        -8.14            0  ]
[            0            0         40.7  ]
unit cell volume = 5393.53
G =
[   0.385945   0.385945         -0  ]
[   0.385945  -0.385945         -0  ]
[         -0         -0   0.154378  ]
Minimum fftbox size, Smin = [  60  60  204  ]
Chosen fftbox size, S = [  60  60  210  ]

---------- Exchange Correlation functional ----------
Initialized LibXC exchange functional 'Hammer, Hansen, and Norskov'
Initialized LibXC correlation functional 'Perdew, Burke & Ernzerhof'

---------- Setting up pseudopotentials ----------
Width of ionic core gaussian charges (only for fluid interactions / plotting) set to 0

Reading pseudopotential file '/data2/jt577/jdftx_eat_withLibXC/build/pseudopotentials/SG15/Ni_ONCV_PBE.upf':
  'Ni' pseudopotential, 'PBE' functional
  Generated using ONCVPSP code by D. R. Hamann
  Author: Martin Schlipf and Francois Gygi  Date: 150915.
  18 valence electrons, 4 orbitals, 6 projectors, 1292 radial grid points, with lMax = 2
  Transforming local potential to a uniform radial grid of dG=0.02 with 1419 points.
  Transforming nonlocal projectors to a uniform radial grid of dG=0.02 with 528 points.
    3S    l: 0   occupation:  2.0   eigenvalue: -4.081355
    3P    l: 1   occupation:  6.0   eigenvalue: -2.623460
    4S    l: 0   occupation:  2.0   eigenvalue: -0.207378
    3D    l: 2   occupation:  8.0   eigenvalue: -0.326118
  Transforming atomic orbitals to a uniform radial grid of dG=0.02 with 528 points.
  WARNING: large normalization error in atomic orbital 1s (integral: 0.000006).
  Core radius for overlap checks: 1.99 bohrs.
  Reading pulay file /data2/jt577/jdftx_eat_withLibXC/build/pseudopotentials/SG15/Ni_ONCV_PBE.pulay ... using dE_dnG = -7.250568e-04 computed for Ecut = 30.

Reading pseudopotential file '/data2/jt577/jdftx_eat_withLibXC/build/pseudopotentials/SG15/V_ONCV_PBE.upf':
  'V' pseudopotential, 'PBE' functional
  Generated using ONCVPSP code by D. R. Hamann
  Author: Martin Schlipf and Francois Gygi  Date: 150915.
  13 valence electrons, 4 orbitals, 6 projectors, 1536 radial grid points, with lMax = 2
  Transforming local potential to a uniform radial grid of dG=0.02 with 1419 points.
  Transforming nonlocal projectors to a uniform radial grid of dG=0.02 with 528 points.
    3S    l: 0   occupation:  2.0   eigenvalue: -2.581105
    3P    l: 1   occupation:  6.0   eigenvalue: -1.618486
    4S    l: 0   occupation:  2.0   eigenvalue: -0.172804
    3D    l: 2   occupation:  3.0   eigenvalue: -0.189795
  Transforming atomic orbitals to a uniform radial grid of dG=0.02 with 528 points.
  Core radius for overlap checks: 1.80 bohrs.
  Reading pulay file /data2/jt577/jdftx_eat_withLibXC/build/pseudopotentials/SG15/V_ONCV_PBE.pulay ... using dE_dnG = -1.698632e-04 computed for Ecut = 30.

Reading pseudopotential file '/data2/jt577/jdftx_eat_withLibXC/build/pseudopotentials/SG15/Cr_ONCV_PBE.upf':
  'Cr' pseudopotential, 'PBE' functional
  Generated using ONCVPSP code by D. R. Hamann
  Author: Martin Schlipf and Francois Gygi  Date: 150915.
  14 valence electrons, 4 orbitals, 6 projectors, 1160 radial grid points, with lMax = 2
  Transforming local potential to a uniform radial grid of dG=0.02 with 1419 points.
  Transforming nonlocal projectors to a uniform radial grid of dG=0.02 with 528 points.
    3S    l: 0   occupation:  2.0   eigenvalue: -2.865131
    3P    l: 1   occupation:  6.0   eigenvalue: -1.810600
    4S    l: 0   occupation:  2.0   eigenvalue: -0.180525
    3D    l: 2   occupation:  4.0   eigenvalue: -0.220312
  Transforming atomic orbitals to a uniform radial grid of dG=0.02 with 528 points.
  WARNING: large normalization error in atomic orbital 1s (integral: 0.000001).
  Core radius for overlap checks: 2.10 bohrs.
  Reading pulay file /data2/jt577/jdftx_eat_withLibXC/build/pseudopotentials/SG15/Cr_ONCV_PBE.pulay ... using dE_dnG = -9.817895e-06 computed for Ecut = 30.

Reading pseudopotential file '/data2/jt577/jdftx_eat_withLibXC/build/pseudopotentials/SG15/Co_ONCV_PBE.upf':
  'Co' pseudopotential, 'PBE' functional
  Generated using ONCVPSP code by D. R. Hamann
  Author: Martin Schlipf and Francois Gygi  Date: 150915.
  17 valence electrons, 4 orbitals, 6 projectors, 1388 radial grid points, with lMax = 2
  Transforming local potential to a uniform radial grid of dG=0.02 with 1419 points.
  Transforming nonlocal projectors to a uniform radial grid of dG=0.02 with 528 points.
    3S    l: 0   occupation:  2.0   eigenvalue: -3.763303
    3P    l: 1   occupation:  6.0   eigenvalue: -2.412101
    4S    l: 0   occupation:  2.0   eigenvalue: -0.201022
    3D    l: 2   occupation:  7.0   eigenvalue: -0.301498
  Transforming atomic orbitals to a uniform radial grid of dG=0.02 with 528 points.
  Core radius for overlap checks: 1.94 bohrs.
  Reading pulay file /data2/jt577/jdftx_eat_withLibXC/build/pseudopotentials/SG15/Co_ONCV_PBE.pulay ... using dE_dnG = -9.787391e-05 computed for Ecut = 30.

Reading pseudopotential file '/data2/jt577/jdftx_eat_withLibXC/build/pseudopotentials/SG15/O_ONCV_PBE.upf':
  'O' pseudopotential, 'PBE' functional
  Generated using ONCVPSP code by D. R. Hamann
  Author: Martin Schlipf and Francois Gygi  Date: 150915.
  6 valence electrons, 2 orbitals, 4 projectors, 936 radial grid points, with lMax = 1
  Transforming local potential to a uniform radial grid of dG=0.02 with 1419 points.
  Transforming nonlocal projectors to a uniform radial grid of dG=0.02 with 528 points.
    2S    l: 0   occupation:  2.0   eigenvalue: -0.880572
    2P    l: 1   occupation:  4.0   eigenvalue: -0.331869
  Transforming atomic orbitals to a uniform radial grid of dG=0.02 with 528 points.
  Core radius for overlap checks: 1.29 bohrs.
  Reading pulay file /data2/jt577/jdftx_eat_withLibXC/build/pseudopotentials/SG15/O_ONCV_PBE.pulay ... using dE_dnG = -8.209514e-03 computed for Ecut = 30.

Initialized 5 species with 33 total atoms.

Folded 1 k-points by 3x3x1 to 9 k-points.

---------- Setting up k-points, bands, fillings ----------
No reducable k-points. 
Computing the number of bands and number of electrons
Calculating initial fillings.
nElectrons: 351.000000   nBands: 228   nStates: 18

----- Setting up reduced wavefunction bases (one per k-point) -----
average nbasis = 42312.000 , ideal nbasis = 42330.081

---------- Setting up ewald sum ----------
Optimum gaussian width for ewald sums = 3.906449 bohr.
Real space sum over 605 unit cells with max indices [  5  5  2  ]
Reciprocal space sum over 5915 terms with max indices [  6  6  17  ]

---------- Allocating electronic variables ----------
Initializing wave functions:  linear combination of atomic orbitals
Ni (M=1) pseudo-atom majority spin occupations:   s ( 1 0.5 )  p ( 3 )  d ( 5 )
Ni (M=1) pseudo-atom minority spin occupations:   s ( 1 0 )  p ( 3 )  d ( 4.5 )
V (M=1) pseudo-atom majority spin occupations:   s ( 1 0 )  p ( 3 )  d ( 3 )
V (M=1) pseudo-atom minority spin occupations:   s ( 1 0 )  p ( 3 )  d ( 2 )
Cr (M=1) pseudo-atom majority spin occupations:   s ( 1 0 )  p ( 3 )  d ( 3.5 )
Cr (M=1) pseudo-atom minority spin occupations:   s ( 1 0 )  p ( 3 )  d ( 2.5 )
Co (M=1) pseudo-atom majority spin occupations:   s ( 1 0 )  p ( 3 )  d ( 5 )
Co (M=1) pseudo-atom minority spin occupations:   s ( 1 0 )  p ( 3 )  d ( 4 )
O pseudo-atom occupations:   s ( 2 )  p ( 4 )
	FillingsUpdate:  mu: +0.486569146  nElectrons: 351.000000  magneticMoment: [ Abs: 0.21861  Tot: -0.00000 ]
LCAOMinimize: Iter:   0  F: -1918.1452989413601244  |grad|_K:  7.310e-03  alpha:  1.000e+00
	FillingsUpdate:  mu: +0.531213868  nElectrons: 351.000000  magneticMoment: [ Abs: 0.30886  Tot: -0.00000 ]
LCAOMinimize: Iter:   1  F: -1924.8764391534562037  |grad|_K:  9.879e-03  alpha:  1.018e-01  linmin: -7.705e-02  cgtest:  5.692e-01  t[s]:     99.00
	FillingsUpdate:  mu: +0.510464084  nElectrons: 351.000000  magneticMoment: [ Abs: 0.38101  Tot: +0.00000 ]
LCAOMinimize: Iter:   2  F: -1927.1667008492572677  |grad|_K:  1.069e-02  alpha:  8.888e-03  linmin: -1.415e-01  cgtest:  7.464e-01  t[s]:    135.44
LCAOMinimize: 	Wrong curvature in test step, increasing alphaT to 2.666301e-02.
	FillingsUpdate:  mu: +0.603250762  nElectrons: 351.000000  magneticMoment: [ Abs: 2.53064  Tot: -0.00000 ]
LCAOMinimize: Iter:   3  F: -1934.2416018892884040  |grad|_K:  1.651e-02  alpha: -1.502e-03  linmin: -1.044e-01  cgtest:  5.257e-01  t[s]:    167.52
LCAOMinimize: 	Step increased F by 2.393623e+02, reducing alpha to 3.909001e-02.
LCAOMinimize: 	Step increased F by 2.602970e+01, reducing alpha to 3.909001e-03.
	FillingsUpdate:  mu: +0.962940393  nElectrons: 351.000000  magneticMoment: [ Abs: 5.99799  Tot: -0.00000 ]
LCAOMinimize: Iter:   4  F: -1941.7742800968708252  |grad|_K:  2.882e-02  alpha:  3.909e-03  linmin:  6.780e-02  cgtest:  2.558e-01  t[s]:    253.02
LCAOMinimize: 	Bad step direction: g.d > 0.
LCAOMinimize: 	Undoing step.
LCAOMinimize: 	Step failed: resetting search direction.
	FillingsUpdate:  mu: +0.962940393  nElectrons: 351.000000  magneticMoment: [ Abs: 5.99799  Tot: -0.00000 ]
LCAOMinimize: Iter:   5  F: -1941.7742800968708252  |grad|_K:  2.882e-02  alpha:  0.000e+00
	FillingsUpdate:  mu: +0.510146932  nElectrons: 351.000000  magneticMoment: [ Abs: 6.17393  Tot: +0.00000 ]
LCAOMinimize: Iter:   6  F: -1945.9822275328017440  |grad|_K:  1.377e-02  alpha:  1.095e-02  linmin: -7.882e-02  cgtest:  8.938e-01  t[s]:    313.35
LCAOMinimize: Encountered beta<0, resetting CG.
LCAOMinimize: 	Wrong curvature in test step, increasing alphaT to 3.283779e-02.
	FillingsUpdate:  mu: +0.406318523  nElectrons: 351.000000  magneticMoment: [ Abs: 6.22836  Tot: -0.00000 ]
LCAOMinimize: Iter:   7  F: -1948.3191519183747005  |grad|_K:  1.527e-02  alpha: -2.837e-02  linmin: -9.380e-02  cgtest:  7.509e-01  t[s]:    345.09
LCAOMinimize: 	Step increased F by 2.747504e+02, reducing alpha to 1.739423e-02.
	FillingsUpdate:  mu: -0.019166122  nElectrons: 351.000000  magneticMoment: [ Abs: 6.10780  Tot: +0.00000 ]
LCAOMinimize: Iter:   8  F: -1951.9538548452148916  |grad|_K:  1.374e-02  alpha:  1.739e-02  linmin: -6.394e-02  cgtest:  2.210e-01  t[s]:    405.92
LCAOMinimize: 	Predicted alpha/alphaT>3.000000, increasing alphaT to 5.218270e-02.
	FillingsUpdate:  mu: -0.099172168  nElectrons: 351.000000  magneticMoment: [ Abs: 2.52742  Tot: +0.00000 ]
LCAOMinimize: Iter:   9  F: -1958.6030757848313897  |grad|_K:  1.183e-02  alpha:  4.583e-02  linmin: -1.652e-02  cgtest: -4.043e-01  t[s]:    450.36
	FillingsUpdate:  mu: -0.096202243  nElectrons: 351.000000  magneticMoment: [ Abs: 2.47101  Tot: -0.00000 ]
LCAOMinimize: Iter:  10  F: -1958.9199416899446078  |grad|_K:  1.175e-02  alpha:  1.904e-03  linmin: -4.221e-02  cgtest:  9.897e-01  t[s]:    485.14
LCAOMinimize: 	Predicted alpha/alphaT>3.000000, increasing alphaT to 5.712112e-03.
LCAOMinimize: 	Predicted alpha/alphaT>3.000000, increasing alphaT to 1.713634e-02.
LCAOMinimize: 	Predicted alpha/alphaT>3.000000, increasing alphaT to 5.140901e-02.
LCAOMinimize: 	Step increased F by 9.275682e+01, reducing alpha to 1.419398e-02.
	FillingsUpdate:  mu: -0.039654296  nElectrons: 351.000000  magneticMoment: [ Abs: 3.03756  Tot: -0.00000 ]
LCAOMinimize: Iter:  11  F: -1960.6819921315827742  |grad|_K:  1.041e-02  alpha:  1.419e-02  linmin: -1.162e-01  cgtest:  9.062e-01  t[s]:    563.86
LCAOMinimize: Encountered beta<0, resetting CG.
LCAOMinimize: 	Predicted alpha/alphaT>3.000000, increasing alphaT to 4.258195e-02.
LCAOMinimize: 	Step increased F by 3.723926e+00, reducing alpha to 8.205400e-03.
	FillingsUpdate:  mu: +0.008096979  nElectrons: 351.000000  magneticMoment: [ Abs: 3.44445  Tot: +0.00000 ]
LCAOMinimize: Iter:  12  F: -1961.5080651257114823  |grad|_K:  9.744e-03  alpha:  8.205e-03  linmin: -1.197e-01  cgtest:  9.490e-01  t[s]:    636.04
LCAOMinimize: Encountered beta<0, resetting CG.
LCAOMinimize: 	Predicted alpha/alphaT>3.000000, increasing alphaT to 2.461620e-02.
LCAOMinimize: 	Predicted alpha/alphaT>3.000000, increasing alphaT to 7.384860e-02.
	FillingsUpdate:  mu: -0.066477336  nElectrons: 351.000000  magneticMoment: [ Abs: 6.12349  Tot: -0.00000 ]
LCAOMinimize: Iter:  13  F: -1964.9684279895623149  |grad|_K:  1.080e-02  alpha:  3.879e-02  linmin: -4.365e-02  cgtest:  4.188e-01  t[s]:    697.35
	FillingsUpdate:  mu: +0.113445745  nElectrons: 351.000000  magneticMoment: [ Abs: 6.90065  Tot: -0.00000 ]
LCAOMinimize: Iter:  14  F: -1966.5639350775902585  |grad|_K:  7.593e-03  alpha:  1.073e-02  linmin: -5.376e-02  cgtest:  3.411e-01  t[s]:    738.98
LCAOMinimize: 	Predicted alpha/alphaT>3.000000, increasing alphaT to 3.217883e-02.
LCAOMinimize: 	Step increased F by 1.008781e+00, reducing alpha to 6.648438e-03.
	FillingsUpdate:  mu: +0.119011734  nElectrons: 351.000000  magneticMoment: [ Abs: 7.04681  Tot: +0.00000 ]
LCAOMinimize: Iter:  15  F: -1966.9943668939279178  |grad|_K:  7.215e-03  alpha:  6.648e-03  linmin: -1.180e-01  cgtest:  9.711e-01  t[s]:    821.53
LCAOMinimize: Encountered beta<0, resetting CG.
LCAOMinimize: 	Predicted alpha/alphaT>3.000000, increasing alphaT to 1.994531e-02.
	FillingsUpdate:  mu: -0.133228679  nElectrons: 351.000000  magneticMoment: [ Abs: 7.18895  Tot: -0.00000 ]
LCAOMinimize: Iter:  16  F: -1968.7049011543369943  |grad|_K:  8.146e-03  alpha:  5.945e-02  linmin: -1.734e-02  cgtest: -6.040e-02  t[s]:    867.07
	FillingsUpdate:  mu: -0.054654338  nElectrons: 351.000000  magneticMoment: [ Abs: 7.57716  Tot: +0.00000 ]
LCAOMinimize: Iter:  17  F: -1969.3148432496143414  |grad|_K:  4.767e-03  alpha:  1.072e-02  linmin: -4.968e-02  cgtest:  5.338e-01  t[s]:    901.65
	FillingsUpdate:  mu: +0.032855277  nElectrons: 351.000000  magneticMoment: [ Abs: 8.79381  Tot: -0.00000 ]
LCAOMinimize: Iter:  18  F: -1969.5798409546453058  |grad|_K:  3.006e-03  alpha:  2.555e-02  linmin:  2.263e-02  cgtest: -1.627e-01  t[s]:    935.68
	FillingsUpdate:  mu: +0.075036185  nElectrons: 351.000000  magneticMoment: [ Abs: 9.28265  Tot: -0.00000 ]
LCAOMinimize: Iter:  19  F: -1969.7822105527379790  |grad|_K:  4.364e-03  alpha:  6.108e-02  linmin:  2.802e-03  cgtest:  2.727e-01  t[s]:    969.62
	FillingsUpdate:  mu: +0.006342329  nElectrons: 351.000000  magneticMoment: [ Abs: 9.51562  Tot: -0.00000 ]
LCAOMinimize: Iter:  20  F: -1969.8892987473652738  |grad|_K:  2.128e-03  alpha:  1.163e-02  linmin: -6.515e-03  cgtest:  5.434e-01  t[s]:   1003.62
LCAOMinimize: Encountered beta<0, resetting CG.
	FillingsUpdate:  mu: -0.021438233  nElectrons: 351.000000  magneticMoment: [ Abs: 9.38000  Tot: +0.00000 ]
LCAOMinimize: Iter:  21  F: -1969.9668983737292365  |grad|_K:  1.340e-03  alpha:  3.456e-02  linmin: -9.855e-03  cgtest:  1.786e-01  t[s]:   1037.19
	FillingsUpdate:  mu: +0.010989465  nElectrons: 351.000000  magneticMoment: [ Abs: 9.86446  Tot: -0.00000 ]
LCAOMinimize: Iter:  22  F: -1970.0156281131296510  |grad|_K:  1.211e-03  alpha:  5.373e-02  linmin: -4.477e-04  cgtest: -1.408e-01  t[s]:   1070.91
	FillingsUpdate:  mu: +0.008757894  nElectrons: 351.000000  magneticMoment: [ Abs: 10.38425  Tot: +0.00000 ]
LCAOMinimize: Iter:  23  F: -1970.0474640682357403  |grad|_K:  1.617e-03  alpha:  4.687e-02  linmin: -9.658e-04  cgtest:  1.763e-01  t[s]:   1104.96
	FillingsUpdate:  mu: -0.000318520  nElectrons: 351.000000  magneticMoment: [ Abs: 10.75739  Tot: -0.00000 ]
LCAOMinimize: Iter:  24  F: -1970.0826589759928993  |grad|_K:  1.055e-03  alpha:  3.006e-02  linmin:  1.632e-04  cgtest: -1.362e-01  t[s]:   1139.40
	FillingsUpdate:  mu: +0.012192887  nElectrons: 351.000000  magneticMoment: [ Abs: 11.60686  Tot: -0.00000 ]
LCAOMinimize: Iter:  25  F: -1970.1189146206031637  |grad|_K:  9.539e-04  alpha:  7.119e-02  linmin:  1.248e-03  cgtest:  1.308e-01  t[s]:   1173.55
	FillingsUpdate:  mu: +0.021696070  nElectrons: 351.000000  magneticMoment: [ Abs: 12.18234  Tot: -0.00000 ]
LCAOMinimize: Iter:  26  F: -1970.1520829480443808  |grad|_K:  1.120e-03  alpha:  8.042e-02  linmin: -1.043e-03  cgtest:  1.072e-01  t[s]:   1207.99
	FillingsUpdate:  mu: +0.024430624  nElectrons: 351.000000  magneticMoment: [ Abs: 12.78717  Tot: +0.00000 ]
LCAOMinimize: Iter:  27  F: -1970.1784536090551683  |grad|_K:  1.013e-03  alpha:  3.932e-02  linmin:  2.693e-04  cgtest: -1.015e-01  t[s]:   1241.70
	FillingsUpdate:  mu: +0.022820857  nElectrons: 351.000000  magneticMoment: [ Abs: 13.29452  Tot: -0.00000 ]
LCAOMinimize: Iter:  28  F: -1970.2036664803017629  |grad|_K:  5.513e-04  alpha:  5.178e-02  linmin: -2.874e-03  cgtest:  5.268e-01  t[s]:   1275.84
	FillingsUpdate:  mu: +0.018979889  nElectrons: 351.000000  magneticMoment: [ Abs: 13.39722  Tot: +0.00000 ]
LCAOMinimize: Iter:  29  F: -1970.2144004561366728  |grad|_K:  4.997e-04  alpha:  7.381e-02  linmin: -4.346e-03  cgtest:  2.296e-02  t[s]:   1309.61
	FillingsUpdate:  mu: +0.011704242  nElectrons: 351.000000  magneticMoment: [ Abs: 13.56580  Tot: +0.00000 ]
LCAOMinimize: Iter:  30  F: -1970.2183214642236635  |grad|_K:  3.259e-04  alpha:  3.334e-02  linmin:  1.872e-03  cgtest: -2.074e-02  t[s]:   1343.62
LCAOMinimize: None of the convergence criteria satisfied after 30 iterations.


---- Citations for features of the code used in this run ----

   Software package:
      R. Sundararaman, K. Letchworth-Weaver, K.A. Schwarz, D. Gunceler, Y. Ozhabes and T.A. Arias, 'JDFTx: software for joint density-functional theory', SoftwareX 6, 278 (2017)

   Simplified rotationally-invariant DFT+U:
      S. L. Dudarev et al., Phys. Rev. B 57, 1505 (1998)

   LibXC library of exchange-correlation functions:
      M. A. L. Marques, M. J. T. Oliveira and T. Burnus, Comput. Phys. Commun. 183, 2272 (2012)

   Hammer, Hansen, and Norskov exchange functional:
      B. Hammer, L. B. Hansen, and J. K. Nørskov, Phys. Rev. B 59, 7413 (1999)

   Perdew, Burke & Ernzerhof correlation functional:
      J. P. Perdew, K. Burke, and M. Ernzerhof, Phys. Rev. Lett. 77, 3865 (1996)

   Pseudopotentials:
      M Schlipf and F Gygi, Comput. Phys. Commun. 196, 36 (2015)

   Total energy minimization with Auxiliary Hamiltonian:
      C. Freysoldt, S. Boeck, and J. Neugebauer, Phys. Rev. B 79, 241103(R) (2009)

This list may not be complete. Please suggest additional citations or
report any other bugs at https://github.com/shankar1729/jdftx/issues

Initialization completed successfully at t[s]:   1355.53


-------- Electronic minimization -----------
	FillingsUpdate:  mu: +0.011704243  nElectrons: 351.000000  magneticMoment: [ Abs: 13.56580  Tot: +0.00000 ]
ElecMinimize: Iter:   0  F: -1970.218321464227301  |grad|_K:  1.058e-03  alpha:  1.000e+00
	FillingsUpdate:  mu: +0.486904264  nElectrons: 351.000000  magneticMoment: [ Abs: 14.22290  Tot: +0.00000 ]
	SubspaceRotationAdjust: set factor to 0.999
ElecMinimize: Iter:   1  F: -2024.002803769206139  |grad|_K:  1.254e-03  alpha:  4.828e-01  linmin:  4.489e-02  t[s]:   1463.74
ElecMinimize: 	Step increased F by 6.286795e+00, reducing alpha to 1.538216e-02.
	FillingsUpdate:  mu: +0.440535822  nElectrons: 351.000000  magneticMoment: [ Abs: 14.38955  Tot: +0.00000 ]
	SubspaceRotationAdjust: set factor to 1.12
ElecMinimize: Iter:   2  F: -2027.406720308321837  |grad|_K:  8.564e-04  alpha:  1.538e-02  linmin: -3.273e-03  t[s]:   1584.79
ElecMinimize: 	Predicted alpha/alphaT>3.000000, increasing alphaT to 4.614649e-02.
	FillingsUpdate:  mu: +1.181658281  nElectrons: 351.000000  magneticMoment: [ Abs: 16.31713  Tot: -0.00000 ]
	SubspaceRotationAdjust: set factor to 0.583
ElecMinimize: Iter:   3  F: -2033.894894534424111  |grad|_K:  3.158e-03  alpha:  1.059e-01  linmin:  5.891e-03  t[s]:   1680.22
ElecMinimize: 	Bad step direction: g.d > 0.
ElecMinimize: 	Undoing step.
ElecMinimize: 	Step failed: resetting search direction.
	FillingsUpdate:  mu: +1.181658281  nElectrons: 351.000000  magneticMoment: [ Abs: 16.31713  Tot: -0.00000 ]
	SubspaceRotationAdjust: set factor to 0.314
ElecMinimize: Iter:   4  F: -2033.894894534423884  |grad|_K:  2.318e-03  alpha:  0.000e+00
	FillingsUpdate:  mu: +0.819270829  nElectrons: 351.000000  magneticMoment: [ Abs: 16.02577  Tot: +0.00000 ]
	SubspaceRotationAdjust: set factor to 0.127
	SubspaceRotationAdjust: resetting CG because factor has changed by 0.12653
ElecMinimize: 	State modified externally: resetting search direction.
ElecMinimize: Iter:   5  F: -2050.071452285080795  |grad|_K:  6.289e-04  alpha:  3.510e-02
ElecMinimize: 	Predicted alpha/alphaT>3.000000, increasing alphaT to 1.053071e-01.
	FillingsUpdate:  mu: +0.506981984  nElectrons: 351.000000  magneticMoment: [ Abs: 16.77873  Tot: -0.00000 ]
	SubspaceRotationAdjust: set factor to 0.108
ElecMinimize: Iter:   6  F: -2062.670746321320621  |grad|_K:  4.061e-04  alpha:  1.933e-01  linmin:  1.376e-02  t[s]:   1937.25
	FillingsUpdate:  mu: +0.160159500  nElectrons: 351.000000  magneticMoment: [ Abs: 16.46926  Tot: -0.00000 ]
	SubspaceRotationAdjust: set factor to 0.174
ElecMinimize: Iter:   7  F: -2067.282314687633516  |grad|_K:  1.871e-04  alpha:  2.024e-01  linmin:  6.558e-04  t[s]:   2010.87
	FillingsUpdate:  mu: +0.136605800  nElectrons: 351.000000  magneticMoment: [ Abs: 16.70352  Tot: +0.00000 ]
	SubspaceRotationAdjust: set factor to 0.132
ElecMinimize: Iter:   8  F: -2068.613714991018696  |grad|_K:  1.432e-04  alpha:  2.233e-01  linmin: -3.240e-04  t[s]:   2083.98
	FillingsUpdate:  mu: +0.174689429  nElectrons: 351.000000  magneticMoment: [ Abs: 17.24979  Tot: +0.00000 ]
	SubspaceRotationAdjust: set factor to 0.156
ElecMinimize: Iter:   9  F: -2069.306270712814694  |grad|_K:  9.558e-05  alpha:  1.915e-01  linmin: -3.889e-04  t[s]:   2158.83
	FillingsUpdate:  mu: +0.161912097  nElectrons: 351.000000  magneticMoment: [ Abs: 18.04595  Tot: +0.00000 ]
	SubspaceRotationAdjust: set factor to 0.162
ElecMinimize: Iter:  10  F: -2069.919898463281243  |grad|_K:  8.510e-05  alpha:  3.498e-01  linmin: -4.633e-04  t[s]:   2234.44
	FillingsUpdate:  mu: +0.115677774  nElectrons: 351.000000  magneticMoment: [ Abs: 18.66776  Tot: +0.00000 ]
	SubspaceRotationAdjust: set factor to 0.121
ElecMinimize: Iter:  11  F: -2070.242564094721729  |grad|_K:  8.944e-05  alpha:  2.188e-01  linmin: -9.369e-05  t[s]:   2308.96
	FillingsUpdate:  mu: +0.134733777  nElectrons: 351.000000  magneticMoment: [ Abs: 20.18593  Tot: -0.00000 ]
	SubspaceRotationAdjust: set factor to 0.112
ElecMinimize: Iter:  12  F: -2070.668102028815611  |grad|_K:  8.223e-05  alpha:  3.027e-01  linmin:  5.013e-05  t[s]:   2382.96
ElecMinimize: 	Step increased F by 1.695656e-01, reducing alpha to 5.938300e-02.
	FillingsUpdate:  mu: +0.126055119  nElectrons: 351.000000  magneticMoment: [ Abs: 20.52689  Tot: -0.00000 ]
	SubspaceRotationAdjust: set factor to 0.148
ElecMinimize: Iter:  13  F: -2070.788813745536572  |grad|_K:  7.465e-05  alpha:  5.938e-02  linmin: -1.078e-03  t[s]:   2505.01
ElecMinimize: 	Predicted alpha/alphaT>3.000000, increasing alphaT to 1.781490e-01.
	FillingsUpdate:  mu: +0.102394090  nElectrons: 351.000000  magneticMoment: [ Abs: 22.16243  Tot: -0.00000 ]
	SubspaceRotationAdjust: set factor to 0.153
ElecMinimize: Iter:  14  F: -2071.279535450425101  |grad|_K:  8.099e-05  alpha:  2.635e-01  linmin: -8.397e-05  t[s]:   2600.08
	FillingsUpdate:  mu: +0.127948759  nElectrons: 351.000000  magneticMoment: [ Abs: 23.40150  Tot: +0.00000 ]
	SubspaceRotationAdjust: set factor to 0.185
ElecMinimize: Iter:  15  F: -2071.483893019481002  |grad|_K:  9.430e-05  alpha:  1.173e-01  linmin: -2.847e-04  t[s]:   2673.15
	FillingsUpdate:  mu: +0.145173057  nElectrons: 351.000000  magneticMoment: [ Abs: 24.40680  Tot: -0.00000 ]
	SubspaceRotationAdjust: set factor to 0.197
ElecMinimize: Iter:  16  F: -2071.676259226227103  |grad|_K:  1.021e-04  alpha:  6.996e-02  linmin: -1.708e-04  t[s]:   2747.07
	FillingsUpdate:  mu: +0.141795288  nElectrons: 351.000000  magneticMoment: [ Abs: 24.74112  Tot: +0.00000 ]
	SubspaceRotationAdjust: set factor to 0.177
ElecMinimize: Iter:  17  F: -2071.745042503821878  |grad|_K:  1.078e-04  alpha:  2.500e-02  linmin: -1.755e-04  t[s]:   2821.02
	FillingsUpdate:  mu: +0.154526968  nElectrons: 351.000000  magneticMoment: [ Abs: 25.03946  Tot: +0.00000 ]
	SubspaceRotationAdjust: set factor to 0.152
ElecMinimize: Iter:  18  F: -2071.801508687803562  |grad|_K:  1.079e-04  alpha:  2.226e-02  linmin:  4.516e-05  t[s]:   2893.86
	FillingsUpdate:  mu: +0.152790448  nElectrons: 351.000000  magneticMoment: [ Abs: 25.20064  Tot: +0.00000 ]
	SubspaceRotationAdjust: set factor to 0.132
ElecMinimize: Iter:  19  F: -2071.824619173861720  |grad|_K:  1.064e-04  alpha:  1.110e-02  linmin: -3.421e-05  t[s]:   2969.77
	FillingsUpdate:  mu: +0.147931517  nElectrons: 351.000000  magneticMoment: [ Abs: 25.38824  Tot: +0.00000 ]
	SubspaceRotationAdjust: set factor to 0.113
ElecMinimize: Iter:  20  F: -2071.848944626914090  |grad|_K:  1.072e-04  alpha:  1.183e-02  linmin:  2.731e-05  t[s]:   3045.19
	FillingsUpdate:  mu: +0.134253573  nElectrons: 351.000000  magneticMoment: [ Abs: 25.55962  Tot: +0.00000 ]
	SubspaceRotationAdjust: set factor to 0.0964
ElecMinimize: Iter:  21  F: -2071.868160278571850  |grad|_K:  1.077e-04  alpha:  9.891e-03  linmin:  8.175e-06  t[s]:   3120.53
	FillingsUpdate:  mu: +0.145227460  nElectrons: 351.000000  magneticMoment: [ Abs: 25.73776  Tot: +0.00000 ]
	SubspaceRotationAdjust: set factor to 0.0815
ElecMinimize: Iter:  22  F: -2071.887480357334880  |grad|_K:  1.078e-04  alpha:  9.666e-03  linmin:  2.254e-05  t[s]:   3195.46
	FillingsUpdate:  mu: +0.163431171  nElectrons: 351.000000  magneticMoment: [ Abs: 25.89465  Tot: +0.00000 ]
	SubspaceRotationAdjust: set factor to 0.069
ElecMinimize: Iter:  23  F: -2071.903688510973097  |grad|_K:  1.071e-04  alpha:  8.162e-03  linmin:  1.654e-05  t[s]:   3269.69
	FillingsUpdate:  mu: +0.177830965  nElectrons: 351.000000  magneticMoment: [ Abs: 26.04135  Tot: +0.00000 ]
	SubspaceRotationAdjust: set factor to 0.0584
ElecMinimize: Iter:  24  F: -2071.918179664352465  |grad|_K:  1.062e-04  alpha:  7.398e-03  linmin:  1.569e-05  t[s]:   3342.98
	FillingsUpdate:  mu: +0.189459502  nElectrons: 351.000000  magneticMoment: [ Abs: 26.18952  Tot: +0.00000 ]
	SubspaceRotationAdjust: set factor to 0.0495
ElecMinimize: Iter:  25  F: -2071.932014747087578  |grad|_K:  1.048e-04  alpha:  7.218e-03  linmin:  8.512e-06  t[s]:   3417.30
	FillingsUpdate:  mu: +0.197733071  nElectrons: 351.000000  magneticMoment: [ Abs: 26.35342  Tot: -0.00000 ]
	SubspaceRotationAdjust: set factor to 0.0423
ElecMinimize: Iter:  26  F: -2071.946716223909789  |grad|_K:  1.026e-04  alpha:  7.793e-03  linmin: -3.773e-07  t[s]:   3493.77
	FillingsUpdate:  mu: +0.200745527  nElectrons: 351.000000  magneticMoment: [ Abs: 26.54422  Tot: -0.00000 ]
	SubspaceRotationAdjust: set factor to 0.0368
ElecMinimize: Iter:  27  F: -2071.963326042096469  |grad|_K:  9.914e-05  alpha:  9.031e-03  linmin: -9.007e-06  t[s]:   3567.66
	FillingsUpdate:  mu: +0.206775184  nElectrons: 351.000000  magneticMoment: [ Abs: 26.76815  Tot: +0.00000 ]
	SubspaceRotationAdjust: set factor to 0.0333
ElecMinimize: Iter:  28  F: -2071.982273733477541  |grad|_K:  9.450e-05  alpha:  1.084e-02  linmin: -1.365e-05  t[s]:   3642.41
	FillingsUpdate:  mu: +0.200236202  nElectrons: 351.000000  magneticMoment: [ Abs: 27.01970  Tot: +0.00000 ]
	SubspaceRotationAdjust: set factor to 0.0321
ElecMinimize: Iter:  29  F: -2072.002649913533787  |grad|_K:  8.929e-05  alpha:  1.276e-02  linmin: -7.628e-06  t[s]:   3718.08
	FillingsUpdate:  mu: +0.190359262  nElectrons: 351.000000  magneticMoment: [ Abs: 27.26932  Tot: +0.00000 ]
	SubspaceRotationAdjust: set factor to 0.0332
ElecMinimize: Iter:  30  F: -2072.021629658618167  |grad|_K:  8.496e-05  alpha:  1.351e-02  linmin:  7.266e-06  t[s]:   3792.20
	FillingsUpdate:  mu: +0.175941674  nElectrons: 351.000000  magneticMoment: [ Abs: 27.48791  Tot: +0.00000 ]
	SubspaceRotationAdjust: set factor to 0.0359
ElecMinimize: Iter:  31  F: -2072.037314740047350  |grad|_K:  8.232e-05  alpha:  1.260e-02  linmin:  1.036e-05  t[s]:   3866.43
	FillingsUpdate:  mu: +0.174598579  nElectrons: 351.000000  magneticMoment: [ Abs: 27.67714  Tot: -0.00000 ]
	SubspaceRotationAdjust: set factor to 0.0391
ElecMinimize: Iter:  32  F: -2072.050725607934055  |grad|_K:  8.073e-05  alpha:  1.153e-02  linmin:  9.166e-06  t[s]:   3941.14
	FillingsUpdate:  mu: +0.157866488  nElectrons: 351.000000  magneticMoment: [ Abs: 27.84107  Tot: +0.00000 ]
	SubspaceRotationAdjust: set factor to 0.0419
ElecMinimize: Iter:  33  F: -2072.062632730073801  |grad|_K:  7.959e-05  alpha:  1.063e-02  linmin:  8.995e-06  t[s]:   4015.73
	FillingsUpdate:  mu: +0.148304851  nElectrons: 351.000000  magneticMoment: [ Abs: 27.98199  Tot: -0.00000 ]
	SubspaceRotationAdjust: set factor to 0.0433
ElecMinimize: Iter:  34  F: -2072.073334082957899  |grad|_K:  7.869e-05  alpha:  9.817e-03  linmin:  1.026e-05  t[s]:   4091.04
	FillingsUpdate:  mu: +0.140298624  nElectrons: 351.000000  magneticMoment: [ Abs: 28.10300  Tot: +0.00000 ]
	SubspaceRotationAdjust: set factor to 0.0427
ElecMinimize: Iter:  35  F: -2072.083016590244824  |grad|_K:  7.797e-05  alpha:  9.097e-03  linmin:  1.173e-05  t[s]:   4166.31
	FillingsUpdate:  mu: +0.149197389  nElectrons: 351.000000  magneticMoment: [ Abs: 28.20962  Tot: +0.00000 ]
	SubspaceRotationAdjust: set factor to 0.0405
ElecMinimize: Iter:  36  F: -2072.091935621762786  |grad|_K:  7.735e-05  alpha:  8.550e-03  linmin:  1.244e-05  t[s]:   4241.19
	FillingsUpdate:  mu: +0.141270129  nElectrons: 351.000000  magneticMoment: [ Abs: 28.30782  Tot: -0.00000 ]
	SubspaceRotationAdjust: set factor to 0.0372
ElecMinimize: Iter:  37  F: -2072.100390981976034  |grad|_K:  7.666e-05  alpha:  8.248e-03  linmin:  1.231e-05  t[s]:   4315.70
	FillingsUpdate:  mu: +0.131357987  nElectrons: 351.000000  magneticMoment: [ Abs: 28.40247  Tot: +0.00000 ]
	SubspaceRotationAdjust: set factor to 0.0336
ElecMinimize: Iter:  38  F: -2072.108632888738157  |grad|_K:  7.578e-05  alpha:  8.189e-03  linmin:  1.166e-05  t[s]:   4390.26
	FillingsUpdate:  mu: +0.129139883  nElectrons: 351.000000  magneticMoment: [ Abs: 28.49575  Tot: +0.00000 ]
	SubspaceRotationAdjust: set factor to 0.0304
ElecMinimize: Iter:  39  F: -2072.116806027006078  |grad|_K:  7.473e-05  alpha:  8.306e-03  linmin:  1.105e-05  t[s]:   4464.93
	FillingsUpdate:  mu: +0.138355160  nElectrons: 351.000000  magneticMoment: [ Abs: 28.58745  Tot: +0.00000 ]
	SubspaceRotationAdjust: set factor to 0.0281
ElecMinimize: Iter:  40  F: -2072.124909898894202  |grad|_K:  7.364e-05  alpha:  8.464e-03  linmin:  1.135e-05  t[s]:   4539.17
	FillingsUpdate:  mu: +0.143011300  nElectrons: 351.000000  magneticMoment: [ Abs: 28.67440  Tot: +0.00000 ]
	SubspaceRotationAdjust: set factor to 0.027
ElecMinimize: Iter:  41  F: -2072.132770106310090  |grad|_K:  7.273e-05  alpha:  8.457e-03  linmin:  1.261e-05  t[s]:   4613.48
	FillingsUpdate:  mu: +0.145844932  nElectrons: 351.000000  magneticMoment: [ Abs: 28.75272  Tot: +0.00000 ]
	SubspaceRotationAdjust: set factor to 0.027
ElecMinimize: Iter:  42  F: -2072.140145758001381  |grad|_K:  7.216e-05  alpha:  8.146e-03  linmin:  1.241e-05  t[s]:   4687.31
	FillingsUpdate:  mu: +0.147630120  nElectrons: 351.000000  magneticMoment: [ Abs: 28.82082  Tot: +0.00000 ]
	SubspaceRotationAdjust: set factor to 0.028
ElecMinimize: Iter:  43  F: -2072.147003263205988  |grad|_K:  7.199e-05  alpha:  7.691e-03  linmin:  9.110e-06  t[s]:   4761.22
	FillingsUpdate:  mu: +0.147892638  nElectrons: 351.000000  magneticMoment: [ Abs: 28.88114  Tot: +0.00000 ]
	SubspaceRotationAdjust: set factor to 0.03
ElecMinimize: Iter:  44  F: -2072.153559872777350  |grad|_K:  7.205e-05  alpha:  7.362e-03  linmin:  4.023e-06  t[s]:   4834.59
	FillingsUpdate:  mu: +0.145218553  nElectrons: 351.000000  magneticMoment: [ Abs: 28.93645  Tot: -0.00000 ]
	SubspaceRotationAdjust: set factor to 0.033
ElecMinimize: Iter:  45  F: -2072.160064972458713  |grad|_K:  7.215e-05  alpha:  7.240e-03  linmin: -6.258e-07  t[s]:   4907.82
	FillingsUpdate:  mu: +0.139243408  nElectrons: 351.000000  magneticMoment: [ Abs: 28.98758  Tot: -0.00000 ]
	SubspaceRotationAdjust: set factor to 0.0374
ElecMinimize: Iter:  46  F: -2072.166616222766152  |grad|_K:  7.219e-05  alpha:  7.221e-03  linmin: -2.313e-06  t[s]:   4981.13
	FillingsUpdate:  mu: +0.132548691  nElectrons: 351.000000  magneticMoment: [ Abs: 29.03441  Tot: +0.00000 ]
	SubspaceRotationAdjust: set factor to 0.0434
ElecMinimize: Iter:  47  F: -2072.173082242789860  |grad|_K:  7.224e-05  alpha:  7.102e-03  linmin: -4.250e-07  t[s]:   5054.65
	FillingsUpdate:  mu: +0.124885796  nElectrons: 351.000000  magneticMoment: [ Abs: 29.07555  Tot: +0.00000 ]
	SubspaceRotationAdjust: set factor to 0.0516
ElecMinimize: Iter:  48  F: -2072.179207473675433  |grad|_K:  7.241e-05  alpha:  6.737e-03  linmin:  2.707e-06  t[s]:   5127.81
	FillingsUpdate:  mu: +0.115531440  nElectrons: 351.000000  magneticMoment: [ Abs: 29.11017  Tot: -0.00000 ]
	SubspaceRotationAdjust: set factor to 0.062
ElecMinimize: Iter:  49  F: -2072.184812273663738  |grad|_K:  7.280e-05  alpha:  6.158e-03  linmin:  4.778e-06  t[s]:   5200.95
	FillingsUpdate:  mu: +0.102293777  nElectrons: 351.000000  magneticMoment: [ Abs: 29.13825  Tot: -0.00000 ]
	SubspaceRotationAdjust: set factor to 0.0746
ElecMinimize: Iter:  50  F: -2072.189856958978908  |grad|_K:  7.345e-05  alpha:  5.493e-03  linmin:  5.752e-06  t[s]:   5273.68
	FillingsUpdate:  mu: +0.091714144  nElectrons: 351.000000  magneticMoment: [ Abs: 29.16062  Tot: -0.00000 ]
	SubspaceRotationAdjust: set factor to 0.0887
ElecMinimize: Iter:  51  F: -2072.194372268064399  |grad|_K:  7.438e-05  alpha:  4.832e-03  linmin:  6.424e-06  t[s]:   5348.00
	FillingsUpdate:  mu: +0.093602390  nElectrons: 351.000000  magneticMoment: [ Abs: 29.17803  Tot: +0.00000 ]
	SubspaceRotationAdjust: set factor to 0.103
ElecMinimize: Iter:  52  F: -2072.198399503806286  |grad|_K:  7.555e-05  alpha:  4.202e-03  linmin:  7.408e-06  t[s]:   5422.98
	FillingsUpdate:  mu: +0.095779579  nElectrons: 351.000000  magneticMoment: [ Abs: 29.19141  Tot: +0.00000 ]
	SubspaceRotationAdjust: set factor to 0.116
ElecMinimize: Iter:  53  F: -2072.201954772895988  |grad|_K:  7.682e-05  alpha:  3.591e-03  linmin:  9.218e-06  t[s]:   5498.02
	FillingsUpdate:  mu: +0.096906044  nElectrons: 351.000000  magneticMoment: [ Abs: 29.20155  Tot: +0.00000 ]
	SubspaceRotationAdjust: set factor to 0.128
ElecMinimize: Iter:  54  F: -2072.205000217316865  |grad|_K:  7.794e-05  alpha:  2.967e-03  linmin:  1.135e-05  t[s]:   5571.34
	FillingsUpdate:  mu: +0.095831621  nElectrons: 351.000000  magneticMoment: [ Abs: 29.20937  Tot: -0.00000 ]
	SubspaceRotationAdjust: set factor to 0.137
ElecMinimize: Iter:  55  F: -2072.207480575753380  |grad|_K:  7.869e-05  alpha:  2.335e-03  linmin:  1.135e-05  t[s]:   5645.22
	FillingsUpdate:  mu: +0.092198368  nElectrons: 351.000000  magneticMoment: [ Abs: 29.21571  Tot: +0.00000 ]
	SubspaceRotationAdjust: set factor to 0.145
ElecMinimize: Iter:  56  F: -2072.209429785168595  |grad|_K:  7.902e-05  alpha:  1.794e-03  linmin:  1.041e-05  t[s]:   5718.14
	FillingsUpdate:  mu: +0.089084523  nElectrons: 351.000000  magneticMoment: [ Abs: 29.22129  Tot: +0.00000 ]
	SubspaceRotationAdjust: set factor to 0.153
ElecMinimize: Iter:  57  F: -2072.210957176960619  |grad|_K:  7.907e-05  alpha:  1.396e-03  linmin:  1.065e-05  t[s]:   5790.96
	FillingsUpdate:  mu: +0.085904325  nElectrons: 351.000000  magneticMoment: [ Abs: 29.22646  Tot: -0.00000 ]
	SubspaceRotationAdjust: set factor to 0.16
ElecMinimize: Iter:  58  F: -2072.212176047446519  |grad|_K:  7.894e-05  alpha:  1.119e-03  linmin:  1.092e-05  t[s]:   5864.36
	FillingsUpdate:  mu: +0.082823950  nElectrons: 351.000000  magneticMoment: [ Abs: 29.23134  Tot: +0.00000 ]
	SubspaceRotationAdjust: set factor to 0.167
ElecMinimize: Iter:  59  F: -2072.213176917199235  |grad|_K:  7.871e-05  alpha:  9.263e-04  linmin:  1.085e-05  t[s]:   5938.32
	FillingsUpdate:  mu: +0.079873006  nElectrons: 351.000000  magneticMoment: [ Abs: 29.23601  Tot: -0.00000 ]
	SubspaceRotationAdjust: set factor to 0.174
ElecMinimize: Iter:  60  F: -2072.214020187330789  |grad|_K:  7.840e-05  alpha:  7.871e-04  linmin:  1.052e-05  t[s]:   6011.90
	FillingsUpdate:  mu: +0.076972783  nElectrons: 351.000000  magneticMoment: [ Abs: 29.24047  Tot: -0.00000 ]
	SubspaceRotationAdjust: set factor to 0.181
ElecMinimize: Iter:  61  F: -2072.214744486801010  |grad|_K:  7.806e-05  alpha:  6.821e-04  linmin:  1.015e-05  t[s]:   6085.37
	FillingsUpdate:  mu: +0.074156319  nElectrons: 351.000000  magneticMoment: [ Abs: 29.24475  Tot: -0.00000 ]
	SubspaceRotationAdjust: set factor to 0.187
ElecMinimize: Iter:  62  F: -2072.215374828183940  |grad|_K:  7.768e-05  alpha:  5.992e-04  linmin:  9.842e-06  t[s]:   6159.14
	FillingsUpdate:  mu: +0.071355757  nElectrons: 351.000000  magneticMoment: [ Abs: 29.24886  Tot: -0.00000 ]
	SubspaceRotationAdjust: set factor to 0.193
ElecMinimize: Iter:  63  F: -2072.215928467262984  |grad|_K:  7.728e-05  alpha:  5.315e-04  linmin:  9.587e-06  t[s]:   6232.91
	FillingsUpdate:  mu: +0.068546823  nElectrons: 351.000000  magneticMoment: [ Abs: 29.25277  Tot: -0.00000 ]
	SubspaceRotationAdjust: set factor to 0.199
ElecMinimize: Iter:  64  F: -2072.216418340173732  |grad|_K:  7.688e-05  alpha:  4.752e-04  linmin:  9.326e-06  t[s]:   6307.95
	FillingsUpdate:  mu: +0.066021327  nElectrons: 351.000000  magneticMoment: [ Abs: 29.25655  Tot: -0.00000 ]
	SubspaceRotationAdjust: set factor to 0.204
ElecMinimize: Iter:  65  F: -2072.216854983776102  |grad|_K:  7.649e-05  alpha:  4.280e-04  linmin:  8.982e-06  t[s]:   6383.58
	FillingsUpdate:  mu: +0.064171746  nElectrons: 351.000000  magneticMoment: [ Abs: 29.26026  Tot: +0.00000 ]
	SubspaceRotationAdjust: set factor to 0.209
ElecMinimize: Iter:  66  F: -2072.217247488078556  |grad|_K:  7.610e-05  alpha:  3.887e-04  linmin:  8.499e-06  t[s]:   6458.12
	FillingsUpdate:  mu: +0.062609171  nElectrons: 351.000000  magneticMoment: [ Abs: 29.26387  Tot: +0.00000 ]
	SubspaceRotationAdjust: set factor to 0.213
ElecMinimize: Iter:  67  F: -2072.217603868231890  |grad|_K:  7.572e-05  alpha:  3.564e-04  linmin:  7.851e-06  t[s]:   6531.70
	FillingsUpdate:  mu: +0.060829756  nElectrons: 351.000000  magneticMoment: [ Abs: 29.26745  Tot: -0.00000 ]
	SubspaceRotationAdjust: set factor to 0.216
ElecMinimize: Iter:  68  F: -2072.217931159803356  |grad|_K:  7.536e-05  alpha:  3.305e-04  linmin:  7.047e-06  t[s]:   6606.30
	FillingsUpdate:  mu: +0.058843902  nElectrons: 351.000000  magneticMoment: [ Abs: 29.27104  Tot: -0.00000 ]
	SubspaceRotationAdjust: set factor to 0.219
ElecMinimize: Iter:  69  F: -2072.218235422821635  |grad|_K:  7.499e-05  alpha:  3.101e-04  linmin:  6.124e-06  t[s]:   6680.15
	FillingsUpdate:  mu: +0.056801930  nElectrons: 351.000000  magneticMoment: [ Abs: 29.27466  Tot: +0.00000 ]
	SubspaceRotationAdjust: set factor to 0.221
ElecMinimize: Iter:  70  F: -2072.218521763693843  |grad|_K:  7.463e-05  alpha:  2.944e-04  linmin:  5.135e-06  t[s]:   6753.85
	FillingsUpdate:  mu: +0.054577048  nElectrons: 351.000000  magneticMoment: [ Abs: 29.27840  Tot: +0.00000 ]
	SubspaceRotationAdjust: set factor to 0.222
ElecMinimize: Iter:  71  F: -2072.218794394049837  |grad|_K:  7.426e-05  alpha:  2.827e-04  linmin:  4.144e-06  t[s]:   6826.95
	FillingsUpdate:  mu: +0.052456609  nElectrons: 351.000000  magneticMoment: [ Abs: 29.28226  Tot: +0.00000 ]
	SubspaceRotationAdjust: set factor to 0.222
ElecMinimize: Iter:  72  F: -2072.219056714955514  |grad|_K:  7.389e-05  alpha:  2.745e-04  linmin:  3.206e-06  t[s]:   6900.30
	FillingsUpdate:  mu: +0.051208407  nElectrons: 351.000000  magneticMoment: [ Abs: 29.28625  Tot: +0.00000 ]
	SubspaceRotationAdjust: set factor to 0.221
ElecMinimize: Iter:  73  F: -2072.219311424108582  |grad|_K:  7.351e-05  alpha:  2.689e-04  linmin:  2.365e-06  t[s]:   6974.34
	FillingsUpdate:  mu: +0.050406840  nElectrons: 351.000000  magneticMoment: [ Abs: 29.29038  Tot: -0.00000 ]
	SubspaceRotationAdjust: set factor to 0.22
ElecMinimize: Iter:  74  F: -2072.219560623728285  |grad|_K:  7.311e-05  alpha:  2.656e-04  linmin:  1.652e-06  t[s]:   7048.26
	FillingsUpdate:  mu: +0.049220091  nElectrons: 351.000000  magneticMoment: [ Abs: 29.29466  Tot: +0.00000 ]
	SubspaceRotationAdjust: set factor to 0.218
ElecMinimize: Iter:  75  F: -2072.219805924754837  |grad|_K:  7.270e-05  alpha:  2.641e-04  linmin:  1.065e-06  t[s]:   7122.25
	FillingsUpdate:  mu: +0.047726197  nElectrons: 351.000000  magneticMoment: [ Abs: 29.29910  Tot: -0.00000 ]
	SubspaceRotationAdjust: set factor to 0.215
ElecMinimize: Iter:  76  F: -2072.220048565126945  |grad|_K:  7.227e-05  alpha:  2.640e-04  linmin:  5.968e-07  t[s]:   7196.92
	FillingsUpdate:  mu: +0.046600142  nElectrons: 351.000000  magneticMoment: [ Abs: 29.30374  Tot: +0.00000 ]
	SubspaceRotationAdjust: set factor to 0.211
ElecMinimize: Iter:  77  F: -2072.220289492306620  |grad|_K:  7.182e-05  alpha:  2.651e-04  linmin:  2.238e-07  t[s]:   7270.80
	FillingsUpdate:  mu: +0.045679308  nElectrons: 351.000000  magneticMoment: [ Abs: 29.30849  Tot: +0.00000 ]
	SubspaceRotationAdjust: set factor to 0.207
ElecMinimize: Iter:  78  F: -2072.220529445023658  |grad|_K:  7.135e-05  alpha:  2.673e-04  linmin: -6.403e-08  t[s]:   7344.66
	FillingsUpdate:  mu: +0.045104629  nElectrons: 351.000000  magneticMoment: [ Abs: 29.31335  Tot: -0.00000 ]
	SubspaceRotationAdjust: set factor to 0.202
ElecMinimize: Iter:  79  F: -2072.220768986135681  |grad|_K:  7.086e-05  alpha:  2.702e-04  linmin: -2.751e-07  t[s]:   7417.87
	FillingsUpdate:  mu: +0.044567961  nElectrons: 351.000000  magneticMoment: [ Abs: 29.31826  Tot: +0.00000 ]
	SubspaceRotationAdjust: set factor to 0.197
ElecMinimize: Iter:  80  F: -2072.221008520935357  |grad|_K:  7.034e-05  alpha:  2.739e-04  linmin: -4.117e-07  t[s]:   7491.10
	FillingsUpdate:  mu: +0.043367263  nElectrons: 351.000000  magneticMoment: [ Abs: 29.32328  Tot: +0.00000 ]
	SubspaceRotationAdjust: set factor to 0.191
ElecMinimize: Iter:  81  F: -2072.221248302603271  |grad|_K:  6.981e-05  alpha:  2.782e-04  linmin: -4.651e-07  t[s]:   7564.32
	FillingsUpdate:  mu: +0.042613326  nElectrons: 351.000000  magneticMoment: [ Abs: 29.32838  Tot: +0.00000 ]
	SubspaceRotationAdjust: set factor to 0.185
ElecMinimize: Iter:  82  F: -2072.221488426209362  |grad|_K:  6.925e-05  alpha:  2.829e-04  linmin: -4.369e-07  t[s]:   7637.84
	FillingsUpdate:  mu: +0.042128260  nElectrons: 351.000000  magneticMoment: [ Abs: 29.33348  Tot: +0.00000 ]
	SubspaceRotationAdjust: set factor to 0.179
ElecMinimize: Iter:  83  F: -2072.221728845509460  |grad|_K:  6.868e-05  alpha:  2.878e-04  linmin: -3.378e-07  t[s]:   7712.08
	FillingsUpdate:  mu: +0.041732969  nElectrons: 351.000000  magneticMoment: [ Abs: 29.33855  Tot: +0.00000 ]
	SubspaceRotationAdjust: set factor to 0.173
ElecMinimize: Iter:  84  F: -2072.221969403297408  |grad|_K:  6.808e-05  alpha:  2.928e-04  linmin: -1.874e-07  t[s]:   7785.33
	FillingsUpdate:  mu: +0.041495609  nElectrons: 351.000000  magneticMoment: [ Abs: 29.34362  Tot: -0.00000 ]
	SubspaceRotationAdjust: set factor to 0.167
ElecMinimize: Iter:  85  F: -2072.222209870079951  |grad|_K:  6.747e-05  alpha:  2.979e-04  linmin: -1.478e-08  t[s]:   7858.54
	FillingsUpdate:  mu: +0.041560748  nElectrons: 351.000000  magneticMoment: [ Abs: 29.34867  Tot: +0.00000 ]
	SubspaceRotationAdjust: set factor to 0.161
ElecMinimize: Iter:  86  F: -2072.222449992713337  |grad|_K:  6.685e-05  alpha:  3.029e-04  linmin:  1.577e-07  t[s]:   7932.36
	FillingsUpdate:  mu: +0.041649386  nElectrons: 351.000000  magneticMoment: [ Abs: 29.35368  Tot: -0.00000 ]
	SubspaceRotationAdjust: set factor to 0.155
ElecMinimize: Iter:  87  F: -2072.222689524739053  |grad|_K:  6.621e-05  alpha:  3.079e-04  linmin:  3.069e-07  t[s]:   8005.73
	FillingsUpdate:  mu: +0.041630333  nElectrons: 351.000000  magneticMoment: [ Abs: 29.35866  Tot: -0.00000 ]
	SubspaceRotationAdjust: set factor to 0.149
ElecMinimize: Iter:  88  F: -2072.222928252675501  |grad|_K:  6.557e-05  alpha:  3.128e-04  linmin:  4.214e-07  t[s]:   8078.99
	FillingsUpdate:  mu: +0.041526240  nElectrons: 351.000000  magneticMoment: [ Abs: 29.36356  Tot: +0.00000 ]
	SubspaceRotationAdjust: set factor to 0.143
ElecMinimize: Iter:  89  F: -2072.223166004063387  |grad|_K:  6.492e-05  alpha:  3.177e-04  linmin:  4.966e-07  t[s]:   8151.80
	FillingsUpdate:  mu: +0.041232031  nElectrons: 351.000000  magneticMoment: [ Abs: 29.36832  Tot: -0.00000 ]
	SubspaceRotationAdjust: set factor to 0.138
ElecMinimize: Iter:  90  F: -2072.223402644556245  |grad|_K:  6.427e-05  alpha:  3.226e-04  linmin:  5.331e-07  t[s]:   8224.69
	FillingsUpdate:  mu: +0.040745949  nElectrons: 351.000000  magneticMoment: [ Abs: 29.37301  Tot: +0.00000 ]
	SubspaceRotationAdjust: set factor to 0.132
ElecMinimize: Iter:  91  F: -2072.223638072722224  |grad|_K:  6.361e-05  alpha:  3.276e-04  linmin:  5.398e-07  t[s]:   8297.97
	FillingsUpdate:  mu: +0.040023018  nElectrons: 351.000000  magneticMoment: [ Abs: 29.37764  Tot: +0.00000 ]
	SubspaceRotationAdjust: set factor to 0.127
ElecMinimize: Iter:  92  F: -2072.223872206086526  |grad|_K:  6.296e-05  alpha:  3.325e-04  linmin:  5.182e-07  t[s]:   8369.98
	FillingsUpdate:  mu: +0.039162555  nElectrons: 351.000000  magneticMoment: [ Abs: 29.38217  Tot: +0.00000 ]
	SubspaceRotationAdjust: set factor to 0.122
ElecMinimize: Iter:  93  F: -2072.224104976223316  |grad|_K:  6.232e-05  alpha:  3.374e-04  linmin:  4.804e-07  t[s]:   8443.11
	FillingsUpdate:  mu: +0.038282847  nElectrons: 351.000000  magneticMoment: [ Abs: 29.38659  Tot: +0.00000 ]
	SubspaceRotationAdjust: set factor to 0.118
ElecMinimize: Iter:  94  F: -2072.224336316683548  |grad|_K:  6.167e-05  alpha:  3.423e-04  linmin:  4.316e-07  t[s]:   8517.71
	FillingsUpdate:  mu: +0.037454535  nElectrons: 351.000000  magneticMoment: [ Abs: 29.39088  Tot: +0.00000 ]
	SubspaceRotationAdjust: set factor to 0.114
ElecMinimize: Iter:  95  F: -2072.224566159107326  |grad|_K:  6.104e-05  alpha:  3.472e-04  linmin:  3.786e-07  t[s]:   8592.52
	FillingsUpdate:  mu: +0.036736172  nElectrons: 351.000000  magneticMoment: [ Abs: 29.39504  Tot: -0.00000 ]
	SubspaceRotationAdjust: set factor to 0.11
ElecMinimize: Iter:  96  F: -2072.224794427957022  |grad|_K:  6.042e-05  alpha:  3.520e-04  linmin:  3.211e-07  t[s]:   8666.14
	FillingsUpdate:  mu: +0.036104564  nElectrons: 351.000000  magneticMoment: [ Abs: 29.39907  Tot: -0.00000 ]
	SubspaceRotationAdjust: set factor to 0.106
ElecMinimize: Iter:  97  F: -2072.225021042772369  |grad|_K:  5.980e-05  alpha:  3.567e-04  linmin:  2.679e-07  t[s]:   8740.78
	FillingsUpdate:  mu: +0.035496945  nElectrons: 351.000000  magneticMoment: [ Abs: 29.40300  Tot: -0.00000 ]
	SubspaceRotationAdjust: set factor to 0.103
ElecMinimize: Iter:  98  F: -2072.225245912303762  |grad|_K:  5.920e-05  alpha:  3.612e-04  linmin:  2.166e-07  t[s]:   8814.46
	FillingsUpdate:  mu: +0.034896402  nElectrons: 351.000000  magneticMoment: [ Abs: 29.40684  Tot: +0.00000 ]
	SubspaceRotationAdjust: set factor to 0.0994
ElecMinimize: Iter:  99  F: -2072.225468941015151  |grad|_K:  5.861e-05  alpha:  3.656e-04  linmin:  1.676e-07  t[s]:   8891.41
	FillingsUpdate:  mu: +0.034288173  nElectrons: 351.000000  magneticMoment: [ Abs: 29.41057  Tot: +0.00000 ]
	SubspaceRotationAdjust: set factor to 0.0964
ElecMinimize: Iter: 100  F: -2072.225690032051261  |grad|_K:  5.804e-05  alpha:  3.697e-04  linmin:  1.242e-07  t[s]:   8965.42
	FillingsUpdate:  mu: +0.033658009  nElectrons: 351.000000  magneticMoment: [ Abs: 29.41420  Tot: +0.00000 ]
	SubspaceRotationAdjust: set factor to 0.0936
ElecMinimize: Iter: 101  F: -2072.225909085842432  |grad|_K:  5.748e-05  alpha:  3.735e-04  linmin:  7.720e-08  t[s]:   9040.08
	FillingsUpdate:  mu: +0.033023183  nElectrons: 351.000000  magneticMoment: [ Abs: 29.41771  Tot: +0.00000 ]
	SubspaceRotationAdjust: set factor to 0.091
ElecMinimize: Iter: 102  F: -2072.226126011947599  |grad|_K:  5.694e-05  alpha:  3.771e-04  linmin:  3.381e-08  t[s]:   9114.20
	FillingsUpdate:  mu: +0.032420449  nElectrons: 351.000000  magneticMoment: [ Abs: 29.42112  Tot: -0.00000 ]
	SubspaceRotationAdjust: set factor to 0.0886
ElecMinimize: Iter: 103  F: -2072.226340723713747  |grad|_K:  5.641e-05  alpha:  3.804e-04  linmin: -1.524e-08  t[s]:   9187.99
	FillingsUpdate:  mu: +0.031870916  nElectrons: 351.000000  magneticMoment: [ Abs: 29.42443  Tot: +0.00000 ]
	SubspaceRotationAdjust: set factor to 0.0864
ElecMinimize: Iter: 104  F: -2072.226553149194842  |grad|_K:  5.590e-05  alpha:  3.834e-04  linmin: -6.482e-08  t[s]:   9262.56
	FillingsUpdate:  mu: +0.031362515  nElectrons: 351.000000  magneticMoment: [ Abs: 29.42765  Tot: +0.00000 ]
	SubspaceRotationAdjust: set factor to 0.0843
ElecMinimize: Iter: 105  F: -2072.226763226639832  |grad|_K:  5.541e-05  alpha:  3.861e-04  linmin: -1.201e-07  t[s]:   9336.87
	FillingsUpdate:  mu: +0.030856341  nElectrons: 351.000000  magneticMoment: [ Abs: 29.43076  Tot: +0.00000 ]
	SubspaceRotationAdjust: set factor to 0.0824
ElecMinimize: Iter: 106  F: -2072.226970910552609  |grad|_K:  5.493e-05  alpha:  3.885e-04  linmin: -1.848e-07  t[s]:   9410.94
	FillingsUpdate:  mu: +0.030294942  nElectrons: 351.000000  magneticMoment: [ Abs: 29.43378  Tot: -0.00000 ]
	SubspaceRotationAdjust: set factor to 0.0806
ElecMinimize: Iter: 107  F: -2072.227176172107647  |grad|_K:  5.446e-05  alpha:  3.907e-04  linmin: -2.556e-07  t[s]:   9485.83
	FillingsUpdate:  mu: +0.029632687  nElectrons: 351.000000  magneticMoment: [ Abs: 29.43673  Tot: +0.00000 ]
	SubspaceRotationAdjust: set factor to 0.0789
ElecMinimize: Iter: 108  F: -2072.227378995739400  |grad|_K:  5.402e-05  alpha:  3.926e-04  linmin: -3.357e-07  t[s]:   9559.53
	FillingsUpdate:  mu: +0.028837205  nElectrons: 351.000000  magneticMoment: [ Abs: 29.43961  Tot: -0.00000 ]
	SubspaceRotationAdjust: set factor to 0.0774
ElecMinimize: Iter: 109  F: -2072.227579381794840  |grad|_K:  5.358e-05  alpha:  3.943e-04  linmin: -4.230e-07  t[s]:   9632.97
	FillingsUpdate:  mu: +0.027894618  nElectrons: 351.000000  magneticMoment: [ Abs: 29.44243  Tot: -0.00000 ]
	SubspaceRotationAdjust: set factor to 0.0759
ElecMinimize: Iter: 110  F: -2072.227777343131038  |grad|_K:  5.316e-05  alpha:  3.958e-04  linmin: -5.189e-07  t[s]:   9706.48
	FillingsUpdate:  mu: +0.026853679  nElectrons: 351.000000  magneticMoment: [ Abs: 29.44519  Tot: +0.00000 ]
	SubspaceRotationAdjust: set factor to 0.0745
ElecMinimize: Iter: 111  F: -2072.227972905482602  |grad|_K:  5.276e-05  alpha:  3.972e-04  linmin: -6.214e-07  t[s]:   9780.49
	FillingsUpdate:  mu: +0.025777864  nElectrons: 351.000000  magneticMoment: [ Abs: 29.44788  Tot: +0.00000 ]
	SubspaceRotationAdjust: set factor to 0.0732
ElecMinimize: Iter: 112  F: -2072.228166103595868  |grad|_K:  5.236e-05  alpha:  3.984e-04  linmin: -7.324e-07  t[s]:   9854.04
	FillingsUpdate:  mu: +0.024696153  nElectrons: 351.000000  magneticMoment: [ Abs: 29.45051  Tot: +0.00000 ]
	SubspaceRotationAdjust: set factor to 0.072
ElecMinimize: Iter: 113  F: -2072.228356982647256  |grad|_K:  5.198e-05  alpha:  3.996e-04  linmin: -8.496e-07  t[s]:   9928.78
	FillingsUpdate:  mu: +0.023621882  nElectrons: 351.000000  magneticMoment: [ Abs: 29.45310  Tot: -0.00000 ]
	SubspaceRotationAdjust: set factor to 0.0708
ElecMinimize: Iter: 114  F: -2072.228545594140996  |grad|_K:  5.160e-05  alpha:  4.006e-04  linmin: -9.718e-07  t[s]:  10004.85
	FillingsUpdate:  mu: +0.022582638  nElectrons: 351.000000  magneticMoment: [ Abs: 29.45567  Tot: -0.00000 ]
	SubspaceRotationAdjust: set factor to 0.0697
ElecMinimize: Iter: 115  F: -2072.228731995870021  |grad|_K:  5.124e-05  alpha:  4.017e-04  linmin: -1.097e-06  t[s]:  10078.61
	FillingsUpdate:  mu: +0.021615993  nElectrons: 351.000000  magneticMoment: [ Abs: 29.45825  Tot: +0.00000 ]
	SubspaceRotationAdjust: set factor to 0.0686
ElecMinimize: Iter: 116  F: -2072.228916249932354  |grad|_K:  5.088e-05  alpha:  4.027e-04  linmin: -1.230e-06  t[s]:  10153.96
	FillingsUpdate:  mu: +0.020749340  nElectrons: 351.000000  magneticMoment: [ Abs: 29.46082  Tot: -0.00000 ]
	SubspaceRotationAdjust: set factor to 0.0676
ElecMinimize: Iter: 117  F: -2072.229098422875268  |grad|_K:  5.053e-05  alpha:  4.037e-04  linmin: -1.367e-06  t[s]:  10229.22
	FillingsUpdate:  mu: +0.019983251  nElectrons: 351.000000  magneticMoment: [ Abs: 29.46339  Tot: +0.00000 ]
	SubspaceRotationAdjust: set factor to 0.0666
ElecMinimize: Iter: 118  F: -2072.229278583532050  |grad|_K:  5.018e-05  alpha:  4.048e-04  linmin: -1.506e-06  t[s]:  10305.77
	FillingsUpdate:  mu: +0.019295208  nElectrons: 351.000000  magneticMoment: [ Abs: 29.46597  Tot: -0.00000 ]
	SubspaceRotationAdjust: set factor to 0.0656
ElecMinimize: Iter: 119  F: -2072.229456801445849  |grad|_K:  4.984e-05  alpha:  4.059e-04  linmin: -1.648e-06  t[s]:  10381.22
	FillingsUpdate:  mu: +0.018657821  nElectrons: 351.000000  magneticMoment: [ Abs: 29.46856  Tot: +0.00000 ]
	SubspaceRotationAdjust: set factor to 0.0646
ElecMinimize: Iter: 120  F: -2072.229633146938340  |grad|_K:  4.950e-05  alpha:  4.071e-04  linmin: -1.793e-06  t[s]:  10458.35
	FillingsUpdate:  mu: +0.018027204  nElectrons: 351.000000  magneticMoment: [ Abs: 29.47117  Tot: +0.00000 ]
	SubspaceRotationAdjust: set factor to 0.0636
ElecMinimize: Iter: 121  F: -2072.229807690237521  |grad|_K:  4.916e-05  alpha:  4.084e-04  linmin: -1.939e-06  t[s]:  10534.09
	FillingsUpdate:  mu: +0.017350614  nElectrons: 351.000000  magneticMoment: [ Abs: 29.47383  Tot: +0.00000 ]
	SubspaceRotationAdjust: set factor to 0.0627
ElecMinimize: Iter: 122  F: -2072.229980500232159  |grad|_K:  4.883e-05  alpha:  4.099e-04  linmin: -2.086e-06  t[s]:  10610.14
	FillingsUpdate:  mu: +0.016557167  nElectrons: 351.000000  magneticMoment: [ Abs: 29.47655  Tot: -0.00000 ]
	SubspaceRotationAdjust: set factor to 0.0617
ElecMinimize: Iter: 123  F: -2072.230151642874262  |grad|_K:  4.849e-05  alpha:  4.115e-04  linmin: -2.233e-06  t[s]:  10684.68
	FillingsUpdate:  mu: +0.015627511  nElectrons: 351.000000  magneticMoment: [ Abs: 29.47934  Tot: +0.00000 ]
	SubspaceRotationAdjust: set factor to 0.0607
ElecMinimize: Iter: 124  F: -2072.230321183026263  |grad|_K:  4.815e-05  alpha:  4.133e-04  linmin: -2.378e-06  t[s]:  10758.57
	FillingsUpdate:  mu: +0.014605358  nElectrons: 351.000000  magneticMoment: [ Abs: 29.48220  Tot: +0.00000 ]
	SubspaceRotationAdjust: set factor to 0.0597
ElecMinimize: Iter: 125  F: -2072.230489179857159  |grad|_K:  4.781e-05  alpha:  4.153e-04  linmin: -2.524e-06  t[s]:  10832.80
	FillingsUpdate:  mu: +0.013468225  nElectrons: 351.000000  magneticMoment: [ Abs: 29.48515  Tot: +0.00000 ]
	SubspaceRotationAdjust: set factor to 0.0588
ElecMinimize: Iter: 126  F: -2072.230655689612831  |grad|_K:  4.747e-05  alpha:  4.174e-04  linmin: -2.668e-06  t[s]:  10907.57
	FillingsUpdate:  mu: +0.012230311  nElectrons: 351.000000  magneticMoment: [ Abs: 29.48820  Tot: -0.00000 ]
	SubspaceRotationAdjust: set factor to 0.0578
ElecMinimize: Iter: 127  F: -2072.230820763996235  |grad|_K:  4.712e-05  alpha:  4.198e-04  linmin: -2.805e-06  t[s]:  10982.46
	FillingsUpdate:  mu: +0.011194665  nElectrons: 351.000000  magneticMoment: [ Abs: 29.49138  Tot: +0.00000 ]
	SubspaceRotationAdjust: set factor to 0.0567
ElecMinimize: Iter: 128  F: -2072.230984446152434  |grad|_K:  4.677e-05  alpha:  4.223e-04  linmin: -2.944e-06  t[s]:  11057.48
	FillingsUpdate:  mu: +0.010519012  nElectrons: 351.000000  magneticMoment: [ Abs: 29.49469  Tot: -0.00000 ]
	SubspaceRotationAdjust: set factor to 0.0557
ElecMinimize: Iter: 129  F: -2072.231146777921822  |grad|_K:  4.641e-05  alpha:  4.251e-04  linmin: -3.075e-06  t[s]:  11133.83
	FillingsUpdate:  mu: +0.010256257  nElectrons: 351.000000  magneticMoment: [ Abs: 29.49815  Tot: -0.00000 ]
	SubspaceRotationAdjust: set factor to 0.0547
ElecMinimize: Iter: 130  F: -2072.231307791127165  |grad|_K:  4.605e-05  alpha:  4.281e-04  linmin: -3.203e-06  t[s]:  11211.62
	FillingsUpdate:  mu: +0.010352707  nElectrons: 351.000000  magneticMoment: [ Abs: 29.50176  Tot: -0.00000 ]
	SubspaceRotationAdjust: set factor to 0.0536
ElecMinimize: Iter: 131  F: -2072.231467513229290  |grad|_K:  4.568e-05  alpha:  4.313e-04  linmin: -3.325e-06  t[s]:  11288.55
	FillingsUpdate:  mu: +0.010625476  nElectrons: 351.000000  magneticMoment: [ Abs: 29.50552  Tot: +0.00000 ]
	SubspaceRotationAdjust: set factor to 0.0525
ElecMinimize: Iter: 132  F: -2072.231625965993771  |grad|_K:  4.531e-05  alpha:  4.348e-04  linmin: -3.440e-06  t[s]:  11365.92
	FillingsUpdate:  mu: +0.010875644  nElectrons: 351.000000  magneticMoment: [ Abs: 29.50946  Tot: -0.00000 ]
	SubspaceRotationAdjust: set factor to 0.0514
ElecMinimize: Iter: 133  F: -2072.231783162351348  |grad|_K:  4.493e-05  alpha:  4.384e-04  linmin: -3.553e-06  t[s]:  11439.91
	FillingsUpdate:  mu: +0.011328083  nElectrons: 351.000000  magneticMoment: [ Abs: 29.51363  Tot: -0.00000 ]
	SubspaceRotationAdjust: set factor to 0.0503
ElecMinimize: Iter: 134  F: -2072.231939112448799  |grad|_K:  4.454e-05  alpha:  4.423e-04  linmin: -3.660e-06  t[s]:  11513.55
	FillingsUpdate:  mu: +0.011929154  nElectrons: 351.000000  magneticMoment: [ Abs: 29.51804  Tot: +0.00000 ]
	SubspaceRotationAdjust: set factor to 0.0491
ElecMinimize: Iter: 135  F: -2072.232093821160106  |grad|_K:  4.415e-05  alpha:  4.464e-04  linmin: -3.756e-06  t[s]:  11587.26
	FillingsUpdate:  mu: +0.012229777  nElectrons: 351.000000  magneticMoment: [ Abs: 29.52267  Tot: +0.00000 ]
	SubspaceRotationAdjust: set factor to 0.048
ElecMinimize: Iter: 136  F: -2072.232247285350695  |grad|_K:  4.375e-05  alpha:  4.507e-04  linmin: -3.853e-06  t[s]:  11660.81
	FillingsUpdate:  mu: +0.012233865  nElectrons: 351.000000  magneticMoment: [ Abs: 29.52749  Tot: +0.00000 ]
	SubspaceRotationAdjust: set factor to 0.0468
ElecMinimize: Iter: 137  F: -2072.232399502204316  |grad|_K:  4.334e-05  alpha:  4.552e-04  linmin: -3.944e-06  t[s]:  11734.22
	FillingsUpdate:  mu: +0.012379828  nElectrons: 351.000000  magneticMoment: [ Abs: 29.53251  Tot: -0.00000 ]
	SubspaceRotationAdjust: set factor to 0.0457
ElecMinimize: Iter: 138  F: -2072.232550463932967  |grad|_K:  4.293e-05  alpha:  4.600e-04  linmin: -4.030e-06  t[s]:  11807.00
	FillingsUpdate:  mu: +0.012513931  nElectrons: 351.000000  magneticMoment: [ Abs: 29.53773  Tot: -0.00000 ]
	SubspaceRotationAdjust: set factor to 0.0445
ElecMinimize: Iter: 139  F: -2072.232700160803688  |grad|_K:  4.251e-05  alpha:  4.649e-04  linmin: -4.113e-06  t[s]:  11881.80
	FillingsUpdate:  mu: +0.012927657  nElectrons: 351.000000  magneticMoment: [ Abs: 29.54313  Tot: -0.00000 ]
	SubspaceRotationAdjust: set factor to 0.0433
ElecMinimize: Iter: 140  F: -2072.232848582476436  |grad|_K:  4.208e-05  alpha:  4.700e-04  linmin: -4.191e-06  t[s]:  11956.73
	FillingsUpdate:  mu: +0.013505967  nElectrons: 351.000000  magneticMoment: [ Abs: 29.54871  Tot: -0.00000 ]
	SubspaceRotationAdjust: set factor to 0.0421
ElecMinimize: Iter: 141  F: -2072.232995717019548  |grad|_K:  4.166e-05  alpha:  4.754e-04  linmin: -4.274e-06  t[s]:  12031.39
	FillingsUpdate:  mu: +0.014072974  nElectrons: 351.000000  magneticMoment: [ Abs: 29.55446  Tot: -0.00000 ]
	SubspaceRotationAdjust: set factor to 0.0409
ElecMinimize: Iter: 142  F: -2072.233141556041119  |grad|_K:  4.122e-05  alpha:  4.809e-04  linmin: -4.353e-06  t[s]:  12104.96
	FillingsUpdate:  mu: +0.014598224  nElectrons: 351.000000  magneticMoment: [ Abs: 29.56041  Tot: -0.00000 ]
	SubspaceRotationAdjust: set factor to 0.0397
ElecMinimize: Iter: 143  F: -2072.233286090143793  |grad|_K:  4.078e-05  alpha:  4.866e-04  linmin: -4.432e-06  t[s]:  12178.25
	FillingsUpdate:  mu: +0.015095352  nElectrons: 351.000000  magneticMoment: [ Abs: 29.56654  Tot: -0.00000 ]
	SubspaceRotationAdjust: set factor to 0.0386
ElecMinimize: Iter: 144  F: -2072.233429312617773  |grad|_K:  4.034e-05  alpha:  4.926e-04  linmin: -4.514e-06  t[s]:  12251.63
	FillingsUpdate:  mu: +0.015591278  nElectrons: 351.000000  magneticMoment: [ Abs: 29.57285  Tot: +0.00000 ]
	SubspaceRotationAdjust: set factor to 0.0374
ElecMinimize: Iter: 145  F: -2072.233571220414888  |grad|_K:  3.990e-05  alpha:  4.987e-04  linmin: -4.598e-06  t[s]:  12324.54
	FillingsUpdate:  mu: +0.016097040  nElectrons: 351.000000  magneticMoment: [ Abs: 29.57935  Tot: -0.00000 ]
	SubspaceRotationAdjust: set factor to 0.0363
ElecMinimize: Iter: 146  F: -2072.233711813201353  |grad|_K:  3.946e-05  alpha:  5.051e-04  linmin: -4.685e-06  t[s]:  12398.24
	FillingsUpdate:  mu: +0.016608158  nElectrons: 351.000000  magneticMoment: [ Abs: 29.58606  Tot: +0.00000 ]
	SubspaceRotationAdjust: set factor to 0.0351
ElecMinimize: Iter: 147  F: -2072.233851095102636  |grad|_K:  3.902e-05  alpha:  5.116e-04  linmin: -4.776e-06  t[s]:  12473.70
	FillingsUpdate:  mu: +0.017121684  nElectrons: 351.000000  magneticMoment: [ Abs: 29.59300  Tot: -0.00000 ]
	SubspaceRotationAdjust: set factor to 0.034
ElecMinimize: Iter: 148  F: -2072.233989073666180  |grad|_K:  3.857e-05  alpha:  5.184e-04  linmin: -4.869e-06  t[s]:  12547.35
	FillingsUpdate:  mu: +0.017645731  nElectrons: 351.000000  magneticMoment: [ Abs: 29.60015  Tot: +0.00000 ]
	SubspaceRotationAdjust: set factor to 0.0329
ElecMinimize: Iter: 149  F: -2072.234125760594452  |grad|_K:  3.813e-05  alpha:  5.254e-04  linmin: -4.971e-06  t[s]:  12620.86
	FillingsUpdate:  mu: +0.018188358  nElectrons: 351.000000  magneticMoment: [ Abs: 29.60752  Tot: +0.00000 ]
	SubspaceRotationAdjust: set factor to 0.0319
ElecMinimize: Iter: 150  F: -2072.234261172696279  |grad|_K:  3.769e-05  alpha:  5.326e-04  linmin: -5.080e-06  t[s]:  12694.63
	FillingsUpdate:  mu: +0.018746628  nElectrons: 351.000000  magneticMoment: [ Abs: 29.61509  Tot: +0.00000 ]
	SubspaceRotationAdjust: set factor to 0.0308
ElecMinimize: Iter: 151  F: -2072.234395332261101  |grad|_K:  3.726e-05  alpha:  5.399e-04  linmin: -5.190e-06  t[s]:  12768.80
	FillingsUpdate:  mu: +0.019310076  nElectrons: 351.000000  magneticMoment: [ Abs: 29.62284  Tot: +0.00000 ]
	SubspaceRotationAdjust: set factor to 0.0298
ElecMinimize: Iter: 152  F: -2072.234528261918058  |grad|_K:  3.683e-05  alpha:  5.475e-04  linmin: -5.313e-06  t[s]:  12842.30
	FillingsUpdate:  mu: +0.019867508  nElectrons: 351.000000  magneticMoment: [ Abs: 29.63074  Tot: +0.00000 ]
	SubspaceRotationAdjust: set factor to 0.0288
ElecMinimize: Iter: 153  F: -2072.234659993418063  |grad|_K:  3.640e-05  alpha:  5.553e-04  linmin: -5.436e-06  t[s]:  12916.08
	FillingsUpdate:  mu: +0.020410743  nElectrons: 351.000000  magneticMoment: [ Abs: 29.63879  Tot: -0.00000 ]
	SubspaceRotationAdjust: set factor to 0.0279
ElecMinimize: Iter: 154  F: -2072.234790557482938  |grad|_K:  3.599e-05  alpha:  5.632e-04  linmin: -5.575e-06  t[s]:  12989.97
	FillingsUpdate:  mu: +0.020936793  nElectrons: 351.000000  magneticMoment: [ Abs: 29.64698  Tot: +0.00000 ]
	SubspaceRotationAdjust: set factor to 0.027
ElecMinimize: Iter: 155  F: -2072.234919993060430  |grad|_K:  3.558e-05  alpha:  5.713e-04  linmin: -5.713e-06  t[s]:  13063.69
	FillingsUpdate:  mu: +0.021448692  nElectrons: 351.000000  magneticMoment: [ Abs: 29.65529  Tot: -0.00000 ]
	SubspaceRotationAdjust: set factor to 0.0261
ElecMinimize: Iter: 156  F: -2072.235048337503940  |grad|_K:  3.518e-05  alpha:  5.796e-04  linmin: -5.867e-06  t[s]:  13139.41
	FillingsUpdate:  mu: +0.021954112  nElectrons: 351.000000  magneticMoment: [ Abs: 29.66375  Tot: +0.00000 ]
	SubspaceRotationAdjust: set factor to 0.0253
ElecMinimize: Iter: 157  F: -2072.235175636017630  |grad|_K:  3.478e-05  alpha:  5.880e-04  linmin: -6.024e-06  t[s]:  13214.65
	FillingsUpdate:  mu: +0.022462009  nElectrons: 351.000000  magneticMoment: [ Abs: 29.67233  Tot: -0.00000 ]
	SubspaceRotationAdjust: set factor to 0.0245
ElecMinimize: Iter: 158  F: -2072.235301932465518  |grad|_K:  3.440e-05  alpha:  5.965e-04  linmin: -6.190e-06  t[s]:  13291.09
	FillingsUpdate:  mu: +0.022979112  nElectrons: 351.000000  magneticMoment: [ Abs: 29.68104  Tot: +0.00000 ]
	SubspaceRotationAdjust: set factor to 0.0237
ElecMinimize: Iter: 159  F: -2072.235427274240010  |grad|_K:  3.403e-05  alpha:  6.051e-04  linmin: -6.362e-06  t[s]:  13365.87
	FillingsUpdate:  mu: +0.023507736  nElectrons: 351.000000  magneticMoment: [ Abs: 29.68988  Tot: +0.00000 ]
	SubspaceRotationAdjust: set factor to 0.023
ElecMinimize: Iter: 160  F: -2072.235551710455638  |grad|_K:  3.368e-05  alpha:  6.138e-04  linmin: -6.542e-06  t[s]:  13439.91
	FillingsUpdate:  mu: +0.024045490  nElectrons: 351.000000  magneticMoment: [ Abs: 29.69885  Tot: +0.00000 ]
	SubspaceRotationAdjust: set factor to 0.0223
ElecMinimize: Iter: 161  F: -2072.235675291564803  |grad|_K:  3.333e-05  alpha:  6.225e-04  linmin: -6.733e-06  t[s]:  13513.38
	FillingsUpdate:  mu: +0.024586311  nElectrons: 351.000000  magneticMoment: [ Abs: 29.70794  Tot: +0.00000 ]
	SubspaceRotationAdjust: set factor to 0.0216
ElecMinimize: Iter: 162  F: -2072.235798069963039  |grad|_K:  3.300e-05  alpha:  6.312e-04  linmin: -6.931e-06  t[s]:  13587.25
	FillingsUpdate:  mu: +0.025121691  nElectrons: 351.000000  magneticMoment: [ Abs: 29.71714  Tot: -0.00000 ]
	SubspaceRotationAdjust: set factor to 0.021
ElecMinimize: Iter: 163  F: -2072.235920097205963  |grad|_K:  3.268e-05  alpha:  6.399e-04  linmin: -7.135e-06  t[s]:  13662.52
	FillingsUpdate:  mu: +0.025641052  nElectrons: 351.000000  magneticMoment: [ Abs: 29.72645  Tot: +0.00000 ]
	SubspaceRotationAdjust: set factor to 0.0205
ElecMinimize: Iter: 164  F: -2072.236041425868279  |grad|_K:  3.238e-05  alpha:  6.486e-04  linmin: -7.347e-06  t[s]:  13737.30
	FillingsUpdate:  mu: +0.026131089  nElectrons: 351.000000  magneticMoment: [ Abs: 29.73590  Tot: +0.00000 ]
	SubspaceRotationAdjust: set factor to 0.0199
ElecMinimize: Iter: 165  F: -2072.236162107789823  |grad|_K:  3.209e-05  alpha:  6.571e-04  linmin: -7.571e-06  t[s]:  13811.29
	FillingsUpdate:  mu: +0.026577458  nElectrons: 351.000000  magneticMoment: [ Abs: 29.74547  Tot: -0.00000 ]
	SubspaceRotationAdjust: set factor to 0.0194
ElecMinimize: Iter: 166  F: -2072.236282195301101  |grad|_K:  3.182e-05  alpha:  6.656e-04  linmin: -7.801e-06  t[s]:  13885.31
	FillingsUpdate:  mu: +0.026973340  nElectrons: 351.000000  magneticMoment: [ Abs: 29.75516  Tot: +0.00000 ]
	SubspaceRotationAdjust: set factor to 0.0189
ElecMinimize: Iter: 167  F: -2072.236401739656685  |grad|_K:  3.156e-05  alpha:  6.739e-04  linmin: -8.037e-06  t[s]:  13958.64
	FillingsUpdate:  mu: +0.027324850  nElectrons: 351.000000  magneticMoment: [ Abs: 29.76499  Tot: +0.00000 ]
	SubspaceRotationAdjust: set factor to 0.0185
ElecMinimize: Iter: 168  F: -2072.236520790376289  |grad|_K:  3.132e-05  alpha:  6.819e-04  linmin: -8.282e-06  t[s]:  14034.53
	FillingsUpdate:  mu: +0.027641472  nElectrons: 351.000000  magneticMoment: [ Abs: 29.77496  Tot: +0.00000 ]
	SubspaceRotationAdjust: set factor to 0.0181
ElecMinimize: Iter: 169  F: -2072.236639395698148  |grad|_K:  3.109e-05  alpha:  6.898e-04  linmin: -8.537e-06  t[s]:  14111.48
	FillingsUpdate:  mu: +0.027927295  nElectrons: 351.000000  magneticMoment: [ Abs: 29.78505  Tot: +0.00000 ]
	SubspaceRotationAdjust: set factor to 0.0177
ElecMinimize: Iter: 170  F: -2072.236757603337537  |grad|_K:  3.088e-05  alpha:  6.973e-04  linmin: -8.799e-06  t[s]:  14185.51
	FillingsUpdate:  mu: +0.028183101  nElectrons: 351.000000  magneticMoment: [ Abs: 29.79527  Tot: +0.00000 ]
	SubspaceRotationAdjust: set factor to 0.0174
ElecMinimize: Iter: 171  F: -2072.236875457690530  |grad|_K:  3.069e-05  alpha:  7.046e-04  linmin: -9.070e-06  t[s]:  14258.66
	FillingsUpdate:  mu: +0.028409819  nElectrons: 351.000000  magneticMoment: [ Abs: 29.80561  Tot: -0.00000 ]
	SubspaceRotationAdjust: set factor to 0.017
	SubspaceRotationAdjust: resetting CG because factor has changed by 0.134746
ElecMinimize: 	State modified externally: resetting search direction.
ElecMinimize: Iter: 172  F: -2072.236993001460178  |grad|_K:  3.037e-05  alpha:  7.115e-04
ElecMinimize: 	Predicted alpha/alphaT>3.000000, increasing alphaT to 2.134475e-03.
ElecMinimize: 	Predicted alpha/alphaT>3.000000, increasing alphaT to 6.403425e-03.
ElecMinimize: 	Predicted alpha/alphaT>3.000000, increasing alphaT to 1.921028e-02.
	FillingsUpdate:  mu: +0.019169167  nElectrons: 351.000000  magneticMoment: [ Abs: 29.94316  Tot: +0.00000 ]
	SubspaceRotationAdjust: set factor to 0.0224
ElecMinimize: Iter: 173  F: -2072.351985339019393  |grad|_K:  3.491e-05  alpha:  6.905e-01  linmin: -9.306e-03  t[s]:  14480.23
	FillingsUpdate:  mu: +0.042078431  nElectrons: 351.000000  magneticMoment: [ Abs: 30.17678  Tot: +0.00000 ]
	SubspaceRotationAdjust: set factor to 0.0261
ElecMinimize: Iter: 174  F: -2072.467455333225189  |grad|_K:  4.248e-05  alpha:  5.171e-01  linmin: -8.283e-04  t[s]:  14553.91
	FillingsUpdate:  mu: +0.081803857  nElectrons: 351.000000  magneticMoment: [ Abs: 30.58810  Tot: -0.00000 ]
	SubspaceRotationAdjust: set factor to 0.0289
ElecMinimize: Iter: 175  F: -2072.644339175434197  |grad|_K:  4.798e-05  alpha:  5.564e-01  linmin: -1.158e-03  t[s]:  14626.68
	FillingsUpdate:  mu: +0.089113094  nElectrons: 351.000000  magneticMoment: [ Abs: 30.92089  Tot: -0.00000 ]
	SubspaceRotationAdjust: set factor to 0.0324
ElecMinimize: Iter: 176  F: -2072.813735087639088  |grad|_K:  3.922e-05  alpha:  4.176e-01  linmin: -9.045e-04  t[s]:  14700.07
	FillingsUpdate:  mu: +0.092333998  nElectrons: 351.000000  magneticMoment: [ Abs: 31.08091  Tot: +0.00000 ]
	SubspaceRotationAdjust: set factor to 0.0364
ElecMinimize: Iter: 177  F: -2072.920311326551655  |grad|_K:  3.408e-05  alpha:  3.923e-01  linmin: -1.020e-03  t[s]:  14774.27
	FillingsUpdate:  mu: +0.105574910  nElectrons: 351.000000  magneticMoment: [ Abs: 31.18471  Tot: -0.00000 ]
	SubspaceRotationAdjust: set factor to 0.0398
ElecMinimize: Iter: 178  F: -2073.011151928041727  |grad|_K:  3.430e-05  alpha:  4.402e-01  linmin: -9.410e-04  t[s]:  14848.40
	FillingsUpdate:  mu: +0.109246833  nElectrons: 351.000000  magneticMoment: [ Abs: 31.27558  Tot: +0.00000 ]
	SubspaceRotationAdjust: set factor to 0.0442
ElecMinimize: Iter: 179  F: -2073.097935102025531  |grad|_K:  2.896e-05  alpha:  4.158e-01  linmin: -1.040e-03  t[s]:  14922.45
	FillingsUpdate:  mu: +0.108093444  nElectrons: 351.000000  magneticMoment: [ Abs: 31.42258  Tot: -0.00000 ]
	SubspaceRotationAdjust: set factor to 0.05
ElecMinimize: Iter: 180  F: -2073.157643617745180  |grad|_K:  2.419e-05  alpha:  3.999e-01  linmin: -5.698e-04  t[s]:  14997.13
	FillingsUpdate:  mu: +0.105222885  nElectrons: 351.000000  magneticMoment: [ Abs: 31.72047  Tot: -0.00000 ]
	SubspaceRotationAdjust: set factor to 0.0593
ElecMinimize: Iter: 181  F: -2073.204026658366274  |grad|_K:  2.239e-05  alpha:  4.493e-01  linmin: -4.310e-04  t[s]:  15071.06
	FillingsUpdate:  mu: +0.102595413  nElectrons: 351.000000  magneticMoment: [ Abs: 32.13785  Tot: +0.00000 ]
	SubspaceRotationAdjust: set factor to 0.068
ElecMinimize: Iter: 182  F: -2073.242066288099977  |grad|_K:  2.162e-05  alpha:  4.314e-01  linmin: -3.281e-04  t[s]:  15146.82
	FillingsUpdate:  mu: +0.103945608  nElectrons: 351.000000  magneticMoment: [ Abs: 32.63602  Tot: +0.00000 ]
	SubspaceRotationAdjust: set factor to 0.0767
ElecMinimize: Iter: 183  F: -2073.276768543581966  |grad|_K:  1.924e-05  alpha:  4.221e-01  linmin: -9.575e-05  t[s]:  15222.16
	FillingsUpdate:  mu: +0.100148013  nElectrons: 351.000000  magneticMoment: [ Abs: 33.10252  Tot: +0.00000 ]
	SubspaceRotationAdjust: set factor to 0.0845
ElecMinimize: Iter: 184  F: -2073.303418353759298  |grad|_K:  1.773e-05  alpha:  4.117e-01  linmin:  6.041e-04  t[s]:  15295.96
	FillingsUpdate:  mu: +0.099830960  nElectrons: 351.000000  magneticMoment: [ Abs: 33.66324  Tot: +0.00000 ]
	SubspaceRotationAdjust: set factor to 0.0992
ElecMinimize: Iter: 185  F: -2073.327689059623935  |grad|_K:  1.694e-05  alpha:  4.539e-01  linmin: -2.517e-04  t[s]:  15369.81
	FillingsUpdate:  mu: +0.103889983  nElectrons: 351.000000  magneticMoment: [ Abs: 34.16888  Tot: -0.00000 ]
	SubspaceRotationAdjust: set factor to 0.11
ElecMinimize: Iter: 186  F: -2073.347720190377004  |grad|_K:  1.534e-05  alpha:  3.964e-01  linmin: -1.210e-04  t[s]:  15443.20
	FillingsUpdate:  mu: +0.101979098  nElectrons: 351.000000  magneticMoment: [ Abs: 34.71826  Tot: +0.00000 ]
	SubspaceRotationAdjust: set factor to 0.119
ElecMinimize: Iter: 187  F: -2073.365285866319937  |grad|_K:  1.569e-05  alpha:  4.261e-01  linmin:  7.929e-07  t[s]:  15516.80
	FillingsUpdate:  mu: +0.104113110  nElectrons: 351.000000  magneticMoment: [ Abs: 35.34478  Tot: +0.00000 ]
	SubspaceRotationAdjust: set factor to 0.117
ElecMinimize: Iter: 188  F: -2073.380918923219724  |grad|_K:  1.541e-05  alpha:  3.663e-01  linmin: -1.398e-04  t[s]:  15591.13
	FillingsUpdate:  mu: +0.097155624  nElectrons: 351.000000  magneticMoment: [ Abs: 35.78098  Tot: +0.00000 ]
	SubspaceRotationAdjust: set factor to 0.106
ElecMinimize: Iter: 189  F: -2073.393381444182978  |grad|_K:  1.429e-05  alpha:  2.975e-01  linmin:  4.800e-05  t[s]:  15664.04
	FillingsUpdate:  mu: +0.097064470  nElectrons: 351.000000  magneticMoment: [ Abs: 36.24684  Tot: -0.00000 ]
	SubspaceRotationAdjust: set factor to 0.115
ElecMinimize: Iter: 190  F: -2073.404793808918384  |grad|_K:  1.172e-05  alpha:  3.212e-01  linmin: -3.460e-04  t[s]:  15738.14
	FillingsUpdate:  mu: +0.097268710  nElectrons: 351.000000  magneticMoment: [ Abs: 36.59840  Tot: -0.00000 ]
	SubspaceRotationAdjust: set factor to 0.132
	SubspaceRotationAdjust: resetting CG because factor has changed by 7.73216
ElecMinimize: 	State modified externally: resetting search direction.
ElecMinimize: Iter: 191  F: -2073.414123323322656  |grad|_K:  1.077e-05  alpha:  3.782e-01
[...]
ion O   0.006590143232422   0.033333174077003   0.240202023041690 1

# Forces in Lattice coordinates:
force Ni  -0.012269515243643  -0.014141771220716  -0.010405687814922 1
force Ni  -0.014994258680057   0.004327436823238   0.007762564194899 1
force Ni  -0.002156884153672   0.001946299939209  -0.019786650984357 1
force Ni  -0.003023257424619  -0.007355771594662   0.006785099757001 1
force Ni   0.008201284356688   0.015379247430373  -0.425777874125652 0
force Ni  -0.019209054239666   0.045141664134814  -0.119708435915407 0
force V  -0.002779701884847   0.009710745915778   0.007769277008982 1
force V  -0.001100857678226   0.005366435032380   0.009264339779268 1
force V   0.007042954520852   0.008748218047081  -0.028789938024917 1
force V   0.001140583755912   0.006604110187514  -0.009819397592825 1
force V  -0.013700393852341  -0.005455053186568   0.277944397292938 0
force Cr  -0.016145526113395  -0.006809822286011  -0.106263471583250 0
force Cr  -0.005033887310169  -0.018582076740022  -0.676000732457827 0
force Cr   0.054899863794560  -0.090598629106635  -1.735037893760810 0
force Co   0.065609363755602   0.088000947914287  -0.553834747936431 0
force Co  -0.041135091531104  -0.115075558269450  -0.560660707597165 0
force O  -0.002894276768751  -0.003297143418170   0.014168143505877 1
force O  -0.006600912514502   0.000613400797187  -0.029650404872525 1
force O   0.006012419675858  -0.011542206729595  -0.014303840975010 1
force O   0.001308401324307   0.002444049025105   0.011753105401421 1
force O  -0.002431520974332  -0.002213117649046  -0.024495342379441 1
force O   0.001645915340240   0.001091548852398  -0.004545313099362 1
force O   0.002921211146776   0.001348477640971   0.023513624697499 1
force O  -0.004473885739480  -0.000987296047728  -0.001763878614393 1
force O   0.047643756063843   0.256413957279643   1.330207546018322 0
force O   0.059970137841262  -0.261675601230259   0.416980133953161 0
force O  -0.045675607236316   0.279219917254965   0.529440737719248 0
force O  -0.077449944513754  -0.242605534740200   0.631530992156839 0
force O   0.007248144092619   0.006047445814250   0.048982101062174 0
force O   0.006031500170948  -0.014611558881121   0.264106813049848 0
force O  -0.020410132021893   0.033220783807202   0.419866023704877 0
force O   0.010489853237393   0.029797922972865   0.412171601048776 0
force O   0.001046765671529   0.002144177694269   0.025640832091064 1

# Energy components:
   Eewald =     5275.4373552600427502
       EH =     7139.8948129878353939
     Eloc =   -14633.5474140506885306
      Enl =     -555.0093232915264707
   Epulay =       -0.0004860324562652
      Exc =     -250.5786887044066873
       KE =      948.8480531161114868
        U =        1.4437283936848080
-------------------------------------
     Etot =    -2073.5119623214031890
       TS =        0.0008646673306141
-------------------------------------
        F =    -2073.5128269887336501

IonicMinimize: Iter:  21  F: -2073.512826988733650  |grad|_K:  4.949e-04  alpha:  1.000e+00  linmin: -1.934e-03  t[s]: 130172.57

#--- Lowdin population analysis ---
# oxidation-state Ni +3.525 +3.538 +3.335 +3.563 +3.282 +3.605
# magnetic-moments Ni +0.758 +0.710 -0.356 -0.967 +0.314 -0.836
# oxidation-state V +1.382 +1.011 +1.252 +1.015 +0.963
# magnetic-moments V +2.149 +2.906 -2.076 -2.859 -2.920
# oxidation-state Cr +2.886 +2.981 +2.913
# magnetic-moments Cr +3.681 +3.309 -4.007
# oxidation-state Co +1.291 +1.289
# magnetic-moments Co -2.778 +2.764
# oxidation-state O -0.632 -0.730 -0.698 -0.743 -0.844 -0.771 -0.868 -0.790 -0.800 -0.853 -0.856 -0.792 -0.940 -0.887 -0.893 -0.912 -0.296
# magnetic-moments O -0.260 +0.012 +0.096 +0.123 -0.008 -0.026 -0.100 -0.170 -0.239 -0.166 -0.080 -0.200 +0.001 +0.038 -0.141 -0.081 +1.416


-------- Electronic minimization -----------
	FillingsUpdate:  mu: +0.113436358  nElectrons: 351.000000  magneticMoment: [ Abs: 38.55902  Tot: -0.00000 ]
ElecMinimize: Iter:   0  F: -2073.168035273947226  |grad|_K:  1.001e-04  alpha:  1.000e+00
	FillingsUpdate:  mu: +0.099443174  nElectrons: 351.000000  magneticMoment: [ Abs: 38.48674  Tot: +0.00000 ]
	SubspaceRotationAdjust: set factor to 0.531
ElecMinimize: Iter:   1  F: -2073.495079278651701  |grad|_K:  1.736e-05  alpha:  1.926e-01  linmin:  6.022e-03  t[s]: 130303.72
	FillingsUpdate:  mu: +0.104434362  nElectrons: 351.000000  magneticMoment: [ Abs: 38.60789  Tot: +0.00000 ]
	SubspaceRotationAdjust: set factor to 0.396
ElecMinimize: Iter:   2  F: -2073.505200047681683  |grad|_K:  9.991e-06  alpha:  1.977e-01  linmin: -1.705e-03  t[s]: 130379.70
	FillingsUpdate:  mu: +0.105243537  nElectrons: 351.000000  magneticMoment: [ Abs: 38.54248  Tot: -0.00000 ]
	SubspaceRotationAdjust: set factor to 0.295
ElecMinimize: Iter:   3  F: -2073.508508652647834  |grad|_K:  6.866e-06  alpha:  1.794e-01  linmin:  7.904e-04  t[s]: 130453.41
	FillingsUpdate:  mu: +0.099668697  nElectrons: 351.000000  magneticMoment: [ Abs: 38.53864  Tot: +0.00000 ]
	SubspaceRotationAdjust: set factor to 0.314
ElecMinimize: Iter:   4  F: -2073.510277295121341  |grad|_K:  4.227e-06  alpha:  2.244e-01  linmin: -1.178e-04  t[s]: 130527.23
	FillingsUpdate:  mu: +0.100907583  nElectrons: 351.000000  magneticMoment: [ Abs: 38.56547  Tot: +0.00000 ]
	SubspaceRotationAdjust: set factor to 0.397
ElecMinimize: Iter:   5  F: -2073.511462885358014  |grad|_K:  3.446e-06  alpha:  3.761e-01  linmin: -6.836e-05  t[s]: 130602.10
	FillingsUpdate:  mu: +0.103387763  nElectrons: 351.000000  magneticMoment: [ Abs: 38.55852  Tot: +0.00000 ]
	SubspaceRotationAdjust: set factor to 0.344
ElecMinimize: Iter:   6  F: -2073.512039557549997  |grad|_K:  3.079e-06  alpha:  2.735e-01  linmin:  2.996e-05  t[s]: 130676.03
	FillingsUpdate:  mu: +0.101554886  nElectrons: 351.000000  magneticMoment: [ Abs: 38.56463  Tot: -0.00000 ]
	SubspaceRotationAdjust: set factor to 0.348
ElecMinimize: Iter:   7  F: -2073.512478482115512  |grad|_K:  2.024e-06  alpha:  2.671e-01  linmin: -3.973e-05  t[s]: 130749.71
	FillingsUpdate:  mu: +0.101107565  nElectrons: 351.000000  magneticMoment: [ Abs: 38.56212  Tot: -0.00000 ]
	SubspaceRotationAdjust: set factor to 0.413
ElecMinimize: Iter:   8  F: -2073.512713724529021  |grad|_K:  1.322e-06  alpha:  3.276e-01  linmin:  5.943e-06  t[s]: 130824.02
	FillingsUpdate:  mu: +0.101974767  nElectrons: 351.000000  magneticMoment: [ Abs: 38.56229  Tot: -0.00000 ]
	SubspaceRotationAdjust: set factor to 0.372
ElecMinimize: Iter:   9  F: -2073.512803720142983  |grad|_K:  9.594e-07  alpha:  2.959e-01  linmin:  1.069e-05  t[s]: 130897.94
	FillingsUpdate:  mu: +0.101629846  nElectrons: 351.000000  magneticMoment: [ Abs: 38.56684  Tot: +0.00000 ]
	SubspaceRotationAdjust: set factor to 0.27
ElecMinimize: Iter:  10  F: -2073.512835144575547  |grad|_K:  6.308e-07  alpha:  1.973e-01  linmin:  1.140e-07  t[s]: 130971.50
	FillingsUpdate:  mu: +0.101561878  nElectrons: 351.000000  magneticMoment: [ Abs: 38.56437  Tot: -0.00000 ]
	SubspaceRotationAdjust: set factor to 0.294
ElecMinimize: Iter:  11  F: -2073.512853765223554  |grad|_K:  3.709e-07  alpha:  2.688e-01  linmin:  5.971e-06  t[s]: 131045.25
	FillingsUpdate:  mu: +0.101641126  nElectrons: 351.000000  magneticMoment: [ Abs: 38.56432  Tot: +0.00000 ]
	SubspaceRotationAdjust: set factor to 0.334
ElecMinimize: Iter:  12  F: -2073.512861635490935  |grad|_K:  2.570e-07  alpha:  3.289e-01  linmin:  1.156e-06  t[s]: 131119.13
	FillingsUpdate:  mu: +0.101594885  nElectrons: 351.000000  magneticMoment: [ Abs: 38.56585  Tot: -0.00000 ]
	SubspaceRotationAdjust: set factor to 0.303
ElecMinimize: Iter:  13  F: -2073.512864674357843  |grad|_K:  1.890e-07  alpha:  2.644e-01  linmin: -3.615e-06  t[s]: 131193.15
	FillingsUpdate:  mu: +0.101641153  nElectrons: 351.000000  magneticMoment: [ Abs: 38.56562  Tot: -0.00000 ]
	SubspaceRotationAdjust: set factor to 0.316
ElecMinimize: Iter:  14  F: -2073.512866600121924  |grad|_K:  1.384e-07  alpha:  3.094e-01  linmin:  2.364e-06  t[s]: 131267.19
	FillingsUpdate:  mu: +0.101610171  nElectrons: 351.000000  magneticMoment: [ Abs: 38.56601  Tot: -0.00000 ]
	SubspaceRotationAdjust: set factor to 0.382
ElecMinimize: Iter:  15  F: -2073.512867779646058  |grad|_K:  1.137e-07  alpha:  3.537e-01  linmin:  2.048e-06  t[s]: 131341.99
	FillingsUpdate:  mu: +0.101602823  nElectrons: 351.000000  magneticMoment: [ Abs: 38.56664  Tot: +0.00000 ]
	SubspaceRotationAdjust: set factor to 0.445
ElecMinimize: Iter:  16  F: -2073.512868599856574  |grad|_K:  1.008e-07  alpha:  3.643e-01  linmin:  3.757e-06  t[s]: 131416.19
	FillingsUpdate:  mu: +0.101649457  nElectrons: 351.000000  magneticMoment: [ Abs: 38.56679  Tot: +0.00000 ]
	SubspaceRotationAdjust: set factor to 0.44
ElecMinimize: Iter:  17  F: -2073.512869208620941  |grad|_K:  1.077e-07  alpha:  3.439e-01  linmin:  2.220e-06  t[s]: 131490.41
	FillingsUpdate:  mu: +0.101605624  nElectrons: 351.000000  magneticMoment: [ Abs: 38.56792  Tot: +0.00000 ]
	SubspaceRotationAdjust: set factor to 0.41
ElecMinimize: Iter:  18  F: -2073.512869823902747  |grad|_K:  1.087e-07  alpha:  3.045e-01  linmin: -1.912e-06  t[s]: 131564.55
	FillingsUpdate:  mu: +0.101623020  nElectrons: 351.000000  magneticMoment: [ Abs: 38.56850  Tot: +0.00000 ]
	SubspaceRotationAdjust: set factor to 0.439
ElecMinimize: Iter:  19  F: -2073.512870646152351  |grad|_K:  1.138e-07  alpha:  3.995e-01  linmin: -1.833e-06  t[s]: 131640.70
	FillingsUpdate:  mu: +0.101620769  nElectrons: 351.000000  magneticMoment: [ Abs: 38.57006  Tot: +0.00000 ]
	SubspaceRotationAdjust: set factor to 0.501
ElecMinimize: Iter:  20  F: -2073.512871790148893  |grad|_K:  1.289e-07  alpha:  5.078e-01  linmin:  1.247e-06  t[s]: 131717.44
	FillingsUpdate:  mu: +0.101621391  nElectrons: 351.000000  magneticMoment: [ Abs: 38.57206  Tot: +0.00000 ]
	SubspaceRotationAdjust: set factor to 0.574
ElecMinimize: Iter:  21  F: -2073.512873386284355  |grad|_K:  1.524e-07  alpha:  5.516e-01  linmin:  3.436e-06  t[s]: 131792.99
	FillingsUpdate:  mu: +0.101630044  nElectrons: 351.000000  magneticMoment: [ Abs: 38.57364  Tot: +0.00000 ]
	SubspaceRotationAdjust: set factor to 0.636
ElecMinimize: Iter:  22  F: -2073.512875273921054  |grad|_K:  1.745e-07  alpha:  4.667e-01  linmin:  1.190e-06  t[s]: 131868.16
	FillingsUpdate:  mu: +0.101571735  nElectrons: 351.000000  magneticMoment: [ Abs: 38.57584  Tot: +0.00000 ]
	SubspaceRotationAdjust: set factor to 0.529
ElecMinimize: Iter:  23  F: -2073.512876996483556  |grad|_K:  2.150e-07  alpha:  3.252e-01  linmin: -2.532e-07  t[s]: 131942.28
	FillingsUpdate:  mu: +0.101647925  nElectrons: 351.000000  magneticMoment: [ Abs: 38.57574  Tot: -0.00000 ]
	SubspaceRotationAdjust: set factor to 0.41
ElecMinimize: Iter:  24  F: -2073.512878377327070  |grad|_K:  1.685e-07  alpha:  1.711e-01  linmin: -7.633e-06  t[s]: 132015.15
	FillingsUpdate:  mu: +0.101620532  nElectrons: 351.000000  magneticMoment: [ Abs: 38.57637  Tot: -0.00000 ]
	SubspaceRotationAdjust: set factor to 0.506
ElecMinimize: Iter:  25  F: -2073.512880108917670  |grad|_K:  1.415e-07  alpha:  3.498e-01  linmin:  9.370e-07  t[s]: 132088.47
	FillingsUpdate:  mu: +0.101588379  nElectrons: 351.000000  magneticMoment: [ Abs: 38.57654  Tot: +0.00000 ]
	SubspaceRotationAdjust: set factor to 0.564
ElecMinimize: Iter:  26  F: -2073.512881407059922  |grad|_K:  1.428e-07  alpha:  3.724e-01  linmin:  5.691e-07  t[s]: 132162.19
	FillingsUpdate:  mu: +0.101646256  nElectrons: 351.000000  magneticMoment: [ Abs: 38.57535  Tot: +0.00000 ]
	SubspaceRotationAdjust: set factor to 0.505
ElecMinimize: Iter:  27  F: -2073.512882272566912  |grad|_K:  1.524e-07  alpha:  2.437e-01  linmin: -1.041e-06  t[s]: 132235.59
	FillingsUpdate:  mu: +0.101603068  nElectrons: 351.000000  magneticMoment: [ Abs: 38.57482  Tot: +0.00000 ]
	SubspaceRotationAdjust: set factor to 0.498
ElecMinimize: Iter:  28  F: -2073.512883275242075  |grad|_K:  1.298e-07  alpha:  2.481e-01  linmin: -2.115e-07  t[s]: 132308.50
	FillingsUpdate:  mu: +0.101608022  nElectrons: 351.000000  magneticMoment: [ Abs: 38.57293  Tot: -0.00000 ]
	SubspaceRotationAdjust: set factor to 0.592
ElecMinimize: Iter:  29  F: -2073.512884383076198  |grad|_K:  1.154e-07  alpha:  3.775e-01  linmin:  2.806e-06  t[s]: 132384.32
	FillingsUpdate:  mu: +0.101611938  nElectrons: 351.000000  magneticMoment: [ Abs: 38.57109  Tot: +0.00000 ]
	SubspaceRotationAdjust: set factor to 0.676
ElecMinimize: Iter:  30  F: -2073.512885277466921  |grad|_K:  1.045e-07  alpha:  3.859e-01  linmin:  1.784e-06  t[s]: 132459.77
	FillingsUpdate:  mu: +0.101576814  nElectrons: 351.000000  magneticMoment: [ Abs: 38.57038  Tot: -0.00000 ]
	SubspaceRotationAdjust: set factor to 0.551
ElecMinimize: Iter:  31  F: -2073.512885769845070  |grad|_K:  1.147e-07  alpha:  2.592e-01  linmin:  2.057e-07  t[s]: 132534.20
	FillingsUpdate:  mu: +0.101610721  nElectrons: 351.000000  magneticMoment: [ Abs: 38.56901  Tot: -0.00000 ]
	SubspaceRotationAdjust: set factor to 0.418
ElecMinimize: Iter:  32  F: -2073.512886109631836  |grad|_K:  8.061e-08  alpha:  1.481e-01  linmin: -5.872e-06  t[s]: 132608.78
	FillingsUpdate:  mu: +0.101597112  nElectrons: 351.000000  magneticMoment: [ Abs: 38.56806  Tot: -0.00000 ]
	SubspaceRotationAdjust: set factor to 0.527
ElecMinimize: Iter:  33  F: -2073.512886457464447  |grad|_K:  6.058e-08  alpha:  3.071e-01  linmin: -4.887e-06  t[s]: 132683.41
	FillingsUpdate:  mu: +0.101580576  nElectrons: 351.000000  magneticMoment: [ Abs: 38.56763  Tot: +0.00000 ]
	SubspaceRotationAdjust: set factor to 0.562
ElecMinimize: Iter:  34  F: -2073.512886656919363  |grad|_K:  5.528e-08  alpha:  3.120e-01  linmin:  2.769e-06  t[s]: 132756.96
ElecMinimize: Converged (|Delta F|<1.000000e-06 for 5 iters).
Setting wave functions to eigenvectors of Hamiltonian

# Ionic positions in lattice coordinates:
ion Ni  -0.019596998849280  -0.027848280909508   0.164095452447788 1
ion Ni   0.490344812082368   0.000722740105296   0.164369070623558 1
ion Ni   0.491849350108163   0.502563663690944   0.158443981061423 1
ion Ni   0.253981304036148   0.251227327036464   0.056806597999913 1
ion Ni   0.500000000000000   0.000000000000000  -0.050000000000000 0
ion Ni  -0.250000000000000   0.750000000000000  -0.150000000000000 0
ion V   0.012258503648246   0.486351956882593   0.158271245188642 1
ion V   0.254816431933949   0.760424280931688   0.056852039243089 1
ion V  -0.263545611903698   0.242353809710234   0.059559948084195 1
ion V  -0.259428811469619   0.754025456386282   0.058677883667322 1
ion V   0.000000000000000   0.000000000000000  -0.050000000000000 0
ion Cr   0.000000000000000   0.500000000000000  -0.050000000000000 0
ion Cr   0.500000000000000   0.500000000000000  -0.050000000000000 0
ion Cr   0.250000000000000   0.250000000000000  -0.150000000000000 0
ion Co   0.250000000000000   0.750000000000000  -0.150000000000000 0
ion Co  -0.250000000000000   0.250000000000000  -0.150000000000000 0
ion O   0.263114162352968   0.276799373852838   0.149684620929827 1
ion O   0.241998312217405   0.724909996422273   0.154512093355982 1
ion O  -0.268519095801306   0.278740352742052   0.150288855122986 1
ion O  -0.260732658288641   0.717996312395945   0.155464790319607 1
ion O  -0.010544916772887   0.014108059012269   0.062318235725535 1
ion O   0.497970558562432   0.018173648444488   0.044320451976014 1
ion O  -0.011875609498429   0.489585801778165   0.055626679115672 1
ion O   0.498420178739106   0.493073869803083   0.041519179977891 1
ion O   0.250000000000000   0.250000000000000  -0.050000000000000 0
ion O   0.250000000000000   0.750000000000000  -0.050000000000000 0
ion O  -0.250000000000000   0.250000000000000  -0.050000000000000 0
ion O  -0.250000000000000   0.750000000000000  -0.050000000000000 0
ion O   0.000000000000000   0.000000000000000  -0.150000000000000 0
ion O   0.500000000000000   0.000000000000000  -0.150000000000000 0
ion O   0.000000000000000   0.500000000000000  -0.150000000000000 0
ion O   0.500000000000000   0.500000000000000  -0.150000000000000 0
ion O   0.006331888991770   0.034884354021429   0.240226022573512 1

# Forces in Lattice coordinates:
force Ni  -0.000406839838200   0.001602658612117  -0.018728848470683 1
force Ni  -0.009086168718208   0.003958660983403  -0.025581431672753 1
force Ni   0.004703258767466  -0.005915803429343  -0.046423431121973 1
force Ni  -0.003547488607410   0.000098223265612   0.009310418288023 1
force Ni   0.007321381553295   0.015369066900384  -0.409286445605992 0
force Ni  -0.019043091420305   0.045061207883391  -0.121080427824341 0
force V  -0.003352211894590  -0.001670648548214  -0.014889631459283 1
force V  -0.002000274831337   0.000459715166947   0.011217424445843 1
force V   0.004223384051636   0.004023359290712  -0.023345619304023 1
force V   0.001653145027964   0.000595822355545  -0.007063370882566 1
force V  -0.015514205550640  -0.005436876733561   0.278187734983361 0
force Cr  -0.016074195867211  -0.007073820710111  -0.100379401261502 0
force Cr  -0.004528252299979  -0.019608384829004  -0.679056282469278 0
force Cr   0.054732457459895  -0.090544584798820  -1.735130858022716 0
force Co   0.065557328023433   0.087975435522324  -0.554947849218214 0
force Co  -0.041112845635526  -0.115105417351978  -0.561066911279664 0
force O  -0.004089390289561  -0.001286389943727   0.011271516077695 1
force O  -0.008579778739307   0.001664995500177  -0.015894032011326 1
force O  -0.001792687746064  -0.005736053550029  -0.001700318001490 1
force O  -0.000200170180789  -0.001149544316660   0.000056163413463 1
force O  -0.006510899440492  -0.000843680588525  -0.045600353457230 1
force O  -0.000088069341279  -0.009058086403137  -0.008957694679382 1
force O   0.006917406164473   0.004257156385465   0.020143252033112 1
force O   0.003971182416306  -0.002327055592659  -0.013501576807093 1
force O   0.047775099280826   0.255869403791773   1.330735965347237 0
force O   0.059938804222384  -0.261517320337774   0.420079033479138 0
force O  -0.046204918455907   0.279163014407519   0.526237658786077 0
force O  -0.077587617695934  -0.242736028776112   0.631602520843539 0
force O   0.007344296683943   0.005812882279470   0.053493110175587 0
force O   0.006164971171380  -0.014449222194463   0.267632211651048 0
force O  -0.020617701689807   0.033341940548144   0.418863843621029 0
force O   0.010381118018545   0.030283862221528   0.419411502180647 0
force O  -0.001226508726726   0.016951805321310   0.028791289281752 1

# Energy components:
   Eewald =     5271.3462069498873461
       EH =     7135.8104600764490897
     Eloc =   -14625.3682314144680277
      Enl =     -555.0075490725434975
   Epulay =       -0.0004860324562652
      Exc =     -250.5763768839159127
       KE =      948.8399626372333842
        U =        1.4439860067440928
-------------------------------------
     Etot =    -2073.5120277330697718
       TS =        0.0008589238497184
-------------------------------------
        F =    -2073.5128866569193633

IonicMinimize: Iter:  22  F: -2073.512886656919363  |grad|_K:  4.729e-04  alpha:  1.000e+00  linmin: -1.073e-02  t[s]: 132781.85
IonicMinimize: Converged (|Delta F|<1.000000e-04 for 3 iters).

#--- Lowdin population analysis ---
# oxidation-state Ni +3.527 +3.538 +3.336 +3.564 +3.282 +3.605
# magnetic-moments Ni +0.758 +0.709 -0.358 -0.968 +0.312 -0.836
# oxidation-state V +1.382 +1.011 +1.253 +1.016 +0.964
# magnetic-moments V +2.150 +2.907 -2.074 -2.858 -2.919
# oxidation-state Cr +2.886 +2.982 +2.913
# magnetic-moments Cr +3.683 +3.309 -4.007
# oxidation-state Co +1.291 +1.289
# magnetic-moments Co -2.778 +2.764
# oxidation-state O -0.631 -0.730 -0.699 -0.743 -0.844 -0.771 -0.868 -0.791 -0.800 -0.853 -0.856 -0.792 -0.940 -0.887 -0.893 -0.912 -0.298
# magnetic-moments O -0.260 +0.012 +0.094 +0.126 -0.007 -0.027 -0.101 -0.168 -0.239 -0.165 -0.080 -0.200 +0.001 +0.038 -0.141 -0.082 +1.414


Dumping 'run.ionpos' ... done
Dumping 'run.lattice' ... done
Dumping 'run.Ecomponents' ... done
End date and time: Thu May  8 03:47:27 2025  (Duration: 1-12:53:08.63)
Done!
