
*************** JDFTx 1.7.0  ***************

Start date and time: Fri May 16 21:12:09 2025
Executable /data2/jt577/jdftx_eat_withLibXC/build/jdftx with command-line: -i /data2/jt577/May_2025/Relax_Mag_litU/pure_CrO/runs/calc_20250516-211208/O/O.in
Running on hosts (process indices):  node3402 (0-8)
Divided in process groups (process indices):  0 (0)  1 (1)  2 (2)  3 (3)  4 (4)  5 (5)  6 (6)  7 (7)  8 (8)
Resource initialization completed at t[s]:      0.00
Run totals: 9 processes, 90 threads, 0 GPUs


Input parsed successfully to the following command list (including defaults):

add-mix 
add-U 	Cr d 0.128623
basis kpoint-dependent
coords-type Lattice
core-overlap-check vector
coulomb-interaction Periodic
davidson-band-ratio 1.1
dump End IonicPositions Lattice Ecomponents
dump-name O.$VAR
elec-cutoff 30
elec-eigen-algo Davidson
elec-ex-corr gga-x-rpbe gga-c-pbe
elec-smearing Fermi 0.001
electronic-minimize  \
	dirUpdateScheme      FletcherReeves \
	linminMethod         DirUpdateRecommended \
	nIterations          1000 \
	history              15 \
	knormThreshold       0 \
	energyDiffThreshold  1e-06 \
	nEnergyDiff          5 \
	alphaTstart          1 \
	alphaTmin            1e-10 \
	updateTestStepSize   yes \
	alphaTreduceFactor   0.1 \
	alphaTincreaseFactor 3 \
	nAlphaAdjustMax      3 \
	wolfeEnergy          0.0001 \
	wolfeGradient        0.9 \
	fdTest               no
exchange-regularization WignerSeitzTruncated
fluid None
fluid-ex-corr (null) lda-PZ
fluid-gummel-loop 10 1.000000e-05
fluid-minimize  \
	dirUpdateScheme      PolakRibiere \
	linminMethod         DirUpdateRecommended \
	nIterations          100 \
	history              15 \
	knormThreshold       0 \
	energyDiffThreshold  0 \
	nEnergyDiff          2 \
	alphaTstart          1 \
	alphaTmin            1e-10 \
	updateTestStepSize   yes \
	alphaTreduceFactor   0.1 \
	alphaTincreaseFactor 3 \
	nAlphaAdjustMax      3 \
	wolfeEnergy          0.0001 \
	wolfeGradient        0.9 \
	fdTest               no
fluid-solvent H2O 55.338 ScalarEOS \
	epsBulk 78.4 \
	pMol 0.92466 \
	epsInf 1.77 \
	Pvap 1.06736e-10 \
	sigmaBulk 4.62e-05 \
	Rvdw 2.61727 \
	Res 1.42 \
	tauNuc 343133 \
	poleEl 15 7 1
forces-output-coords Positions
initial-magnetic-moments  \
	Cr 1 -1 1 -1 1 1 -1 -1 -1 1 -1 1 -1 -1 1 1
initial-state O.$VAR
ion Cr  0.000000000000000   0.000000000000000   0.150000000000000 1
ion Cr  0.500000000000000   0.000000000000000   0.150000000000000 1
ion Cr  0.000000000000000   0.500000000000000   0.150000000000000 1
ion Cr  0.500000000000000   0.500000000000000   0.150000000000000 1
ion Cr  0.250000000000000   0.250000000000000   0.050000000000000 1
ion Cr  0.250000000000000   0.750000000000000   0.050000000000000 1
ion Cr -0.250000000000000   0.250000000000000   0.050000000000000 1
ion Cr -0.250000000000000   0.750000000000000   0.050000000000000 1
ion Cr  0.000000000000000   0.000000000000000  -0.050000000000000 0
ion Cr  0.500000000000000   0.000000000000000  -0.050000000000000 0
ion Cr  0.000000000000000   0.500000000000000  -0.050000000000000 0
ion Cr  0.500000000000000   0.500000000000000  -0.050000000000000 0
ion Cr  0.250000000000000   0.250000000000000  -0.150000000000000 0
ion Cr  0.250000000000000   0.750000000000000  -0.150000000000000 0
ion Cr -0.250000000000000   0.250000000000000  -0.150000000000000 0
ion Cr -0.250000000000000   0.750000000000000  -0.150000000000000 0
ion O  0.250000000000000   0.250000000000000   0.150000000000000 1
ion O  0.250000000000000   0.750000000000000   0.150000000000000 1
ion O -0.250000000000000   0.250000000000000   0.150000000000000 1
ion O -0.250000000000000   0.750000000000000   0.150000000000000 1
ion O  0.000000000000000   0.000000000000000   0.050000000000000 1
ion O  0.500000000000000   0.000000000000000   0.050000000000000 1
ion O  0.000000000000000   0.500000000000000   0.050000000000000 1
ion O  0.500000000000000   0.500000000000000   0.050000000000000 1
ion O  0.250000000000000   0.250000000000000  -0.050000000000000 0
ion O  0.250000000000000   0.750000000000000  -0.050000000000000 0
ion O -0.250000000000000   0.250000000000000  -0.050000000000000 0
ion O -0.250000000000000   0.750000000000000  -0.050000000000000 0
ion O  0.000000000000000   0.000000000000000  -0.150000000000000 0
ion O  0.500000000000000   0.000000000000000  -0.150000000000000 0
ion O  0.000000000000000   0.500000000000000  -0.150000000000000 0
ion O  0.500000000000000   0.500000000000000  -0.150000000000000 0
ion O  0.000000000000000   0.000000000000000   0.230000000000000 1
ion-species SG15/$ID_ONCV_PBE.upf
ion-width 0
ionic-minimize  \
	dirUpdateScheme      L-BFGS \
	linminMethod         DirUpdateRecommended \
	nIterations          1000 \
	history              15 \
	knormThreshold       0.0001 \
	energyDiffThreshold  0.0001 \
	nEnergyDiff          3 \
	alphaTstart          1 \
	alphaTmin            1e-10 \
	updateTestStepSize   yes \
	alphaTreduceFactor   0.1 \
	alphaTincreaseFactor 3 \
	nAlphaAdjustMax      3 \
	wolfeEnergy          0.0001 \
	wolfeGradient        0.9 \
	fdTest               no
kpoint   0.500000000000   0.500000000000   0.500000000000  1.00000000000000
kpoint-folding 3 3 1 
latt-move-scale 1 1 1
latt-scale 1 1 1 
lattice  \
	   8.410000000000000    8.410000000000000    0.000000000000000  \
	   8.410000000000000   -8.410000000000000    0.000000000000000  \
	   0.000000000000000    0.000000000000000   42.049999999999997 
lattice-minimize  \
	dirUpdateScheme      L-BFGS \
	linminMethod         DirUpdateRecommended \
	nIterations          0 \
	history              15 \
	knormThreshold       0 \
	energyDiffThreshold  1e-06 \
	nEnergyDiff          2 \
	alphaTstart          1 \
	alphaTmin            1e-10 \
	updateTestStepSize   yes \
	alphaTreduceFactor   0.1 \
	alphaTincreaseFactor 3 \
	nAlphaAdjustMax      3 \
	wolfeEnergy          0.0001 \
	wolfeGradient        0.9 \
	fdTest               no
lcao-params -1 1e-06 0.001
pcm-variant GLSSA13
spintype z-spin
subspace-rotation-factor 1 yes
symmetries none
symmetry-threshold 0.0001


Applied RMS atom displacement 0 bohrs to make symmetries exact.

---------- Initializing the Grid ----------
R = 
[         8.41         8.41            0  ]
[         8.41        -8.41            0  ]
[            0            0        42.05  ]
unit cell volume = 5948.23
G =
[   0.373554   0.373554         -0  ]
[   0.373554  -0.373554         -0  ]
[         -0         -0   0.149422  ]
Minimum fftbox size, Smin = [  60  60  208  ]
Chosen fftbox size, S = [  60  60  210  ]

---------- Exchange Correlation functional ----------
Initialized LibXC exchange functional 'Hammer, Hansen, and Norskov'
Initialized LibXC correlation functional 'Perdew, Burke & Ernzerhof'

---------- Setting up pseudopotentials ----------
Width of ionic core gaussian charges (only for fluid interactions / plotting) set to 0

Reading pseudopotential file '/data2/jt577/jdftx_eat_withLibXC/build/pseudopotentials/SG15/Cr_ONCV_PBE.upf':
  'Cr' pseudopotential, 'PBE' functional
  Generated using ONCVPSP code by D. R. Hamann
  Author: Martin Schlipf and Francois Gygi  Date: 150915.
  14 valence electrons, 4 orbitals, 6 projectors, 1160 radial grid points, with lMax = 2
  Transforming local potential to a uniform radial grid of dG=0.02 with 1373 points.
  Transforming nonlocal projectors to a uniform radial grid of dG=0.02 with 528 points.
    3S    l: 0   occupation:  2.0   eigenvalue: -2.865131
    3P    l: 1   occupation:  6.0   eigenvalue: -1.810600
    4S    l: 0   occupation:  2.0   eigenvalue: -0.180525
    3D    l: 2   occupation:  4.0   eigenvalue: -0.220312
  Transforming atomic orbitals to a uniform radial grid of dG=0.02 with 528 points.
  WARNING: large normalization error in atomic orbital 1s (integral: 0.000001).
  Core radius for overlap checks: 2.10 bohrs.
  Reading pulay file /data2/jt577/jdftx_eat_withLibXC/build/pseudopotentials/SG15/Cr_ONCV_PBE.pulay ... using dE_dnG = -9.817895e-06 computed for Ecut = 30.

Reading pseudopotential file '/data2/jt577/jdftx_eat_withLibXC/build/pseudopotentials/SG15/O_ONCV_PBE.upf':
  'O' pseudopotential, 'PBE' functional
  Generated using ONCVPSP code by D. R. Hamann
  Author: Martin Schlipf and Francois Gygi  Date: 150915.
  6 valence electrons, 2 orbitals, 4 projectors, 936 radial grid points, with lMax = 1
  Transforming local potential to a uniform radial grid of dG=0.02 with 1373 points.
  Transforming nonlocal projectors to a uniform radial grid of dG=0.02 with 528 points.
    2S    l: 0   occupation:  2.0   eigenvalue: -0.880572
    2P    l: 1   occupation:  4.0   eigenvalue: -0.331869
  Transforming atomic orbitals to a uniform radial grid of dG=0.02 with 528 points.
  Core radius for overlap checks: 1.29 bohrs.
  Reading pulay file /data2/jt577/jdftx_eat_withLibXC/build/pseudopotentials/SG15/O_ONCV_PBE.pulay ... using dE_dnG = -8.209514e-03 computed for Ecut = 30.

Initialized 2 species with 33 total atoms.

Folded 1 k-points by 3x3x1 to 9 k-points.

---------- Setting up k-points, bands, fillings ----------
No reducable k-points. 
Computing the number of bands and number of electrons
Calculating initial fillings.
nElectrons: 326.000000   nBands: 228   nStates: 18

----- Setting up reduced wavefunction bases (one per k-point) -----
average nbasis = 46667.556 , ideal nbasis = 46683.549

---------- Setting up ewald sum ----------
Optimum gaussian width for ewald sums = 4.036024 bohr.
Real space sum over 605 unit cells with max indices [  5  5  2  ]
Reciprocal space sum over 5915 terms with max indices [  6  6  17  ]

---------- Allocating electronic variables ----------
Initializing wave functions:  linear combination of atomic orbitals
Cr (M=1) pseudo-atom majority spin occupations:   s ( 1 0 )  p ( 3 )  d ( 3.5 )
Cr (M=1) pseudo-atom minority spin occupations:   s ( 1 0 )  p ( 3 )  d ( 2.5 )
O pseudo-atom occupations:   s ( 2 )  p ( 4 )
	FillingsUpdate:  mu: +0.839189711  nElectrons: 326.000000  magneticMoment: [ Abs: 0.68939  Tot: -0.00000 ]
LCAOMinimize: Iter:   0  F: -1479.2039393842085246  |grad|_K:  1.557e-02  alpha:  1.000e+00
LCAOMinimize: 	Step increased F by 1.313333e+02, reducing alpha to 2.271998e-02.
	FillingsUpdate:  mu: +0.553788460  nElectrons: 326.000000  magneticMoment: [ Abs: 0.78233  Tot: -0.00000 ]
LCAOMinimize: Iter:   1  F: -1483.5658964926590215  |grad|_K:  1.210e-02  alpha:  2.272e-02  linmin: -9.506e-02  cgtest:  7.220e-01  t[s]:     55.07
LCAOMinimize: 	Wrong curvature in test step, increasing alphaT to 6.815994e-02.
	FillingsUpdate:  mu: +0.401112379  nElectrons: 326.000000  magneticMoment: [ Abs: 0.90553  Tot: +0.00000 ]
LCAOMinimize: Iter:   2  F: -1487.2442296148283276  |grad|_K:  1.203e-02  alpha: -9.578e-02  linmin: -7.810e-02  cgtest:  8.506e-01  t[s]:     69.36
LCAOMinimize: 	Step increased F by 8.249646e+01, reducing alpha to 2.410991e-02.
	FillingsUpdate:  mu: +0.300548898  nElectrons: 326.000000  magneticMoment: [ Abs: 1.12784  Tot: -0.00000 ]
LCAOMinimize: Iter:   3  F: -1491.0666530764399340  |grad|_K:  1.141e-02  alpha:  2.411e-02  linmin: -7.512e-02  cgtest:  8.516e-01  t[s]:     96.11
LCAOMinimize: 	Predicted alpha/alphaT>3.000000, increasing alphaT to 7.232972e-02.
LCAOMinimize: 	Wrong curvature in test step, increasing alphaT to 2.169892e-01.
	FillingsUpdate:  mu: +0.497460100  nElectrons: 326.000000  magneticMoment: [ Abs: 2.34036  Tot: -0.00000 ]
LCAOMinimize: Iter:   4  F: -1501.5080759996405959  |grad|_K:  1.499e-02  alpha: -5.228e-01  linmin: -9.511e-02  cgtest:  2.898e-01  t[s]:    114.89
LCAOMinimize: 	Step increased F by 1.783687e+02, reducing alpha to 3.680702e-02.
	FillingsUpdate:  mu: +0.309405371  nElectrons: 326.000000  magneticMoment: [ Abs: 11.34055  Tot: -0.00000 ]
LCAOMinimize: Iter:   5  F: -1506.5553862330714310  |grad|_K:  5.027e-02  alpha:  3.681e-02  linmin:  2.206e-02  cgtest: -4.641e-01  t[s]:    141.19
LCAOMinimize: 	Bad step direction: g.d > 0.
LCAOMinimize: 	Undoing step.
LCAOMinimize: 	Step failed: resetting search direction.
	FillingsUpdate:  mu: +0.309405371  nElectrons: 326.000000  magneticMoment: [ Abs: 11.34055  Tot: -0.00000 ]
LCAOMinimize: Iter:   6  F: -1506.5553862330714310  |grad|_K:  5.027e-02  alpha:  0.000e+00
	FillingsUpdate:  mu: +0.149607354  nElectrons: 326.000000  magneticMoment: [ Abs: 11.37323  Tot: +0.00000 ]
LCAOMinimize: Iter:   7  F: -1514.4266092213031243  |grad|_K:  2.055e-02  alpha:  7.222e-03  linmin:  1.937e-01  cgtest: -8.284e-01  t[s]:    167.23
LCAOMinimize: 	Bad step direction: g.d > 0.
LCAOMinimize: 	Undoing step.
LCAOMinimize: 	Step failed: resetting search direction.
	FillingsUpdate:  mu: +0.149607354  nElectrons: 326.000000  magneticMoment: [ Abs: 11.37323  Tot: +0.00000 ]
LCAOMinimize: Iter:   8  F: -1514.4266092213031243  |grad|_K:  2.055e-02  alpha:  0.000e+00
	FillingsUpdate:  mu: -0.080984582  nElectrons: 326.000000  magneticMoment: [ Abs: 11.59187  Tot: -0.00000 ]
LCAOMinimize: Iter:   9  F: -1515.5155889932830178  |grad|_K:  5.685e-03  alpha:  5.411e-03  linmin:  1.063e-02  cgtest: -4.347e-02  t[s]:    193.75
	FillingsUpdate:  mu: +0.012846522  nElectrons: 326.000000  magneticMoment: [ Abs: 11.25136  Tot: +0.00000 ]
LCAOMinimize: Iter:  10  F: -1515.6969782771388964  |grad|_K:  2.215e-03  alpha:  1.355e-02  linmin:  1.233e-01  cgtest: -3.387e-01  t[s]:    209.81
	FillingsUpdate:  mu: -0.010459198  nElectrons: 326.000000  magneticMoment: [ Abs: 11.32852  Tot: +0.00000 ]
LCAOMinimize: Iter:  11  F: -1515.7365591111768026  |grad|_K:  2.133e-03  alpha:  2.549e-02  linmin:  6.044e-04  cgtest:  3.654e-01  t[s]:    225.83
	FillingsUpdate:  mu: -0.035645793  nElectrons: 326.000000  magneticMoment: [ Abs: 11.51049  Tot: -0.00000 ]
LCAOMinimize: Iter:  12  F: -1515.7669076069257699  |grad|_K:  1.966e-03  alpha:  1.431e-02  linmin:  4.093e-04  cgtest: -6.154e-02  t[s]:    241.67
	FillingsUpdate:  mu: -0.055538150  nElectrons: 326.000000  magneticMoment: [ Abs: 11.89295  Tot: +0.00000 ]
LCAOMinimize: Iter:  13  F: -1515.8018896409162153  |grad|_K:  1.790e-03  alpha:  1.851e-02  linmin: -9.831e-03  cgtest: -1.915e-02  t[s]:    257.69
	FillingsUpdate:  mu: -0.021732362  nElectrons: 326.000000  magneticMoment: [ Abs: 12.07113  Tot: +0.00000 ]
LCAOMinimize: Iter:  14  F: -1515.8537817886690391  |grad|_K:  1.610e-03  alpha:  2.882e-02  linmin: -8.865e-03  cgtest: -1.525e-01  t[s]:    273.32
	FillingsUpdate:  mu: -0.011463785  nElectrons: 326.000000  magneticMoment: [ Abs: 12.36495  Tot: +0.00000 ]
LCAOMinimize: Iter:  15  F: -1515.9047306076861332  |grad|_K:  2.969e-03  alpha:  3.548e-02  linmin: -1.478e-03  cgtest: -1.668e-01  t[s]:    288.90
	FillingsUpdate:  mu: -0.067840191  nElectrons: 326.000000  magneticMoment: [ Abs: 12.83905  Tot: -0.00000 ]
LCAOMinimize: Iter:  16  F: -1516.0282511154330223  |grad|_K:  1.579e-03  alpha:  2.848e-02  linmin: -1.724e-03  cgtest:  4.838e-01  t[s]:    304.51
	FillingsUpdate:  mu: -0.052132644  nElectrons: 326.000000  magneticMoment: [ Abs: 12.75783  Tot: -0.00000 ]
LCAOMinimize: Iter:  17  F: -1516.0472715644473283  |grad|_K:  1.401e-03  alpha:  1.631e-02  linmin:  9.288e-04  cgtest: -9.815e-03  t[s]:    319.91
	FillingsUpdate:  mu: -0.042878733  nElectrons: 326.000000  magneticMoment: [ Abs: 12.71179  Tot: +0.00000 ]
LCAOMinimize: Iter:  18  F: -1516.0673615843049902  |grad|_K:  8.985e-04  alpha:  2.155e-02  linmin: -7.652e-03  cgtest:  7.461e-02  t[s]:    335.69
	FillingsUpdate:  mu: -0.067408438  nElectrons: 326.000000  magneticMoment: [ Abs: 12.75910  Tot: -0.00000 ]
LCAOMinimize: Iter:  19  F: -1516.0853707176925127  |grad|_K:  3.918e-04  alpha:  4.447e-02  linmin: -2.715e-02  cgtest: -1.646e-01  t[s]:    351.37
	FillingsUpdate:  mu: -0.059059625  nElectrons: 326.000000  magneticMoment: [ Abs: 12.69605  Tot: -0.00000 ]
LCAOMinimize: Iter:  20  F: -1516.0898262906978289  |grad|_K:  6.257e-04  alpha:  5.609e-02  linmin: -1.956e-03  cgtest: -6.410e-02  t[s]:    367.09
	FillingsUpdate:  mu: -0.057207488  nElectrons: 326.000000  magneticMoment: [ Abs: 12.64384  Tot: -0.00000 ]
LCAOMinimize: Iter:  21  F: -1516.0927949929955503  |grad|_K:  3.672e-04  alpha:  1.592e-02  linmin:  1.661e-03  cgtest: -2.940e-02  t[s]:    382.60
LCAOMinimize: 	Predicted alpha/alphaT>3.000000, increasing alphaT to 4.775570e-02.
	FillingsUpdate:  mu: -0.066278263  nElectrons: 326.000000  magneticMoment: [ Abs: 12.63028  Tot: -0.00000 ]
LCAOMinimize: Iter:  22  F: -1516.1001427695641723  |grad|_K:  5.201e-04  alpha:  1.115e-01  linmin: -6.236e-03  cgtest:  2.247e-01  t[s]:    402.86
	FillingsUpdate:  mu: -0.047335118  nElectrons: 326.000000  magneticMoment: [ Abs: 12.56684  Tot: +0.00000 ]
LCAOMinimize: Iter:  23  F: -1516.1105880259221976  |grad|_K:  6.865e-04  alpha:  7.860e-02  linmin: -3.528e-04  cgtest: -1.891e-01  t[s]:    418.34
	FillingsUpdate:  mu: -0.047284842  nElectrons: 326.000000  magneticMoment: [ Abs: 12.57066  Tot: +0.00000 ]
LCAOMinimize: Iter:  24  F: -1516.1148263926943400  |grad|_K:  7.039e-04  alpha:  2.161e-02  linmin:  4.172e-03  cgtest: -7.184e-02  t[s]:    434.00
	FillingsUpdate:  mu: -0.061626179  nElectrons: 326.000000  magneticMoment: [ Abs: 12.65513  Tot: -0.00000 ]
LCAOMinimize: Iter:  25  F: -1516.1218409379980585  |grad|_K:  2.989e-04  alpha:  3.301e-02  linmin: -4.299e-03  cgtest:  5.646e-01  t[s]:    449.46
LCAOMinimize: Encountered beta<0, resetting CG.
	FillingsUpdate:  mu: -0.060197216  nElectrons: 326.000000  magneticMoment: [ Abs: 12.65362  Tot: -0.00000 ]
LCAOMinimize: Iter:  26  F: -1516.1228496957080552  |grad|_K:  3.480e-04  alpha:  2.394e-02  linmin: -3.271e-05  cgtest:  2.184e-03  t[s]:    464.87
	FillingsUpdate:  mu: -0.060796436  nElectrons: 326.000000  magneticMoment: [ Abs: 12.65085  Tot: -0.00000 ]
LCAOMinimize: Iter:  27  F: -1516.1251770975297859  |grad|_K:  1.878e-04  alpha:  4.073e-02  linmin:  2.756e-04  cgtest: -5.537e-02  t[s]:    480.49
	FillingsUpdate:  mu: -0.067542962  nElectrons: 326.000000  magneticMoment: [ Abs: 12.66813  Tot: -0.00000 ]
LCAOMinimize: Iter:  28  F: -1516.1262093698364879  |grad|_K:  1.843e-04  alpha:  6.205e-02  linmin: -3.453e-04  cgtest: -1.571e-04  t[s]:    495.84
	FillingsUpdate:  mu: -0.065718332  nElectrons: 326.000000  magneticMoment: [ Abs: 12.65747  Tot: +0.00000 ]
LCAOMinimize: Iter:  29  F: -1516.1272213677857508  |grad|_K:  2.943e-04  alpha:  6.295e-02  linmin: -1.426e-05  cgtest:  1.499e-03  t[s]:    511.07
	FillingsUpdate:  mu: -0.065378800  nElectrons: 326.000000  magneticMoment: [ Abs: 12.64774  Tot: -0.00000 ]
LCAOMinimize: Iter:  30  F: -1516.1280048257262933  |grad|_K:  1.964e-04  alpha:  1.897e-02  linmin: -7.867e-04  cgtest:  3.447e-03  t[s]:    526.85
LCAOMinimize: None of the convergence criteria satisfied after 30 iterations.


---- Citations for features of the code used in this run ----

   Software package:
      R. Sundararaman, K. Letchworth-Weaver, K.A. Schwarz, D. Gunceler, Y. Ozhabes and T.A. Arias, 'JDFTx: software for joint density-functional theory', SoftwareX 6, 278 (2017)

   Simplified rotationally-invariant DFT+U:
      S. L. Dudarev et al., Phys. Rev. B 57, 1505 (1998)

   LibXC library of exchange-correlation functions:
      M. A. L. Marques, M. J. T. Oliveira and T. Burnus, Comput. Phys. Commun. 183, 2272 (2012)

   Hammer, Hansen, and Norskov exchange functional:
      B. Hammer, L. B. Hansen, and J. K. Nørskov, Phys. Rev. B 59, 7413 (1999)

   Perdew, Burke & Ernzerhof correlation functional:
      J. P. Perdew, K. Burke, and M. Ernzerhof, Phys. Rev. Lett. 77, 3865 (1996)

   Pseudopotentials:
      M Schlipf and F Gygi, Comput. Phys. Commun. 196, 36 (2015)

   Total energy minimization with Auxiliary Hamiltonian:
      C. Freysoldt, S. Boeck, and J. Neugebauer, Phys. Rev. B 79, 241103(R) (2009)

This list may not be complete. Please suggest additional citations or
report any other bugs at https://github.com/shankar1729/jdftx/issues

Initialization completed successfully at t[s]:    533.19


-------- Electronic minimization -----------
	FillingsUpdate:  mu: -0.065378799  nElectrons: 326.000000  magneticMoment: [ Abs: 12.64774  Tot: -0.00000 ]
ElecMinimize: Iter:   0  F: -1516.128004825726975  |grad|_K:  4.377e-04  alpha:  1.000e+00
	FillingsUpdate:  mu: +0.289074894  nElectrons: 326.000000  magneticMoment: [ Abs: 12.98152  Tot: +0.00000 ]
	SubspaceRotationAdjust: set factor to 0.998
ElecMinimize: Iter:   1  F: -1534.328698404234046  |grad|_K:  8.427e-04  alpha:  4.777e-01  linmin:  3.649e-02  t[s]:    625.05
	FillingsUpdate:  mu: +0.780822088  nElectrons: 326.000000  magneticMoment: [ Abs: 14.95442  Tot: +0.00000 ]
	SubspaceRotationAdjust: set factor to 0.613
ElecMinimize: Iter:   2  F: -1544.693863811061192  |grad|_K:  1.580e-03  alpha:  6.911e-02  linmin:  8.574e-04  t[s]:    700.51
	FillingsUpdate:  mu: +0.218524319  nElectrons: 326.000000  magneticMoment: [ Abs: 16.35413  Tot: -0.00000 ]
	SubspaceRotationAdjust: set factor to 0.85
ElecMinimize: Iter:   3  F: -1550.085349134302078  |grad|_K:  8.793e-04  alpha:  1.414e-02  linmin:  4.495e-04  t[s]:    775.98
	FillingsUpdate:  mu: +0.893447900  nElectrons: 326.000000  magneticMoment: [ Abs: 16.70741  Tot: +0.00000 ]
	SubspaceRotationAdjust: set factor to 0.516
ElecMinimize: Iter:   4  F: -1553.650529571834568  |grad|_K:  1.741e-03  alpha:  3.384e-02  linmin:  1.335e-03  t[s]:    852.95
	FillingsUpdate:  mu: +0.789452735  nElectrons: 326.000000  magneticMoment: [ Abs: 17.06569  Tot: +0.00000 ]
	SubspaceRotationAdjust: set factor to 0.352
ElecMinimize: Iter:   5  F: -1557.757868474749785  |grad|_K:  1.486e-03  alpha:  9.749e-03  linmin: -1.768e-04  t[s]:    930.63
	FillingsUpdate:  mu: +0.439903753  nElectrons: 326.000000  magneticMoment: [ Abs: 17.92432  Tot: +0.00000 ]
	SubspaceRotationAdjust: set factor to 0.517
ElecMinimize: Iter:   6  F: -1560.741551673030699  |grad|_K:  9.526e-04  alpha:  6.070e-03  linmin:  1.499e-04  t[s]:   1008.26
	FillingsUpdate:  mu: +0.647535730  nElectrons: 326.000000  magneticMoment: [ Abs: 18.96584  Tot: +0.00000 ]
	SubspaceRotationAdjust: set factor to 0.405
ElecMinimize: Iter:   7  F: -1562.536164060377587  |grad|_K:  1.288e-03  alpha:  1.081e-02  linmin: -6.183e-05  t[s]:   1085.43
	FillingsUpdate:  mu: +0.754994215  nElectrons: 326.000000  magneticMoment: [ Abs: 20.74351  Tot: +0.00000 ]
	SubspaceRotationAdjust: set factor to 0.277
ElecMinimize: Iter:   8  F: -1567.278024822883026  |grad|_K:  1.481e-03  alpha:  1.442e-02  linmin:  6.757e-05  t[s]:   1163.78
	FillingsUpdate:  mu: +0.125727193  nElectrons: 326.000000  magneticMoment: [ Abs: 21.34744  Tot: +0.00000 ]
	SubspaceRotationAdjust: set factor to 0.37
ElecMinimize: Iter:   9  F: -1571.586496238009659  |grad|_K:  9.708e-04  alpha:  1.074e-02  linmin:  7.371e-05  t[s]:   1241.61
	FillingsUpdate:  mu: -0.058520184  nElectrons: 326.000000  magneticMoment: [ Abs: 21.47066  Tot: -0.00000 ]
	SubspaceRotationAdjust: set factor to 0.368
ElecMinimize: Iter:  10  F: -1574.167181843404705  |grad|_K:  8.109e-04  alpha:  1.523e-02  linmin:  1.321e-04  t[s]:   1319.10
	FillingsUpdate:  mu: -0.041592923  nElectrons: 326.000000  magneticMoment: [ Abs: 21.86361  Tot: -0.00000 ]
	SubspaceRotationAdjust: set factor to 0.345
ElecMinimize: Iter:  11  F: -1576.598969034947459  |grad|_K:  1.022e-03  alpha:  2.025e-02  linmin: -1.289e-04  t[s]:   1398.03
	FillingsUpdate:  mu: -0.040847480  nElectrons: 326.000000  magneticMoment: [ Abs: 21.77364  Tot: +0.00000 ]
	SubspaceRotationAdjust: set factor to 0.535
ElecMinimize: Iter:  12  F: -1581.567865151480419  |grad|_K:  7.574e-04  alpha:  2.336e-02  linmin:  1.639e-04  t[s]:   1473.03
	FillingsUpdate:  mu: -0.131631150  nElectrons: 326.000000  magneticMoment: [ Abs: 21.77191  Tot: -0.00000 ]
	SubspaceRotationAdjust: set factor to 0.542
ElecMinimize: Iter:  13  F: -1583.465446349950298  |grad|_K:  6.163e-04  alpha:  1.902e-02  linmin: -7.507e-06  t[s]:   1553.01
	FillingsUpdate:  mu: +0.146823081  nElectrons: 326.000000  magneticMoment: [ Abs: 22.45625  Tot: +0.00000 ]
	SubspaceRotationAdjust: set factor to 0.483
ElecMinimize: Iter:  14  F: -1585.850614594134640  |grad|_K:  8.179e-04  alpha:  3.240e-02  linmin: -9.074e-06  t[s]:   1632.59
	FillingsUpdate:  mu: -0.045944170  nElectrons: 326.000000  magneticMoment: [ Abs: 23.98708  Tot: +0.00000 ]
	SubspaceRotationAdjust: set factor to 0.694
ElecMinimize: Iter:  15  F: -1588.521611060246414  |grad|_K:  5.538e-04  alpha:  2.087e-02  linmin:  4.287e-05  t[s]:   1713.36
	FillingsUpdate:  mu: -0.010446649  nElectrons: 326.000000  magneticMoment: [ Abs: 25.12106  Tot: +0.00000 ]
	SubspaceRotationAdjust: set factor to 0.671
ElecMinimize: Iter:  16  F: -1590.166745619433414  |grad|_K:  5.833e-04  alpha:  2.803e-02  linmin: -7.229e-05  t[s]:   1792.77
	FillingsUpdate:  mu: -0.074430138  nElectrons: 326.000000  magneticMoment: [ Abs: 28.04491  Tot: +0.00000 ]
	SubspaceRotationAdjust: set factor to 0.824
ElecMinimize: Iter:  17  F: -1593.029086566741626  |grad|_K:  4.992e-04  alpha:  4.092e-02  linmin: -4.470e-06  t[s]:   1869.94
	FillingsUpdate:  mu: +0.059025136  nElectrons: 326.000000  magneticMoment: [ Abs: 30.55820  Tot: -0.00000 ]
	SubspaceRotationAdjust: set factor to 0.812
ElecMinimize: Iter:  18  F: -1595.106662974051005  |grad|_K:  5.719e-04  alpha:  4.319e-02  linmin:  1.156e-05  t[s]:   1949.34
	FillingsUpdate:  mu: +0.061083831  nElectrons: 326.000000  magneticMoment: [ Abs: 31.61756  Tot: +0.00000 ]
	SubspaceRotationAdjust: set factor to 0.821
ElecMinimize: Iter:  19  F: -1596.748916934793669  |grad|_K:  4.410e-04  alpha:  2.370e-02  linmin: -1.198e-04  t[s]:   2029.45
	FillingsUpdate:  mu: +0.245589043  nElectrons: 326.000000  magneticMoment: [ Abs: 33.04533  Tot: +0.00000 ]
	SubspaceRotationAdjust: set factor to 0.583
ElecMinimize: Iter:  20  F: -1598.521432002313304  |grad|_K:  6.765e-04  alpha:  4.936e-02  linmin:  4.832e-04  t[s]:   2107.21
	FillingsUpdate:  mu: +0.232678508  nElectrons: 326.000000  magneticMoment: [ Abs: 33.77107  Tot: +0.00000 ]
	SubspaceRotationAdjust: set factor to 0.525
ElecMinimize: Iter:  21  F: -1598.931974948772449  |grad|_K:  5.394e-04  alpha:  6.324e-03  linmin: -3.613e-04  t[s]:   2184.35
	FillingsUpdate:  mu: +0.192401791  nElectrons: 326.000000  magneticMoment: [ Abs: 35.76600  Tot: -0.00000 ]
	SubspaceRotationAdjust: set factor to 0.45
ElecMinimize: Iter:  22  F: -1599.936775370724945  |grad|_K:  4.517e-04  alpha:  1.483e-02  linmin:  1.521e-04  t[s]:   2264.50
	FillingsUpdate:  mu: +0.183659849  nElectrons: 326.000000  magneticMoment: [ Abs: 38.51853  Tot: -0.00000 ]
	SubspaceRotationAdjust: set factor to 0.43
ElecMinimize: Iter:  23  F: -1601.005071887917893  |grad|_K:  4.954e-04  alpha:  3.099e-02  linmin:  5.701e-05  t[s]:   2343.76
	FillingsUpdate:  mu: +0.099882314  nElectrons: 326.000000  magneticMoment: [ Abs: 39.77596  Tot: -0.00000 ]
	SubspaceRotationAdjust: set factor to 0.606
ElecMinimize: Iter:  24  F: -1601.615488635501833  |grad|_K:  4.242e-04  alpha:  8.058e-03  linmin: -6.725e-04  t[s]:   2421.36
	FillingsUpdate:  mu: +0.091336886  nElectrons: 326.000000  magneticMoment: [ Abs: 41.05817  Tot: -0.00000 ]
	SubspaceRotationAdjust: set factor to 0.613
ElecMinimize: Iter:  25  F: -1602.218173256968612  |grad|_K:  3.656e-04  alpha:  1.200e-02  linmin:  9.206e-05  t[s]:   2499.24
	FillingsUpdate:  mu: +0.076190804  nElectrons: 326.000000  magneticMoment: [ Abs: 41.61339  Tot: +0.00000 ]
	SubspaceRotationAdjust: set factor to 0.716
ElecMinimize: Iter:  26  F: -1602.447480885599134  |grad|_K:  3.873e-04  alpha:  8.537e-03  linmin:  3.172e-05  t[s]:   2577.03
	FillingsUpdate:  mu: +0.092853511  nElectrons: 326.000000  magneticMoment: [ Abs: 42.45893  Tot: -0.00000 ]
	SubspaceRotationAdjust: set factor to 0.92
ElecMinimize: Iter:  27  F: -1602.637334282923121  |grad|_K:  4.012e-04  alpha:  6.943e-03  linmin: -1.043e-04  t[s]:   2655.59
	FillingsUpdate:  mu: +0.115823189  nElectrons: 326.000000  magneticMoment: [ Abs: 43.11334  Tot: +0.00000 ]
	SubspaceRotationAdjust: set factor to 1.23
ElecMinimize: Iter:  28  F: -1602.845675413719391  |grad|_K:  3.945e-04  alpha:  6.381e-03  linmin: -1.385e-04  t[s]:   2733.95
	FillingsUpdate:  mu: +0.086185249  nElectrons: 326.000000  magneticMoment: [ Abs: 44.08540  Tot: +0.00000 ]
	SubspaceRotationAdjust: set factor to 1.61
ElecMinimize: Iter:  29  F: -1603.069835935875744  |grad|_K:  3.775e-04  alpha:  7.944e-03  linmin:  7.598e-04  t[s]:   2811.50
	FillingsUpdate:  mu: +0.079269316  nElectrons: 326.000000  magneticMoment: [ Abs: 44.20827  Tot: -0.00000 ]
	SubspaceRotationAdjust: set factor to 1.89
ElecMinimize: Iter:  30  F: -1603.088737639226338  |grad|_K:  3.973e-04  alpha:  1.280e-03  linmin: -1.596e-04  t[s]:   2888.12
	FillingsUpdate:  mu: +0.075918710  nElectrons: 326.000000  magneticMoment: [ Abs: 44.44640  Tot: -0.00000 ]
	SubspaceRotationAdjust: set factor to 1.71
ElecMinimize: Iter:  31  F: -1603.139694676526915  |grad|_K:  4.375e-04  alpha:  3.479e-03  linmin:  9.994e-04  t[s]:   2966.49
ElecMinimize: 	Wrong curvature in test step, increasing alphaT to 1.043735e-02.
	FillingsUpdate:  mu: +0.062074855  nElectrons: 326.000000  magneticMoment: [ Abs: 44.68399  Tot: +0.00000 ]
	SubspaceRotationAdjust: set factor to 1.86
ElecMinimize: Iter:  32  F: -1603.271085102034476  |grad|_K:  3.801e-04  alpha: -2.121e-03  linmin: -1.059e-03  t[s]:   3016.91
ElecMinimize: 	Step increased F by 3.040535e+01, reducing alpha to 6.017750e-03.
ElecMinimize: 	Step increased F by 2.285312e+01, reducing alpha to 6.017750e-04.
ElecMinimize: 	Step increased F by 2.395295e+01, reducing alpha to 6.017750e-05.
ElecMinimize: 	Step failed to reduce F after 3 attempts. Quitting step.
ElecMinimize: 	Undoing step.
ElecMinimize: 	Step failed: resetting search direction.
	FillingsUpdate:  mu: -0.133645114  nElectrons: 326.000000  magneticMoment: [ Abs: 36.73448  Tot: -0.00000 ]
	SubspaceRotationAdjust: set factor to 1.14
ElecMinimize: Iter:  33  F: -1579.303056798777106  |grad|_K:  7.632e-04  alpha:  6.018e-05
ElecMinimize: 	Step increased F by 3.729909e+00, reducing alpha to 3.065918e-02.
	FillingsUpdate:  mu: -0.065211605  nElectrons: 326.000000  magneticMoment: [ Abs: 37.21385  Tot: -0.00000 ]
	SubspaceRotationAdjust: set factor to 0.75
ElecMinimize: Iter:  34  F: -1585.194517885890264  |grad|_K:  5.981e-04  alpha:  3.066e-02  linmin: -1.030e-02  t[s]:   3347.74
ElecMinimize: 	Predicted alpha/alphaT>3.000000, increasing alphaT to 9.197753e-02.
	FillingsUpdate:  mu: +0.186538349  nElectrons: 326.000000  magneticMoment: [ Abs: 38.37272  Tot: -0.00000 ]
	SubspaceRotationAdjust: set factor to 0.517
ElecMinimize: Iter:  35  F: -1600.478718977127983  |grad|_K:  3.380e-04  alpha:  1.126e-01  linmin: -3.907e-03  t[s]:   3460.49
	FillingsUpdate:  mu: -0.050707729  nElectrons: 326.000000  magneticMoment: [ Abs: 43.05785  Tot: -0.00000 ]
	SubspaceRotationAdjust: set factor to 0.348
ElecMinimize: Iter:  36  F: -1605.527548150645771  |grad|_K:  2.384e-04  alpha:  1.634e-01  linmin: -1.508e-03  t[s]:   3539.86
	FillingsUpdate:  mu: +0.217283522  nElectrons: 326.000000  magneticMoment: [ Abs: 47.25617  Tot: +0.00000 ]
	SubspaceRotationAdjust: set factor to 0.216
ElecMinimize: Iter:  37  F: -1607.988612034916059  |grad|_K:  2.190e-04  alpha:  1.961e-01  linmin: -1.129e-03  t[s]:   3617.33
	FillingsUpdate:  mu: +0.164364842  nElectrons: 326.000000  magneticMoment: [ Abs: 49.20535  Tot: +0.00000 ]
	SubspaceRotationAdjust: set factor to 0.194
ElecMinimize: Iter:  38  F: -1609.003295469226032  |grad|_K:  1.333e-04  alpha:  7.599e-02  linmin: -1.874e-03  t[s]:   3693.91
	FillingsUpdate:  mu: +0.149277357  nElectrons: 326.000000  magneticMoment: [ Abs: 52.12144  Tot: +0.00000 ]
	SubspaceRotationAdjust: set factor to 0.125
	SubspaceRotationAdjust: resetting CG because factor has changed by 0.124523
ElecMinimize: 	State modified externally: resetting search direction.
ElecMinimize: Iter:  39  F: -1609.929131114598931  |grad|_K:  1.070e-04  alpha:  1.847e-01
	FillingsUpdate:  mu: +0.119212632  nElectrons: 326.000000  magneticMoment: [ Abs: 52.49102  Tot: -0.00000 ]
	SubspaceRotationAdjust: set factor to 0.107
ElecMinimize: Iter:  40  F: -1610.299351618204355  |grad|_K:  4.597e-05  alpha:  1.669e-01  linmin:  2.988e-03  t[s]:   3862.70
ElecMinimize: 	Predicted alpha/alphaT>3.000000, increasing alphaT to 5.006163e-01.
	FillingsUpdate:  mu: +0.115277525  nElectrons: 326.000000  magneticMoment: [ Abs: 53.80390  Tot: +0.00000 ]
	SubspaceRotationAdjust: set factor to 0.133
ElecMinimize: Iter:  41  F: -1610.508462792261298  |grad|_K:  4.499e-05  alpha:  5.297e-01  linmin:  4.075e-04  t[s]:   3970.82
	FillingsUpdate:  mu: +0.147148981  nElectrons: 326.000000  magneticMoment: [ Abs: 57.49074  Tot: +0.00000 ]
	SubspaceRotationAdjust: set factor to 0.117
ElecMinimize: Iter:  42  F: -1610.832583142173462  |grad|_K:  8.858e-05  alpha:  9.889e-01  linmin:  3.362e-03  t[s]:   4050.47
	FillingsUpdate:  mu: +0.102920678  nElectrons: 326.000000  magneticMoment: [ Abs: 59.44770  Tot: +0.00000 ]
	SubspaceRotationAdjust: set factor to 0.147
ElecMinimize: Iter:  43  F: -1610.989953332310051  |grad|_K:  7.579e-05  alpha:  2.208e-01  linmin:  8.872e-05  t[s]:   4128.97
	FillingsUpdate:  mu: +0.074769979  nElectrons: 326.000000  magneticMoment: [ Abs: 60.34736  Tot: +0.00000 ]
	SubspaceRotationAdjust: set factor to 0.151
ElecMinimize: Iter:  44  F: -1611.232811297157923  |grad|_K:  6.128e-05  alpha:  2.230e-01  linmin: -2.631e-04  t[s]:   4207.77
	FillingsUpdate:  mu: +0.079461325  nElectrons: 326.000000  magneticMoment: [ Abs: 61.00379  Tot: -0.00000 ]
	SubspaceRotationAdjust: set factor to 0.113
ElecMinimize: Iter:  45  F: -1611.329858710018016  |grad|_K:  4.747e-05  alpha:  1.205e-01  linmin: -4.509e-04  t[s]:   4287.43
	FillingsUpdate:  mu: +0.080774126  nElectrons: 326.000000  magneticMoment: [ Abs: 61.62916  Tot: +0.00000 ]
	SubspaceRotationAdjust: set factor to 0.144
ElecMinimize: Iter:  46  F: -1611.463069329652171  |grad|_K:  4.331e-05  alpha:  2.972e-01  linmin:  8.581e-05  t[s]:   4366.78
	FillingsUpdate:  mu: +0.081069589  nElectrons: 326.000000  magneticMoment: [ Abs: 61.82193  Tot: +0.00000 ]
	SubspaceRotationAdjust: set factor to 0.13
ElecMinimize: Iter:  47  F: -1611.537956279274340  |grad|_K:  4.708e-05  alpha:  2.185e-01  linmin: -1.559e-04  t[s]:   4444.47
	FillingsUpdate:  mu: +0.103389025  nElectrons: 326.000000  magneticMoment: [ Abs: 62.31419  Tot: +0.00000 ]
	SubspaceRotationAdjust: set factor to 0.137
ElecMinimize: Iter:  48  F: -1611.611329901739282  |grad|_K:  2.968e-05  alpha:  1.706e-01  linmin: -4.688e-05  t[s]:   4524.51
	FillingsUpdate:  mu: +0.111598157  nElectrons: 326.000000  magneticMoment: [ Abs: 62.64336  Tot: -0.00000 ]
	SubspaceRotationAdjust: set factor to 0.144
ElecMinimize: Iter:  49  F: -1611.657571270302469  |grad|_K:  2.726e-05  alpha:  2.695e-01  linmin: -4.735e-04  t[s]:   4604.99
	FillingsUpdate:  mu: +0.111790773  nElectrons: 326.000000  magneticMoment: [ Abs: 62.67614  Tot: -0.00000 ]
	SubspaceRotationAdjust: set factor to 0.113
ElecMinimize: Iter:  50  F: -1611.679529380142867  |grad|_K:  2.369e-05  alpha:  1.551e-01  linmin:  2.675e-04  t[s]:   4682.66
	FillingsUpdate:  mu: +0.111659544  nElectrons: 326.000000  magneticMoment: [ Abs: 62.93896  Tot: +0.00000 ]
	SubspaceRotationAdjust: set factor to 0.126
ElecMinimize: Iter:  51  F: -1611.703510044157383  |grad|_K:  1.682e-05  alpha:  2.275e-01  linmin:  5.704e-04  t[s]:   4761.22
	FillingsUpdate:  mu: +0.109292279  nElectrons: 326.000000  magneticMoment: [ Abs: 63.10872  Tot: +0.00000 ]
	SubspaceRotationAdjust: set factor to 0.128
ElecMinimize: Iter:  52  F: -1611.718087246993946  |grad|_K:  1.734e-05  alpha:  2.760e-01  linmin:  2.151e-04  t[s]:   4838.78
	FillingsUpdate:  mu: +0.106470923  nElectrons: 326.000000  magneticMoment: [ Abs: 63.09111  Tot: +0.00000 ]
	SubspaceRotationAdjust: set factor to 0.108
ElecMinimize: Iter:  53  F: -1611.726669861552182  |grad|_K:  1.307e-05  alpha:  1.538e-01  linmin:  2.886e-04  t[s]:   4923.13
	FillingsUpdate:  mu: +0.104955298  nElectrons: 326.000000  magneticMoment: [ Abs: 63.17639  Tot: +0.00000 ]
	SubspaceRotationAdjust: set factor to 0.136
ElecMinimize: Iter:  54  F: -1611.735507815689061  |grad|_K:  1.025e-05  alpha:  2.725e-01  linmin:  8.191e-05  t[s]:   5001.26
	FillingsUpdate:  mu: +0.106387351  nElectrons: 326.000000  magneticMoment: [ Abs: 63.29552  Tot: +0.00000 ]
	SubspaceRotationAdjust: set factor to 0.134
ElecMinimize: Iter:  55  F: -1611.741307788255654  |grad|_K:  1.164e-05  alpha:  2.890e-01  linmin:  3.170e-04  t[s]:   5077.77
	FillingsUpdate:  mu: +0.106398718  nElectrons: 326.000000  magneticMoment: [ Abs: 63.31053  Tot: +0.00000 ]
	SubspaceRotationAdjust: set factor to 0.116
ElecMinimize: Iter:  56  F: -1611.745244799991951  |grad|_K:  9.356e-06  alpha:  1.534e-01  linmin:  1.825e-05  t[s]:   5155.84
	FillingsUpdate:  mu: +0.106006780  nElectrons: 326.000000  magneticMoment: [ Abs: 63.41561  Tot: +0.00000 ]
	SubspaceRotationAdjust: set factor to 0.148
ElecMinimize: Iter:  57  F: -1611.750175333913148  |grad|_K:  8.411e-06  alpha:  2.943e-01  linmin:  7.125e-05  t[s]:   5236.68
	FillingsUpdate:  mu: +0.102081608  nElectrons: 326.000000  magneticMoment: [ Abs: 63.54394  Tot: -0.00000 ]
	SubspaceRotationAdjust: set factor to 0.14
ElecMinimize: Iter:  58  F: -1611.753778623273774  |grad|_K:  9.877e-06  alpha:  2.673e-01  linmin: -2.644e-05  t[s]:   5316.52
	FillingsUpdate:  mu: +0.104774854  nElectrons: 326.000000  magneticMoment: [ Abs: 63.58842  Tot: +0.00000 ]
	SubspaceRotationAdjust: set factor to 0.115
ElecMinimize: Iter:  59  F: -1611.756691708386143  |grad|_K:  7.871e-06  alpha:  1.553e-01  linmin:  1.372e-05  t[s]:   5394.89
	FillingsUpdate:  mu: +0.104294004  nElectrons: 326.000000  magneticMoment: [ Abs: 63.72559  Tot: +0.00000 ]
	SubspaceRotationAdjust: set factor to 0.132
ElecMinimize: Iter:  60  F: -1611.760097079972866  |grad|_K:  6.732e-06  alpha:  2.863e-01  linmin: -1.875e-05  t[s]:   5472.90
	FillingsUpdate:  mu: +0.102425436  nElectrons: 326.000000  magneticMoment: [ Abs: 63.85605  Tot: -0.00000 ]
	SubspaceRotationAdjust: set factor to 0.132
ElecMinimize: Iter:  61  F: -1611.762700324065463  |grad|_K:  6.743e-06  alpha:  2.985e-01  linmin: -7.585e-06  t[s]:   5551.51
	FillingsUpdate:  mu: +0.106865832  nElectrons: 326.000000  magneticMoment: [ Abs: 63.89903  Tot: -0.00000 ]
	SubspaceRotationAdjust: set factor to 0.105
ElecMinimize: Iter:  62  F: -1611.764308096694322  |grad|_K:  6.196e-06  alpha:  1.845e-01  linmin:  9.537e-06  t[s]:   5628.59
	FillingsUpdate:  mu: +0.105840163  nElectrons: 326.000000  magneticMoment: [ Abs: 63.99799  Tot: -0.00000 ]
	SubspaceRotationAdjust: set factor to 0.105
ElecMinimize: Iter:  63  F: -1611.766075080557584  |grad|_K:  4.872e-06  alpha:  2.400e-01  linmin:  7.507e-06  t[s]:   5705.69
	FillingsUpdate:  mu: +0.105380983  nElectrons: 326.000000  magneticMoment: [ Abs: 64.06483  Tot: +0.00000 ]
	SubspaceRotationAdjust: set factor to 0.113
ElecMinimize: Iter:  64  F: -1611.767375485888579  |grad|_K:  4.182e-06  alpha:  2.856e-01  linmin:  2.005e-05  t[s]:   5783.04
	FillingsUpdate:  mu: +0.107339132  nElectrons: 326.000000  magneticMoment: [ Abs: 64.08298  Tot: +0.00000 ]
	SubspaceRotationAdjust: set factor to 0.0991
ElecMinimize: Iter:  65  F: -1611.768120642462236  |grad|_K:  3.663e-06  alpha:  2.230e-01  linmin: -1.546e-05  t[s]:   5862.49
	FillingsUpdate:  mu: +0.106321289  nElectrons: 326.000000  magneticMoment: [ Abs: 64.12233  Tot: +0.00000 ]
	SubspaceRotationAdjust: set factor to 0.101
ElecMinimize: Iter:  66  F: -1611.768743304784266  |grad|_K:  2.862e-06  alpha:  2.414e-01  linmin:  2.438e-05  t[s]:   5943.49
	FillingsUpdate:  mu: +0.106153530  nElectrons: 326.000000  magneticMoment: [ Abs: 64.14978  Tot: -0.00000 ]
	SubspaceRotationAdjust: set factor to 0.116
ElecMinimize: Iter:  67  F: -1611.769214182284486  |grad|_K:  2.529e-06  alpha:  3.001e-01  linmin:  3.040e-05  t[s]:   6020.50
	FillingsUpdate:  mu: +0.107172547  nElectrons: 326.000000  magneticMoment: [ Abs: 64.16176  Tot: -0.00000 ]
	SubspaceRotationAdjust: set factor to 0.116
ElecMinimize: Iter:  68  F: -1611.769533487780336  |grad|_K:  2.360e-06  alpha:  2.608e-01  linmin: -2.885e-05  t[s]:   6098.02
	FillingsUpdate:  mu: +0.106660273  nElectrons: 326.000000  magneticMoment: [ Abs: 64.19000  Tot: +0.00000 ]
	SubspaceRotationAdjust: set factor to 0.125
ElecMinimize: Iter:  69  F: -1611.769802230487585  |grad|_K:  2.067e-06  alpha:  2.508e-01  linmin:  4.293e-05  t[s]:   6175.99
	FillingsUpdate:  mu: +0.107052448  nElectrons: 326.000000  magneticMoment: [ Abs: 64.21568  Tot: +0.00000 ]
	SubspaceRotationAdjust: set factor to 0.151
ElecMinimize: Iter:  70  F: -1611.770072764812085  |grad|_K:  2.060e-06  alpha:  3.305e-01  linmin:  9.122e-07  t[s]:   6253.67
	FillingsUpdate:  mu: +0.107725073  nElectrons: 326.000000  magneticMoment: [ Abs: 64.24293  Tot: +0.00000 ]
	SubspaceRotationAdjust: set factor to 0.167
ElecMinimize: Iter:  71  F: -1611.770343781200609  |grad|_K:  2.257e-06  alpha:  3.327e-01  linmin: -6.233e-05  t[s]:   6333.73
	FillingsUpdate:  mu: +0.107029249  nElectrons: 326.000000  magneticMoment: [ Abs: 64.28393  Tot: +0.00000 ]
	SubspaceRotationAdjust: set factor to 0.161
ElecMinimize: Iter:  72  F: -1611.770583311221571  |grad|_K:  2.499e-06  alpha:  2.426e-01  linmin:  2.025e-05  t[s]:   6412.13
	FillingsUpdate:  mu: +0.107924411  nElectrons: 326.000000  magneticMoment: [ Abs: 64.31851  Tot: -0.00000 ]
	SubspaceRotationAdjust: set factor to 0.162
ElecMinimize: Iter:  73  F: -1611.770858665362766  |grad|_K:  2.402e-06  alpha:  2.304e-01  linmin: -3.160e-05  t[s]:   6491.30
	FillingsUpdate:  mu: +0.108176694  nElectrons: 326.000000  magneticMoment: [ Abs: 64.38091  Tot: -0.00000 ]
	SubspaceRotationAdjust: set factor to 0.187
ElecMinimize: Iter:  74  F: -1611.771231433447610  |grad|_K:  2.597e-06  alpha:  3.357e-01  linmin:  5.022e-05  t[s]:   6567.84
	FillingsUpdate:  mu: +0.108159212  nElectrons: 326.000000  magneticMoment: [ Abs: 64.45473  Tot: +0.00000 ]
	SubspaceRotationAdjust: set factor to 0.199
ElecMinimize: Iter:  75  F: -1611.771638271962956  |grad|_K:  2.924e-06  alpha:  3.180e-01  linmin: -7.612e-05  t[s]:   6648.54
	FillingsUpdate:  mu: +0.108940775  nElectrons: 326.000000  magneticMoment: [ Abs: 64.50779  Tot: -0.00000 ]
	SubspaceRotationAdjust: set factor to 0.191
ElecMinimize: Iter:  76  F: -1611.772043199066729  |grad|_K:  3.562e-06  alpha:  2.358e-01  linmin:  4.689e-05  t[s]:   6726.36
	FillingsUpdate:  mu: +0.108028702  nElectrons: 326.000000  magneticMoment: [ Abs: 64.57217  Tot: +0.00000 ]
	SubspaceRotationAdjust: set factor to 0.222
ElecMinimize: Iter:  77  F: -1611.772480223913590  |grad|_K:  3.230e-06  alpha:  1.819e-01  linmin: -1.305e-05  t[s]:   6806.80
	FillingsUpdate:  mu: +0.107201183  nElectrons: 326.000000  magneticMoment: [ Abs: 64.62610  Tot: +0.00000 ]
	SubspaceRotationAdjust: set factor to 0.252
ElecMinimize: Iter:  78  F: -1611.772943882526306  |grad|_K:  3.476e-06  alpha:  2.333e-01  linmin:  1.591e-04  t[s]:   6885.69
	FillingsUpdate:  mu: +0.107180285  nElectrons: 326.000000  magneticMoment: [ Abs: 64.64799  Tot: +0.00000 ]
	SubspaceRotationAdjust: set factor to 0.285
ElecMinimize: Iter:  79  F: -1611.773216972535010  |grad|_K:  3.534e-06  alpha:  1.108e-01  linmin: -2.259e-04  t[s]:   6965.15
	FillingsUpdate:  mu: +0.107652825  nElectrons: 326.000000  magneticMoment: [ Abs: 64.66851  Tot: +0.00000 ]
	SubspaceRotationAdjust: set factor to 0.256
ElecMinimize: Iter:  80  F: -1611.773510018591196  |grad|_K:  3.811e-06  alpha:  1.158e-01  linmin:  3.693e-05  t[s]:   7043.07
	FillingsUpdate:  mu: +0.106607757  nElectrons: 326.000000  magneticMoment: [ Abs: 64.68108  Tot: -0.00000 ]
	SubspaceRotationAdjust: set factor to 0.36
ElecMinimize: Iter:  81  F: -1611.773715558326785  |grad|_K:  3.135e-06  alpha:  7.724e-02  linmin: -2.762e-05  t[s]:   7119.32
	FillingsUpdate:  mu: +0.106427207  nElectrons: 326.000000  magneticMoment: [ Abs: 64.69254  Tot: -0.00000 ]
	SubspaceRotationAdjust: set factor to 0.318
ElecMinimize: Iter:  82  F: -1611.773949268785145  |grad|_K:  3.579e-06  alpha:  1.193e-01  linmin: -4.039e-04  t[s]:   7196.61
	FillingsUpdate:  mu: +0.107295836  nElectrons: 326.000000  magneticMoment: [ Abs: 64.70348  Tot: -0.00000 ]
	SubspaceRotationAdjust: set factor to 0.371
ElecMinimize: Iter:  83  F: -1611.774195387005875  |grad|_K:  3.043e-06  alpha:  9.435e-02  linmin: -5.800e-05  t[s]:   7275.45
	FillingsUpdate:  mu: +0.107161853  nElectrons: 326.000000  magneticMoment: [ Abs: 64.71954  Tot: -0.00000 ]
	SubspaceRotationAdjust: set factor to 0.503
ElecMinimize: Iter:  84  F: -1611.774474704287741  |grad|_K:  2.816e-06  alpha:  1.540e-01  linmin: -8.126e-05  t[s]:   7351.76
	FillingsUpdate:  mu: +0.107606038  nElectrons: 326.000000  magneticMoment: [ Abs: 64.73487  Tot: -0.00000 ]
	SubspaceRotationAdjust: set factor to 0.418
ElecMinimize: Iter:  85  F: -1611.774682978896408  |grad|_K:  3.639e-06  alpha:  1.323e-01  linmin:  1.333e-04  t[s]:   7431.11
	FillingsUpdate:  mu: +0.108381164  nElectrons: 326.000000  magneticMoment: [ Abs: 64.74797  Tot: +0.00000 ]
	SubspaceRotationAdjust: set factor to 0.542
ElecMinimize: Iter:  86  F: -1611.774836675217330  |grad|_K:  2.734e-06  alpha:  6.494e-02  linmin:  5.214e-05  t[s]:   7506.96
	FillingsUpdate:  mu: +0.109053271  nElectrons: 326.000000  magneticMoment: [ Abs: 64.76260  Tot: -0.00000 ]
	SubspaceRotationAdjust: set factor to 0.572
ElecMinimize: Iter:  87  F: -1611.775018768081509  |grad|_K:  3.046e-06  alpha:  1.265e-01  linmin: -9.879e-05  t[s]:   7585.08
	FillingsUpdate:  mu: +0.108783014  nElectrons: 326.000000  magneticMoment: [ Abs: 64.77103  Tot: -0.00000 ]
	SubspaceRotationAdjust: set factor to 0.544
ElecMinimize: Iter:  88  F: -1611.775133989255210  |grad|_K:  3.095e-06  alpha:  5.898e-02  linmin: -1.119e-04  t[s]:   7663.11
	FillingsUpdate:  mu: +0.108346364  nElectrons: 326.000000  magneticMoment: [ Abs: 64.77708  Tot: -0.00000 ]
	SubspaceRotationAdjust: set factor to 0.836
ElecMinimize: Iter:  89  F: -1611.775290782459933  |grad|_K:  2.463e-06  alpha:  8.135e-02  linmin: -4.946e-05  t[s]:   7743.62
	FillingsUpdate:  mu: +0.108415446  nElectrons: 326.000000  magneticMoment: [ Abs: 64.77764  Tot: -0.00000 ]
	SubspaceRotationAdjust: set factor to 0.689
ElecMinimize: Iter:  90  F: -1611.775374011821441  |grad|_K:  3.091e-06  alpha:  7.030e-02  linmin: -1.594e-05  t[s]:   7821.75
	FillingsUpdate:  mu: +0.107716475  nElectrons: 326.000000  magneticMoment: [ Abs: 64.78181  Tot: -0.00000 ]
	SubspaceRotationAdjust: set factor to 0.637
ElecMinimize: Iter:  91  F: -1611.775459441430257  |grad|_K:  2.202e-06  alpha:  4.592e-02  linmin: -2.152e-06  t[s]:   7898.39
	FillingsUpdate:  mu: +0.107824550  nElectrons: 326.000000  magneticMoment: [ Abs: 64.78929  Tot: -0.00000 ]
	SubspaceRotationAdjust: set factor to 0.891
ElecMinimize: Iter:  92  F: -1611.775565086292545  |grad|_K:  1.998e-06  alpha:  1.134e-01  linmin:  2.327e-06  t[s]:   7975.48
	FillingsUpdate:  mu: +0.108441089  nElectrons: 326.000000  magneticMoment: [ Abs: 64.79470  Tot: -0.00000 ]
	SubspaceRotationAdjust: set factor to 0.735
ElecMinimize: Iter:  93  F: -1611.775626773105614  |grad|_K:  2.434e-06  alpha:  8.123e-02  linmin: -5.920e-06  t[s]:   8053.65
	FillingsUpdate:  mu: +0.108479180  nElectrons: 326.000000  magneticMoment: [ Abs: 64.80084  Tot: -0.00000 ]
	SubspaceRotationAdjust: set factor to 0.624
ElecMinimize: Iter:  94  F: -1611.775668932367580  |grad|_K:  1.856e-06  alpha:  3.572e-02  linmin: -6.226e-05  t[s]:   8131.23
ElecMinimize: 	Predicted alpha/alphaT>3.000000, increasing alphaT to 1.071550e-01.
	FillingsUpdate:  mu: +0.108829255  nElectrons: 326.000000  magneticMoment: [ Abs: 64.80482  Tot: -0.00000 ]
	SubspaceRotationAdjust: set factor to 0.698
ElecMinimize: Iter:  95  F: -1611.775743392541699  |grad|_K:  1.812e-06  alpha:  1.101e-01  linmin:  6.039e-06  t[s]:   8241.02
	FillingsUpdate:  mu: +0.108844602  nElectrons: 326.000000  magneticMoment: [ Abs: 64.80075  Tot: +0.00000 ]
	SubspaceRotationAdjust: set factor to 0.551
ElecMinimize: Iter:  96  F: -1611.775788035438609  |grad|_K:  2.137e-06  alpha:  7.141e-02  linmin:  1.553e-06  t[s]:   8316.89
	FillingsUpdate:  mu: +0.108263000  nElectrons: 326.000000  magneticMoment: [ Abs: 64.79635  Tot: -0.00000 ]
	SubspaceRotationAdjust: set factor to 0.601
ElecMinimize: Iter:  97  F: -1611.775832575778850  |grad|_K:  1.470e-06  alpha:  5.030e-02  linmin:  7.384e-06  t[s]:   8395.63
	FillingsUpdate:  mu: +0.107735454  nElectrons: 326.000000  magneticMoment: [ Abs: 64.78733  Tot: +0.00000 ]
	SubspaceRotationAdjust: set factor to 0.601
ElecMinimize: Iter:  98  F: -1611.775880891599400  |grad|_K:  1.732e-06  alpha:  1.181e-01  linmin:  1.027e-04  t[s]:   8473.21
	FillingsUpdate:  mu: +0.107778537  nElectrons: 326.000000  magneticMoment: [ Abs: 64.78060  Tot: -0.00000 ]
	SubspaceRotationAdjust: set factor to 0.587
ElecMinimize: Iter:  99  F: -1611.775911945741655  |grad|_K:  1.697e-06  alpha:  5.620e-02  linmin:  3.423e-05  t[s]:   8550.87
	FillingsUpdate:  mu: +0.107712706  nElectrons: 326.000000  magneticMoment: [ Abs: 64.77584  Tot: +0.00000 ]
	SubspaceRotationAdjust: set factor to 0.856
ElecMinimize: Iter: 100  F: -1611.775958656836565  |grad|_K:  1.364e-06  alpha:  8.530e-02  linmin:  1.495e-05  t[s]:   8630.59
	FillingsUpdate:  mu: +0.107937908  nElectrons: 326.000000  magneticMoment: [ Abs: 64.77470  Tot: +0.00000 ]
	SubspaceRotationAdjust: set factor to 0.693
ElecMinimize: Iter: 101  F: -1611.775989737045393  |grad|_K:  1.753e-06  alpha:  8.743e-02  linmin:  1.118e-05  t[s]:   8708.87
	FillingsUpdate:  mu: +0.108200576  nElectrons: 326.000000  magneticMoment: [ Abs: 64.77101  Tot: +0.00000 ]
	SubspaceRotationAdjust: set factor to 0.652
ElecMinimize: Iter: 102  F: -1611.776012381977353  |grad|_K:  1.411e-06  alpha:  3.883e-02  linmin:  1.565e-05  t[s]:   8785.65
	FillingsUpdate:  mu: +0.108225797  nElectrons: 326.000000  magneticMoment: [ Abs: 64.76160  Tot: +0.00000 ]
	SubspaceRotationAdjust: set factor to 0.78
ElecMinimize: Iter: 103  F: -1611.776052384705281  |grad|_K:  1.327e-06  alpha:  1.055e-01  linmin:  1.632e-05  t[s]:   8861.80
	FillingsUpdate:  mu: +0.107960762  nElectrons: 326.000000  magneticMoment: [ Abs: 64.75413  Tot: +0.00000 ]
	SubspaceRotationAdjust: set factor to 0.636
ElecMinimize: Iter: 104  F: -1611.776074863556914  |grad|_K:  1.586e-06  alpha:  6.581e-02  linmin: -5.346e-06  t[s]:   8937.63
	FillingsUpdate:  mu: +0.107754861  nElectrons: 326.000000  magneticMoment: [ Abs: 64.74386  Tot: -0.00000 ]
	SubspaceRotationAdjust: set factor to 0.726
ElecMinimize: Iter: 105  F: -1611.776097984257831  |grad|_K:  1.095e-06  alpha:  4.881e-02  linmin: -1.960e-05  t[s]:   9015.96
	FillingsUpdate:  mu: +0.107753705  nElectrons: 326.000000  magneticMoment: [ Abs: 64.73434  Tot: +0.00000 ]
	SubspaceRotationAdjust: set factor to 0.723
ElecMinimize: Iter: 106  F: -1611.776127430882525  |grad|_K:  1.255e-06  alpha:  1.239e-01  linmin: -8.386e-05  t[s]:   9096.34
	FillingsUpdate:  mu: +0.107766280  nElectrons: 326.000000  magneticMoment: [ Abs: 64.73211  Tot: +0.00000 ]
	SubspaceRotationAdjust: set factor to 0.639
ElecMinimize: Iter: 107  F: -1611.776143540735347  |grad|_K:  1.309e-06  alpha:  5.006e-02  linmin: -3.265e-05  t[s]:   9178.13
	FillingsUpdate:  mu: +0.108147580  nElectrons: 326.000000  magneticMoment: [ Abs: 64.72968  Tot: -0.00000 ]
	SubspaceRotationAdjust: set factor to 0.868
ElecMinimize: Iter: 108  F: -1611.776166387968715  |grad|_K:  9.719e-07  alpha:  6.835e-02  linmin:  3.129e-06  t[s]:   9255.65
	FillingsUpdate:  mu: +0.108461887  nElectrons: 326.000000  magneticMoment: [ Abs: 64.72792  Tot: -0.00000 ]
	SubspaceRotationAdjust: set factor to 0.637
ElecMinimize: Iter: 109  F: -1611.776184043205831  |grad|_K:  1.441e-06  alpha:  9.745e-02  linmin: -2.680e-06  t[s]:   9337.55
	FillingsUpdate:  mu: +0.108445144  nElectrons: 326.000000  magneticMoment: [ Abs: 64.72681  Tot: -0.00000 ]
	SubspaceRotationAdjust: set factor to 0.671
ElecMinimize: Iter: 110  F: -1611.776198475668934  |grad|_K:  1.016e-06  alpha:  3.544e-02  linmin: -3.117e-05  t[s]:   9416.09
	FillingsUpdate:  mu: +0.108266191  nElectrons: 326.000000  magneticMoment: [ Abs: 64.72368  Tot: +0.00000 ]
	SubspaceRotationAdjust: set factor to 0.568
ElecMinimize: Iter: 111  F: -1611.776219616544495  |grad|_K:  1.198e-06  alpha:  1.052e-01  linmin:  2.758e-06  t[s]:   9494.64
	FillingsUpdate:  mu: +0.108206742  nElectrons: 326.000000  magneticMoment: [ Abs: 64.72177  Tot: +0.00000 ]
	SubspaceRotationAdjust: set factor to 0.515
ElecMinimize: Iter: 112  F: -1611.776230326385303  |grad|_K:  9.468e-07  alpha:  4.036e-02  linmin:  6.483e-05  t[s]:   9572.81
	FillingsUpdate:  mu: +0.107975163  nElectrons: 326.000000  magneticMoment: [ Abs: 64.71981  Tot: +0.00000 ]
	SubspaceRotationAdjust: set factor to 0.647
ElecMinimize: Iter: 113  F: -1611.776248670141740  |grad|_K:  9.349e-07  alpha:  1.077e-01  linmin: -7.301e-05  t[s]:   9651.26
	FillingsUpdate:  mu: +0.107828233  nElectrons: 326.000000  magneticMoment: [ Abs: 64.71994  Tot: -0.00000 ]
	SubspaceRotationAdjust: set factor to 0.595
ElecMinimize: Iter: 114  F: -1611.776259206935492  |grad|_K:  1.028e-06  alpha:  6.102e-02  linmin: -7.388e-06  t[s]:   9729.39
	FillingsUpdate:  mu: +0.107903228  nElectrons: 326.000000  magneticMoment: [ Abs: 64.72142  Tot: +0.00000 ]
	SubspaceRotationAdjust: set factor to 0.869
ElecMinimize: Iter: 115  F: -1611.776276273584017  |grad|_K:  8.063e-07  alpha:  8.377e-02  linmin: -1.571e-05  t[s]:   9805.88
	FillingsUpdate:  mu: +0.108144674  nElectrons: 326.000000  magneticMoment: [ Abs: 64.72412  Tot: +0.00000 ]
	SubspaceRotationAdjust: set factor to 0.639
ElecMinimize: Iter: 116  F: -1611.776288726136954  |grad|_K:  1.179e-06  alpha:  9.937e-02  linmin: -3.624e-06  t[s]:   9884.10
	FillingsUpdate:  mu: +0.108192106  nElectrons: 326.000000  magneticMoment: [ Abs: 64.72697  Tot: +0.00000 ]
	SubspaceRotationAdjust: set factor to 0.593
ElecMinimize: Iter: 117  F: -1611.776298205167222  |grad|_K:  7.920e-07  alpha:  3.543e-02  linmin: -4.844e-06  t[s]:   9962.93
ElecMinimize: 	Predicted alpha/alphaT>3.000000, increasing alphaT to 1.062820e-01.
	FillingsUpdate:  mu: +0.108312551  nElectrons: 326.000000  magneticMoment: [ Abs: 64.73164  Tot: -0.00000 ]
	SubspaceRotationAdjust: set factor to 0.632
ElecMinimize: Iter: 118  F: -1611.776312730085465  |grad|_K:  8.718e-07  alpha:  1.205e-01  linmin:  4.484e-06  t[s]:  10075.17
	FillingsUpdate:  mu: +0.108381834  nElectrons: 326.000000  magneticMoment: [ Abs: 64.73365  Tot: +0.00000 ]
	SubspaceRotationAdjust: set factor to 0.556
ElecMinimize: Iter: 119  F: -1611.776320041801455  |grad|_K:  8.226e-07  alpha:  5.044e-02  linmin:  1.202e-05  t[s]:  10150.48
	FillingsUpdate:  mu: +0.108226975  nElectrons: 326.000000  magneticMoment: [ Abs: 64.73694  Tot: +0.00000 ]
	SubspaceRotationAdjust: set factor to 0.781
ElecMinimize: Iter: 120  F: -1611.776332454268413  |grad|_K:  6.701e-07  alpha:  9.603e-02  linmin:  1.039e-05  t[s]:  10227.88
	FillingsUpdate:  mu: +0.108043494  nElectrons: 326.000000  magneticMoment: [ Abs: 64.73895  Tot: -0.00000 ]
	SubspaceRotationAdjust: set factor to 0.611
ElecMinimize: Iter: 121  F: -1611.776340187495180  |grad|_K:  9.116e-07  alpha:  8.999e-02  linmin:  6.216e-06  t[s]:  10305.29
	FillingsUpdate:  mu: +0.107990509  nElectrons: 326.000000  magneticMoment: [ Abs: 64.74065  Tot: +0.00000 ]
	SubspaceRotationAdjust: set factor to 0.591
ElecMinimize: Iter: 122  F: -1611.776347227214728  |grad|_K:  6.367e-07  alpha:  4.441e-02  linmin:  6.947e-06  t[s]:  10380.64
	FillingsUpdate:  mu: +0.107963626  nElectrons: 326.000000  magneticMoment: [ Abs: 64.74389  Tot: +0.00000 ]
	SubspaceRotationAdjust: set factor to 0.726
ElecMinimize: Iter: 123  F: -1611.776357377120348  |grad|_K:  6.658e-07  alpha:  1.307e-01  linmin: -1.320e-06  t[s]:  10457.35
	FillingsUpdate:  mu: +0.107962709  nElectrons: 326.000000  magneticMoment: [ Abs: 64.74623  Tot: -0.00000 ]
	SubspaceRotationAdjust: set factor to 0.612
ElecMinimize: Iter: 124  F: -1611.776363183545527  |grad|_K:  7.926e-07  alpha:  6.788e-02  linmin: -6.081e-06  t[s]:  10537.72
	FillingsUpdate:  mu: +0.108157545  nElectrons: 326.000000  magneticMoment: [ Abs: 64.74956  Tot: +0.00000 ]
	SubspaceRotationAdjust: set factor to 0.721
ElecMinimize: Iter: 125  F: -1611.776371378993190  |grad|_K:  5.965e-07  alpha:  6.781e-02  linmin: -6.119e-06  t[s]:  10618.26
	FillingsUpdate:  mu: +0.108369277  nElectrons: 326.000000  magneticMoment: [ Abs: 64.75317  Tot: +0.00000 ]
	SubspaceRotationAdjust: set factor to 0.895
ElecMinimize: Iter: 126  F: -1611.776380914126776  |grad|_K:  6.619e-07  alpha:  1.396e-01  linmin:  1.389e-05  t[s]:  10694.93
	FillingsUpdate:  mu: +0.108357540  nElectrons: 326.000000  magneticMoment: [ Abs: 64.75475  Tot: +0.00000 ]
	SubspaceRotationAdjust: set factor to 0.663
ElecMinimize: Iter: 127  F: -1611.776386964408630  |grad|_K:  8.989e-07  alpha:  7.149e-02  linmin: -2.011e-05  t[s]:  10775.27
	FillingsUpdate:  mu: +0.108362666  nElectrons: 326.000000  magneticMoment: [ Abs: 64.75556  Tot: -0.00000 ]
	SubspaceRotationAdjust: set factor to 0.718
ElecMinimize: Iter: 128  F: -1611.776394885384434  |grad|_K:  6.523e-07  alpha:  5.096e-02  linmin: -4.664e-06  t[s]:  10854.05
	FillingsUpdate:  mu: +0.108140566  nElectrons: 326.000000  magneticMoment: [ Abs: 64.75510  Tot: +0.00000 ]
	SubspaceRotationAdjust: set factor to 0.893
ElecMinimize: Iter: 129  F: -1611.776405571986288  |grad|_K:  6.568e-07  alpha:  1.306e-01  linmin: -3.844e-06  t[s]:  10930.93
	FillingsUpdate:  mu: +0.107916695  nElectrons: 326.000000  magneticMoment: [ Abs: 64.75415  Tot: +0.00000 ]
	SubspaceRotationAdjust: set factor to 0.735
ElecMinimize: Iter: 130  F: -1611.776414431535613  |grad|_K:  9.347e-07  alpha:  1.068e-01  linmin:  1.355e-06  t[s]:  11010.77
	FillingsUpdate:  mu: +0.107905065  nElectrons: 326.000000  magneticMoment: [ Abs: 64.75320  Tot: -0.00000 ]
	SubspaceRotationAdjust: set factor to 0.61
ElecMinimize: Iter: 131  F: -1611.776420814058383  |grad|_K:  7.433e-07  alpha:  3.812e-02  linmin:  4.132e-07  t[s]:  11088.76
	FillingsUpdate:  mu: +0.107937867  nElectrons: 326.000000  magneticMoment: [ Abs: 64.75228  Tot: -0.00000 ]
	SubspaceRotationAdjust: set factor to 0.81
ElecMinimize: Iter: 132  F: -1611.776432797498501  |grad|_K:  6.936e-07  alpha:  1.131e-01  linmin:  2.506e-06  t[s]:  11168.52
	FillingsUpdate:  mu: +0.108003767  nElectrons: 326.000000  magneticMoment: [ Abs: 64.75191  Tot: -0.00000 ]
	SubspaceRotationAdjust: set factor to 0.686
ElecMinimize: Iter: 133  F: -1611.776441452639347  |grad|_K:  9.632e-07  alpha:  9.386e-02  linmin: -4.477e-06  t[s]:  11247.16
	FillingsUpdate:  mu: +0.108169245  nElectrons: 326.000000  magneticMoment: [ Abs: 64.75099  Tot: -0.00000 ]
	SubspaceRotationAdjust: set factor to 0.587
ElecMinimize: Iter: 134  F: -1611.776449334227209  |grad|_K:  7.360e-07  alpha:  4.368e-02  linmin: -2.044e-05  t[s]:  11325.26
	FillingsUpdate:  mu: +0.108243274  nElectrons: 326.000000  magneticMoment: [ Abs: 64.74829  Tot: +0.00000 ]
	SubspaceRotationAdjust: set factor to 0.779
ElecMinimize: Iter: 135  F: -1611.776462763035397  |grad|_K:  7.641e-07  alpha:  1.284e-01  linmin:  7.471e-06  t[s]:  11403.00
	FillingsUpdate:  mu: +0.108118861  nElectrons: 326.000000  magneticMoment: [ Abs: 64.74560  Tot: -0.00000 ]
	SubspaceRotationAdjust: set factor to 0.678
ElecMinimize: Iter: 136  F: -1611.776471801309526  |grad|_K:  9.831e-07  alpha:  8.148e-02  linmin: -1.075e-07  t[s]:  11479.42
	FillingsUpdate:  mu: +0.108055159  nElectrons: 326.000000  magneticMoment: [ Abs: 64.74181  Tot: +0.00000 ]
	SubspaceRotationAdjust: set factor to 0.63
ElecMinimize: Iter: 137  F: -1611.776481485775321  |grad|_K:  7.842e-07  alpha:  5.125e-02  linmin: -8.766e-06  t[s]:  11556.83
	FillingsUpdate:  mu: +0.107864268  nElectrons: 326.000000  magneticMoment: [ Abs: 64.73675  Tot: -0.00000 ]
	SubspaceRotationAdjust: set factor to 0.818
ElecMinimize: Iter: 138  F: -1611.776495244432681  |grad|_K:  8.056e-07  alpha:  1.172e-01  linmin:  4.796e-05  t[s]:  11635.55
	FillingsUpdate:  mu: +0.107753035  nElectrons: 326.000000  magneticMoment: [ Abs: 64.73384  Tot: +0.00000 ]
	SubspaceRotationAdjust: set factor to 0.716
ElecMinimize: Iter: 139  F: -1611.776506356775599  |grad|_K:  1.031e-06  alpha:  9.094e-02  linmin: -9.142e-06  t[s]:  11714.34
	FillingsUpdate:  mu: +0.107865135  nElectrons: 326.000000  magneticMoment: [ Abs: 64.73205  Tot: -0.00000 ]
	SubspaceRotationAdjust: set factor to 0.703
ElecMinimize: Iter: 140  F: -1611.776515639951185  |grad|_K:  8.818e-07  alpha:  4.433e-02  linmin: -4.061e-05  t[s]:  11794.75
	FillingsUpdate:  mu: +0.108027161  nElectrons: 326.000000  magneticMoment: [ Abs: 64.73096  Tot: +0.00000 ]
	SubspaceRotationAdjust: set factor to 0.967
	SubspaceRotationAdjust: resetting CG because factor has changed by 7.76527
ElecMinimize: 	State modified externally: resetting search direction.
ElecMinimize: Iter: 141  F: -1611.776529246561495  |grad|_K:  8.775e-07  alpha:  9.001e-02
	FillingsUpdate:  mu: +0.107912705  nElectrons: 326.000000  magneticMoment: [ Abs: 64.73242  Tot: -0.00000 ]
	SubspaceRotationAdjust: set factor to 0.512
ElecMinimize: Iter: 142  F: -1611.776551352521210  |grad|_K:  2.236e-06  alpha:  1.495e-01  linmin:  1.107e-07  t[s]:  11964.71
	FillingsUpdate:  mu: +0.108067745  nElectrons: 326.000000  magneticMoment: [ Abs: 64.73467  Tot: +0.00000 ]
	SubspaceRotationAdjust: set factor to 0.468
ElecMinimize: Iter: 143  F: -1611.776599252725646  |grad|_K:  7.392e-07  alpha:  5.002e-02  linmin:  1.263e-05  t[s]:  12043.62
ElecMinimize: 	Predicted alpha/alphaT>3.000000, increasing alphaT to 1.500606e-01.
	FillingsUpdate:  mu: +0.108054729  nElectrons: 326.000000  magneticMoment: [ Abs: 64.73742  Tot: +0.00000 ]
	SubspaceRotationAdjust: set factor to 0.356
ElecMinimize: Iter: 144  F: -1611.776626549163211  |grad|_K:  6.820e-07  alpha:  2.613e-01  linmin:  4.025e-05  t[s]:  12151.80
	FillingsUpdate:  mu: +0.107940095  nElectrons: 326.000000  magneticMoment: [ Abs: 64.73880  Tot: -0.00000 ]
	SubspaceRotationAdjust: set factor to 0.221
ElecMinimize: Iter: 145  F: -1611.776638436647090  |grad|_K:  7.239e-07  alpha:  1.337e-01  linmin: -2.792e-06  t[s]:  12230.91
	FillingsUpdate:  mu: +0.108013557  nElectrons: 326.000000  magneticMoment: [ Abs: 64.73932  Tot: +0.00000 ]
	SubspaceRotationAdjust: set factor to 0.152
ElecMinimize: Iter: 146  F: -1611.776646284653225  |grad|_K:  3.589e-07  alpha:  7.799e-02  linmin:  2.153e-07  t[s]:  12310.11
ElecMinimize: 	Predicted alpha/alphaT>3.000000, increasing alphaT to 2.339724e-01.
	FillingsUpdate:  mu: +0.108038911  nElectrons: 326.000000  magneticMoment: [ Abs: 64.74002  Tot: -0.00000 ]
	SubspaceRotationAdjust: set factor to 0.14
ElecMinimize: Iter: 147  F: -1611.776653919888076  |grad|_K:  3.050e-07  alpha:  3.088e-01  linmin:  1.315e-05  t[s]:  12416.64
	FillingsUpdate:  mu: +0.107984816  nElectrons: 326.000000  magneticMoment: [ Abs: 64.74049  Tot: -0.00000 ]
	SubspaceRotationAdjust: set factor to 0.107
	SubspaceRotationAdjust: resetting CG because factor has changed by 0.110971
ElecMinimize: 	State modified externally: resetting search direction.
ElecMinimize: Iter: 148  F: -1611.776657014465854  |grad|_K:  2.394e-07  alpha:  1.734e-01
	FillingsUpdate:  mu: +0.108028789  nElectrons: 326.000000  magneticMoment: [ Abs: 64.74039  Tot: +0.00000 ]
	SubspaceRotationAdjust: set factor to 0.094
ElecMinimize: Iter: 149  F: -1611.776659334958367  |grad|_K:  1.455e-07  alpha:  2.110e-01  linmin:  5.778e-06  t[s]:  12584.28
	FillingsUpdate:  mu: +0.108000593  nElectrons: 326.000000  magneticMoment: [ Abs: 64.74045  Tot: +0.00000 ]
	SubspaceRotationAdjust: set factor to 0.077
ElecMinimize: Iter: 150  F: -1611.776660754173008  |grad|_K:  1.248e-07  alpha:  3.489e-01  linmin: -8.150e-06  t[s]:  12663.19
	FillingsUpdate:  mu: +0.108016177  nElectrons: 326.000000  magneticMoment: [ Abs: 64.74039  Tot: -0.00000 ]
	SubspaceRotationAdjust: set factor to 0.0873
ElecMinimize: Iter: 151  F: -1611.776662545813451  |grad|_K:  1.294e-07  alpha:  5.989e-01  linmin:  1.273e-05  t[s]:  12743.33
	FillingsUpdate:  mu: +0.108029340  nElectrons: 326.000000  magneticMoment: [ Abs: 64.74033  Tot: -0.00000 ]
	SubspaceRotationAdjust: set factor to 0.102
ElecMinimize: Iter: 152  F: -1611.776664241644085  |grad|_K:  1.124e-07  alpha:  5.278e-01  linmin:  1.211e-05  t[s]:  12820.52
	FillingsUpdate:  mu: +0.108001826  nElectrons: 326.000000  magneticMoment: [ Abs: 64.74034  Tot: -0.00000 ]
	SubspaceRotationAdjust: set factor to 0.0927
ElecMinimize: Iter: 153  F: -1611.776665452889347  |grad|_K:  1.283e-07  alpha:  4.998e-01  linmin:  5.102e-06  t[s]:  12900.14
	FillingsUpdate:  mu: +0.108031428  nElectrons: 326.000000  magneticMoment: [ Abs: 64.74023  Tot: +0.00000 ]
	SubspaceRotationAdjust: set factor to 0.0779
ElecMinimize: Iter: 154  F: -1611.776666702753346  |grad|_K:  1.143e-07  alpha:  3.957e-01  linmin:  7.123e-06  t[s]:  12977.80
	FillingsUpdate:  mu: +0.108023540  nElectrons: 326.000000  magneticMoment: [ Abs: 64.74022  Tot: -0.00000 ]
	SubspaceRotationAdjust: set factor to 0.0863
ElecMinimize: Iter: 155  F: -1611.776668019761701  |grad|_K:  1.124e-07  alpha:  5.252e-01  linmin:  2.571e-06  t[s]:  13056.02
	FillingsUpdate:  mu: +0.108024688  nElectrons: 326.000000  magneticMoment: [ Abs: 64.74020  Tot: -0.00000 ]
	SubspaceRotationAdjust: set factor to 0.0932
ElecMinimize: Iter: 156  F: -1611.776669768737975  |grad|_K:  1.503e-07  alpha:  7.209e-01  linmin:  8.914e-07  t[s]:  13130.47
	FillingsUpdate:  mu: +0.108062309  nElectrons: 326.000000  magneticMoment: [ Abs: 64.74000  Tot: +0.00000 ]
	SubspaceRotationAdjust: set factor to 0.0866
ElecMinimize: Iter: 157  F: -1611.776673153492311  |grad|_K:  2.200e-07  alpha:  7.812e-01  linmin:  1.282e-05  t[s]:  13208.50
	FillingsUpdate:  mu: +0.107993277  nElectrons: 326.000000  magneticMoment: [ Abs: 64.73998  Tot: +0.00000 ]
	SubspaceRotationAdjust: set factor to 0.0705
ElecMinimize: Iter: 158  F: -1611.776677813162223  |grad|_K:  2.405e-07  alpha:  5.063e-01  linmin:  2.607e-06  t[s]:  13285.81
	FillingsUpdate:  mu: +0.108019967  nElectrons: 326.000000  magneticMoment: [ Abs: 64.73985  Tot: +0.00000 ]
	SubspaceRotationAdjust: set factor to 0.0685
ElecMinimize: Iter: 159  F: -1611.776683721263680  |grad|_K:  2.281e-07  alpha:  5.332e-01  linmin:  2.034e-05  t[s]:  13364.51
	FillingsUpdate:  mu: +0.108042533  nElectrons: 326.000000  magneticMoment: [ Abs: 64.73987  Tot: +0.00000 ]
	SubspaceRotationAdjust: set factor to 0.0755
ElecMinimize: Iter: 160  F: -1611.776688938479310  |grad|_K:  2.237e-07  alpha:  5.269e-01  linmin:  1.102e-05  t[s]:  13443.62
	FillingsUpdate:  mu: +0.108022784  nElectrons: 326.000000  magneticMoment: [ Abs: 64.74014  Tot: +0.00000 ]
	SubspaceRotationAdjust: set factor to 0.0757
ElecMinimize: Iter: 161  F: -1611.776693383788370  |grad|_K:  2.034e-07  alpha:  4.647e-01  linmin: -3.436e-06  t[s]:  13522.08
	FillingsUpdate:  mu: +0.108078270  nElectrons: 326.000000  magneticMoment: [ Abs: 64.74049  Tot: +0.00000 ]
	SubspaceRotationAdjust: set factor to 0.0795
ElecMinimize: Iter: 162  F: -1611.776697553124905  |grad|_K:  1.971e-07  alpha:  5.248e-01  linmin:  1.918e-05  t[s]:  13602.66
	FillingsUpdate:  mu: +0.108104707  nElectrons: 326.000000  magneticMoment: [ Abs: 64.74109  Tot: +0.00000 ]
	SubspaceRotationAdjust: set factor to 0.0904
ElecMinimize: Iter: 163  F: -1611.776701810346367  |grad|_K:  2.008e-07  alpha:  5.728e-01  linmin:  3.121e-07  t[s]:  13682.40
	FillingsUpdate:  mu: +0.108125323  nElectrons: 326.000000  magneticMoment: [ Abs: 64.74160  Tot: +0.00000 ]
	SubspaceRotationAdjust: set factor to 0.105
ElecMinimize: Iter: 164  F: -1611.776705725225838  |grad|_K:  2.005e-07  alpha:  5.058e-01  linmin:  1.421e-06  t[s]:  13760.10
	FillingsUpdate:  mu: +0.108148165  nElectrons: 326.000000  magneticMoment: [ Abs: 64.74175  Tot: +0.00000 ]
	SubspaceRotationAdjust: set factor to 0.112
ElecMinimize: Iter: 165  F: -1611.776709853467082  |grad|_K:  2.246e-07  alpha:  5.355e-01  linmin:  6.662e-06  t[s]:  13836.84
	FillingsUpdate:  mu: +0.108049851  nElectrons: 326.000000  magneticMoment: [ Abs: 64.74174  Tot: +0.00000 ]
	SubspaceRotationAdjust: set factor to 0.106
ElecMinimize: Iter: 166  F: -1611.776714402715243  |grad|_K:  2.520e-07  alpha:  4.714e-01  linmin:  9.589e-08  t[s]:  13913.74
	FillingsUpdate:  mu: +0.108040532  nElectrons: 326.000000  magneticMoment: [ Abs: 64.74135  Tot: -0.00000 ]
	SubspaceRotationAdjust: set factor to 0.0973
ElecMinimize: Iter: 167  F: -1611.776719900360604  |grad|_K:  2.673e-07  alpha:  4.509e-01  linmin:  3.027e-06  t[s]:  13991.98
	FillingsUpdate:  mu: +0.107984335  nElectrons: 326.000000  magneticMoment: [ Abs: 64.74099  Tot: -0.00000 ]
	SubspaceRotationAdjust: set factor to 0.0982
ElecMinimize: Iter: 168  F: -1611.776727307127885  |grad|_K:  2.895e-07  alpha:  5.413e-01  linmin:  2.643e-07  t[s]:  14070.06
	FillingsUpdate:  mu: +0.108037692  nElectrons: 326.000000  magneticMoment: [ Abs: 64.74060  Tot: +0.00000 ]
	SubspaceRotationAdjust: set factor to 0.104
ElecMinimize: Iter: 169  F: -1611.776736349912426  |grad|_K:  2.894e-07  alpha:  5.623e-01  linmin:  3.154e-06  t[s]:  14151.49
	FillingsUpdate:  mu: +0.108091774  nElectrons: 326.000000  magneticMoment: [ Abs: 64.74025  Tot: +0.00000 ]
	SubspaceRotationAdjust: set factor to 0.112
ElecMinimize: Iter: 170  F: -1611.776744648671638  |grad|_K:  2.746e-07  alpha:  5.177e-01  linmin:  2.374e-06  t[s]:  14230.09
	FillingsUpdate:  mu: +0.108067259  nElectrons: 326.000000  magneticMoment: [ Abs: 64.73994  Tot: +0.00000 ]
	SubspaceRotationAdjust: set factor to 0.118
ElecMinimize: Iter: 171  F: -1611.776750969909244  |grad|_K:  2.470e-07  alpha:  4.374e-01  linmin:  2.061e-06  t[s]:  14310.12
	FillingsUpdate:  mu: +0.108104124  nElectrons: 326.000000  magneticMoment: [ Abs: 64.73945  Tot: +0.00000 ]
	SubspaceRotationAdjust: set factor to 0.111
ElecMinimize: Iter: 172  F: -1611.776755532070410  |grad|_K:  2.420e-07  alpha:  3.900e-01  linmin:  1.872e-06  t[s]:  14388.13
	FillingsUpdate:  mu: +0.108042851  nElectrons: 326.000000  magneticMoment: [ Abs: 64.73905  Tot: +0.00000 ]
	SubspaceRotationAdjust: set factor to 0.102
ElecMinimize: Iter: 173  F: -1611.776759586639628  |grad|_K:  2.256e-07  alpha:  3.611e-01  linmin:  3.888e-06  t[s]:  14466.05
	FillingsUpdate:  mu: +0.108056804  nElectrons: 326.000000  magneticMoment: [ Abs: 64.73850  Tot: -0.00000 ]
	SubspaceRotationAdjust: set factor to 0.112
ElecMinimize: Iter: 174  F: -1611.776763847133680  |grad|_K:  2.053e-07  alpha:  4.366e-01  linmin:  5.416e-06  t[s]:  14544.90
	FillingsUpdate:  mu: +0.108028983  nElectrons: 326.000000  magneticMoment: [ Abs: 64.73801  Tot: -0.00000 ]
	SubspaceRotationAdjust: set factor to 0.133
ElecMinimize: Iter: 175  F: -1611.776767909233513  |grad|_K:  1.991e-07  alpha:  5.028e-01  linmin:  2.219e-06  t[s]:  14622.21
	FillingsUpdate:  mu: +0.108003229  nElectrons: 326.000000  magneticMoment: [ Abs: 64.73761  Tot: -0.00000 ]
	SubspaceRotationAdjust: set factor to 0.155
ElecMinimize: Iter: 176  F: -1611.776771727167898  |grad|_K:  2.037e-07  alpha:  5.020e-01  linmin:  2.333e-07  t[s]:  14697.97
	FillingsUpdate:  mu: +0.108062637  nElectrons: 326.000000  magneticMoment: [ Abs: 64.73732  Tot: +0.00000 ]
	SubspaceRotationAdjust: set factor to 0.137
ElecMinimize: Iter: 177  F: -1611.776775009910807  |grad|_K:  2.443e-07  alpha:  4.121e-01  linmin: -7.937e-08  t[s]:  14775.26
	FillingsUpdate:  mu: +0.108038224  nElectrons: 326.000000  magneticMoment: [ Abs: 64.73730  Tot: -0.00000 ]
	SubspaceRotationAdjust: set factor to 0.11
ElecMinimize: Iter: 178  F: -1611.776777846734149  |grad|_K:  2.155e-07  alpha:  2.475e-01  linmin: -5.095e-07  t[s]:  14852.53
	FillingsUpdate:  mu: +0.108100669  nElectrons: 326.000000  magneticMoment: [ Abs: 64.73723  Tot: -0.00000 ]
	SubspaceRotationAdjust: set factor to 0.12
ElecMinimize: Iter: 179  F: -1611.776781743440552  |grad|_K:  1.981e-07  alpha:  4.369e-01  linmin:  6.284e-07  t[s]:  14929.90
	FillingsUpdate:  mu: +0.108128747  nElectrons: 326.000000  magneticMoment: [ Abs: 64.73720  Tot: -0.00000 ]
	SubspaceRotationAdjust: set factor to 0.132
ElecMinimize: Iter: 180  F: -1611.776785302889948  |grad|_K:  1.947e-07  alpha:  4.730e-01  linmin:  8.303e-07  t[s]:  15005.93
	FillingsUpdate:  mu: +0.108085418  nElectrons: 326.000000  magneticMoment: [ Abs: 64.73714  Tot: +0.00000 ]
	SubspaceRotationAdjust: set factor to 0.119
ElecMinimize: Iter: 181  F: -1611.776788064053562  |grad|_K:  1.977e-07  alpha:  3.796e-01  linmin:  1.037e-06  t[s]:  15084.09
	FillingsUpdate:  mu: +0.108110657  nElectrons: 326.000000  magneticMoment: [ Abs: 64.73693  Tot: +0.00000 ]
	SubspaceRotationAdjust: set factor to 0.0951
ElecMinimize: Iter: 182  F: -1611.776790053418154  |grad|_K:  1.648e-07  alpha:  2.654e-01  linmin:  5.675e-07  t[s]:  15162.98
	FillingsUpdate:  mu: +0.108081101  nElectrons: 326.000000  magneticMoment: [ Abs: 64.73679  Tot: -0.00000 ]
	SubspaceRotationAdjust: set factor to 0.11
ElecMinimize: Iter: 183  F: -1611.776792084482167  |grad|_K:  1.315e-07  alpha:  3.899e-01  linmin:  2.651e-06  t[s]:  15240.54
	FillingsUpdate:  mu: +0.108063265  nElectrons: 326.000000  magneticMoment: [ Abs: 64.73678  Tot: +0.00000 ]
	SubspaceRotationAdjust: set factor to 0.123
ElecMinimize: Iter: 184  F: -1611.776793478961508  |grad|_K:  1.213e-07  alpha:  4.215e-01  linmin:  1.936e-06  t[s]:  15318.83
	FillingsUpdate:  mu: +0.108083078  nElectrons: 326.000000  magneticMoment: [ Abs: 64.73684  Tot: -0.00000 ]
	SubspaceRotationAdjust: set factor to 0.113
ElecMinimize: Iter: 185  F: -1611.776794417748533  |grad|_K:  1.168e-07  alpha:  3.328e-01  linmin:  9.107e-07  t[s]:  15396.40
	FillingsUpdate:  mu: +0.108052794  nElectrons: 326.000000  magneticMoment: [ Abs: 64.73708  Tot: +0.00000 ]
	SubspaceRotationAdjust: set factor to 0.116
ElecMinimize: Iter: 186  F: -1611.776795284665695  |grad|_K:  9.938e-08  alpha:  3.310e-01  linmin:  3.195e-06  t[s]:  15475.86
	FillingsUpdate:  mu: +0.108044140  nElectrons: 326.000000  magneticMoment: [ Abs: 64.73741  Tot: -0.00000 ]
	SubspaceRotationAdjust: set factor to 0.145
ElecMinimize: Iter: 187  F: -1611.776796127778653  |grad|_K:  8.964e-08  alpha:  4.451e-01  linmin:  4.713e-07  t[s]:  15553.44
	FillingsUpdate:  mu: +0.108045555  nElectrons: 326.000000  magneticMoment: [ Abs: 64.73780  Tot: +0.00000 ]
	SubspaceRotationAdjust: set factor to 0.167
ElecMinimize: Iter: 188  F: -1611.776796863247000  |grad|_K:  9.570e-08  alpha:  4.766e-01  linmin: -3.158e-08  t[s]:  15630.03
	FillingsUpdate:  mu: +0.108020031  nElectrons: 326.000000  magneticMoment: [ Abs: 64.73820  Tot: -0.00000 ]
	SubspaceRotationAdjust: set factor to 0.144
ElecMinimize: Iter: 189  F: -1611.776797431590012  |grad|_K:  1.125e-07  alpha:  3.231e-01  linmin:  3.222e-07  t[s]:  15706.35
ElecMinimize: Converged (|Delta F|<1.000000e-06 for 5 iters).
Setting wave functions to eigenvectors of Hamiltonian

# Ionic positions in lattice coordinates:
ion Cr   0.000000000000000   0.000000000000000   0.150000000000000 1
ion Cr   0.500000000000000   0.000000000000000   0.150000000000000 1
ion Cr   0.000000000000000   0.500000000000000   0.150000000000000 1
ion Cr   0.500000000000000   0.500000000000000   0.150000000000000 1
ion Cr   0.250000000000000   0.250000000000000   0.050000000000000 1
ion Cr   0.250000000000000   0.750000000000000   0.050000000000000 1
ion Cr  -0.250000000000000   0.250000000000000   0.050000000000000 1
ion Cr  -0.250000000000000   0.750000000000000   0.050000000000000 1
ion Cr   0.000000000000000   0.000000000000000  -0.050000000000000 0
ion Cr   0.500000000000000   0.000000000000000  -0.050000000000000 0
ion Cr   0.000000000000000   0.500000000000000  -0.050000000000000 0
ion Cr   0.500000000000000   0.500000000000000  -0.050000000000000 0
ion Cr   0.250000000000000   0.250000000000000  -0.150000000000000 0
ion Cr   0.250000000000000   0.750000000000000  -0.150000000000000 0
ion Cr  -0.250000000000000   0.250000000000000  -0.150000000000000 0
ion Cr  -0.250000000000000   0.750000000000000  -0.150000000000000 0
ion O   0.250000000000000   0.250000000000000   0.150000000000000 1
ion O   0.250000000000000   0.750000000000000   0.150000000000000 1
ion O  -0.250000000000000   0.250000000000000   0.150000000000000 1
ion O  -0.250000000000000   0.750000000000000   0.150000000000000 1
ion O   0.000000000000000   0.000000000000000   0.050000000000000 1
ion O   0.500000000000000   0.000000000000000   0.050000000000000 1
ion O   0.000000000000000   0.500000000000000   0.050000000000000 1
ion O   0.500000000000000   0.500000000000000   0.050000000000000 1
ion O   0.250000000000000   0.250000000000000  -0.050000000000000 0
ion O   0.250000000000000   0.750000000000000  -0.050000000000000 0
ion O  -0.250000000000000   0.250000000000000  -0.050000000000000 0
ion O  -0.250000000000000   0.750000000000000  -0.050000000000000 0
ion O   0.000000000000000   0.000000000000000  -0.150000000000000 0
ion O   0.500000000000000   0.000000000000000  -0.150000000000000 0
ion O   0.000000000000000   0.500000000000000  -0.150000000000000 0
ion O   0.500000000000000   0.500000000000000  -0.150000000000000 0
ion O   0.000000000000000   0.000000000000000   0.230000000000000 1

# Forces in Lattice coordinates:
force Cr  -0.006806225546229   0.015376302207082   1.977894714186301 1
force Cr  -0.020393280594161  -0.001564864563819   1.358556928384186 1
force Cr   0.019601008290876   0.000968905669579   1.361960623735915 1
force Cr  -0.018373537210829   0.001625725150046   1.121582636894613 1
force Cr   0.030788438649393   0.017965011534610   0.165886806104043 1
force Cr   0.030253260436226  -0.016142955877342   0.175541048063897 1
force Cr  -0.026456029736743   0.023924651834470   0.190280325625092 1
force Cr  -0.030149891986439  -0.027065478919634   0.171677491299283 1
force Cr   0.000822545544742  -0.000038520878222  -0.073150250660541 0
force Cr  -0.006622767158438  -0.000176837322560   0.006687214766548 0
force Cr  -0.000221281452433   0.000227976922305   0.018071655781947 0
force Cr  -0.006630580470042  -0.000345392778465   0.026247031292588 0
force Cr   0.012931923299008   0.000540202923252  -0.927294170480952 0
force Cr   0.012828593591435  -0.000501001991580  -0.927544143928138 0
force Cr  -0.008854929536850   0.000383448091888  -1.031049458889394 0
force Cr  -0.008901661946311  -0.000434746894817  -1.031103703071068 0
force O   0.119227256919565   0.143600658017079  -1.105610942821194 1
force O   0.127761574693651  -0.147941794910402  -1.084702447902529 1
force O  -0.159970218347024   0.130825534602633  -1.213599441100730 1
force O  -0.158033859189005  -0.136369758963425  -1.219242413557543 1
force O  -0.135120685262987   0.000372054568903  -0.484178841149976 1
force O   0.133923099560578   0.008584307704102  -1.275164162731801 1
force O  -0.144335931903391  -0.008414755086069  -1.406270862594823 1
force O   0.138130979281789  -0.000595123092140  -1.293491837691817 1
force O  -0.122451196521261   0.004922743906372   1.033998551148668 0
force O  -0.111416465356816  -0.009961052405916   1.028937628538894 0
force O   0.122482164923279   0.009279170493103   1.242829775708254 0
force O   0.133895757819846  -0.004114645623728   1.244763453329251 0
force O   0.121517964323676  -0.000116630879384   0.651297381336700 0
force O  -0.076995799093738   0.000063803130838   0.545820579719805 0
force O   0.121208452218883   0.000018842560766   0.642882612705524 0
force O  -0.077294758196256   0.000182814509272   0.536882388605084 0
force O  -0.002203066179583  -0.004901313024880  -0.475203211328193 1

# Energy components:
   Eewald =     4799.8176467127941578
       EH =     6235.2110510636630352
     Eloc =   -12775.4853850047456945
      Enl =     -394.1947045437302677
   Epulay =       -0.0003756781916500
      Exc =     -215.2110348924166487
       KE =      737.1098024245264924
        U =        0.9781910842239575
-------------------------------------
     Etot =    -1611.7748088338762500
       TS =        0.0019885977137262
-------------------------------------
[...]
ion Cr   0.515885897265301  -0.002182292910382   0.163600059381530 1
ion Cr   0.010047176799956   0.498365894170560   0.165097005009409 1
ion Cr   0.512106368851767   0.497284518806867   0.164507371863243 1
ion Cr   0.256614475722816   0.248256960845765   0.059216098391270 1
ion Cr   0.257918663910382   0.747296663352882   0.059738219520403 1
ion Cr  -0.246665464221449   0.249375344208993   0.051511793700688 1
ion Cr  -0.246025655860260   0.747825566172337   0.051976308562245 1
ion Cr   0.000000000000000   0.000000000000000  -0.050000000000000 0
ion Cr   0.500000000000000   0.000000000000000  -0.050000000000000 0
ion Cr   0.000000000000000   0.500000000000000  -0.050000000000000 0
ion Cr   0.500000000000000   0.500000000000000  -0.050000000000000 0
ion Cr   0.250000000000000   0.250000000000000  -0.150000000000000 0
ion Cr   0.250000000000000   0.750000000000000  -0.150000000000000 0
ion Cr  -0.250000000000000   0.250000000000000  -0.150000000000000 0
ion Cr  -0.250000000000000   0.750000000000000  -0.150000000000000 0
ion O   0.274136076389373   0.262341864190739   0.159885697769957 1
ion O   0.272940792118234   0.728839697234387   0.159791018789352 1
ion O  -0.257585537991071   0.260716083442816   0.149978016228571 1
ion O  -0.257403781922548   0.736344983323226   0.150996613382807 1
ion O   0.060342870643017  -0.003508186045675   0.072765407487437 1
ion O   0.541625649353591  -0.002271373894232   0.041700964874565 1
ion O  -0.037087677872768   0.498116195727588   0.040542826245734 1
ion O   0.456670014384727   0.497778221181152   0.040442030332084 1
ion O   0.250000000000000   0.250000000000000  -0.050000000000000 0
ion O   0.250000000000000   0.750000000000000  -0.050000000000000 0
ion O  -0.250000000000000   0.250000000000000  -0.050000000000000 0
ion O  -0.250000000000000   0.750000000000000  -0.050000000000000 0
ion O   0.000000000000000   0.000000000000000  -0.150000000000000 0
ion O   0.500000000000000   0.000000000000000  -0.150000000000000 0
ion O   0.000000000000000   0.500000000000000  -0.150000000000000 0
ion O   0.500000000000000   0.500000000000000  -0.150000000000000 0
ion O  -0.050410518449811   0.006753045504020   0.253138620349831 1
ion H   0.060448699871119   0.057902969276086   0.279193769381939 1

# Forces in Lattice coordinates:
force Cr   0.005213168956975   0.002400344090954  -0.053224768106169 1
force Cr   0.000374603898770   0.000160281947906  -0.023629329146092 1
force Cr   0.011791795061279   0.002770429794546  -0.023812795944064 1
force Cr  -0.000905166316969   0.000666620622534  -0.016535025408889 1
force Cr   0.004014767753872   0.003404097462278   0.010235566379597 1
force Cr   0.001491096031665  -0.005299987426861   0.005699152614183 1
force Cr  -0.001300866216446  -0.000575459314189   0.000115026671717 1
force Cr  -0.000407387791233  -0.000214338011419   0.007489352456234 1
force Cr   0.042481421165333   0.012648864857460   0.673915404286662 0
force Cr   0.032510453565553   0.010547886761020   0.108813790332311 0
force Cr  -0.031967637517297  -0.021869596957553   0.251552248274413 0
force Cr  -0.148125690158621  -0.019559934160282   0.340823595913233 0
force Cr  -0.000627006394065  -0.019439845420045  -0.978813708985006 0
force Cr   0.007339339656164   0.030840938504067  -0.539533408551011 0
force Cr   0.026306851205714  -0.028016217459174  -1.035723083252983 0
force Cr   0.042686878605198   0.030111698581594  -0.657015168799259 0
force O  -0.004628276548371  -0.003029740901831   0.002535824689172 1
force O  -0.003266207470120   0.003783644681377   0.000436963112202 1
force O   0.002201018465760  -0.003696775544153  -0.015053148787867 1
force O   0.007634549440472   0.004396163717997  -0.015824931581513 1
force O  -0.000233399284704  -0.003029229263365   0.010985474465072 1
force O   0.002365680578492   0.000410912740557  -0.003273673855212 1
force O  -0.002166166924892   0.001509789195017  -0.007721662524169 1
force O  -0.000237656708172   0.001245919114613  -0.009702653413975 1
force O  -0.238360349264332  -0.086612826253524   0.472979630152120 0
force O  -0.241754940699440   0.072469757059487   0.081213981751269 0
force O   0.206854268410929  -0.045174474915951   0.610582793850289 0
force O   0.195690285255455   0.042643225210553   0.174193474225229 0
force O   0.017097598431952  -0.091012176239621  -0.649595495973713 0
force O  -0.001703154654879  -0.082393538577224   0.400875254736430 0
force O   0.032454000401298   0.081985478819552   0.447836187517581 0
force O   0.026375328809591   0.084414605323868   0.367087155719435 0
force O  -0.021994450415308  -0.010144073505590  -0.038964618132838 1
force H   0.021131758146489   0.004234894174722   0.070915773855575 1

# Energy components:
   Eewald =     4473.8554289625017191
       EH =     5912.7948589990328401
     Eloc =   -12127.7787826993098861
      Enl =     -394.0159748913671365
   Epulay =       -0.0003758999111746
      Exc =     -215.2698090653616987
       KE =      737.1246571487990877
        U =        0.9597485851642222
-------------------------------------
     Etot =    -1612.3302488604515474
       TS =        0.0016453620483029
-------------------------------------
        F =    -1612.3318942224998409

IonicMinimize: Iter:  31  F: -1612.331894222499841  |grad|_K:  5.614e-04  alpha:  1.000e+00  linmin:  4.718e-03  t[s]: 129152.19

#--- Lowdin population analysis ---
# oxidation-state Cr +3.003 +3.028 +3.028 +2.909 +2.871 +2.866 +2.868 +2.871 +2.889 +2.889 +2.937 +2.888 +2.960 +2.969 +2.943 +2.974
# magnetic-moments Cr +3.826 -2.017 +2.043 -3.965 +3.917 +3.930 -3.911 -3.934 -3.895 +3.773 -3.600 +3.780 -4.010 -2.081 +4.051 +2.081
# oxidation-state O -0.870 -0.868 -0.854 -0.859 -0.872 -0.854 -0.825 -0.844 -0.899 -0.879 -0.889 -0.872 -0.898 -0.864 -0.865 -0.871 -0.840
# magnetic-moments O -0.026 -0.024 +0.065 +0.060 -0.153 +0.035 +0.157 -0.184 -0.004 +0.073 +0.103 +0.031 -0.036 -0.040 +0.032 -0.031 -0.067
# oxidation-state H +0.380
# magnetic-moments H +0.006


-------- Electronic minimization -----------
	FillingsUpdate:  mu: +0.107753680  nElectrons: 327.000000  magneticMoment: [ Abs: 59.34737  Tot: +0.00000 ]
ElecMinimize: Iter:   0  F: -1612.330830207121380  |grad|_K:  5.032e-06  alpha:  1.000e+00
	FillingsUpdate:  mu: +0.107361495  nElectrons: 327.000000  magneticMoment: [ Abs: 59.34743  Tot: +0.00000 ]
	SubspaceRotationAdjust: set factor to 0.178
ElecMinimize: Iter:   1  F: -1612.331856677846645  |grad|_K:  1.044e-06  alpha:  2.103e-01  linmin:  1.642e-04  t[s]: 129280.96
	FillingsUpdate:  mu: +0.108355238  nElectrons: 327.000000  magneticMoment: [ Abs: 59.34761  Tot: +0.00000 ]
	SubspaceRotationAdjust: set factor to 0.118
ElecMinimize: Iter:   2  F: -1612.331897834061692  |grad|_K:  5.911e-07  alpha:  1.959e-01  linmin:  7.917e-05  t[s]: 129361.32
	FillingsUpdate:  mu: +0.107662747  nElectrons: 327.000000  magneticMoment: [ Abs: 59.34753  Tot: +0.00000 ]
	SubspaceRotationAdjust: set factor to 0.0745
ElecMinimize: Iter:   3  F: -1612.331909082374978  |grad|_K:  2.902e-07  alpha:  1.672e-01  linmin: -3.889e-05  t[s]: 129439.17
	FillingsUpdate:  mu: +0.107702197  nElectrons: 327.000000  magneticMoment: [ Abs: 59.34753  Tot: -0.00000 ]
	SubspaceRotationAdjust: set factor to 0.101
ElecMinimize: Iter:   4  F: -1612.331913974101781  |grad|_K:  1.994e-07  alpha:  3.008e-01  linmin:  1.411e-06  t[s]: 129518.70
	FillingsUpdate:  mu: +0.107899382  nElectrons: 327.000000  magneticMoment: [ Abs: 59.34756  Tot: -0.00000 ]
	SubspaceRotationAdjust: set factor to 0.0988
ElecMinimize: Iter:   5  F: -1612.331916731171532  |grad|_K:  1.440e-07  alpha:  3.597e-01  linmin:  3.838e-06  t[s]: 129596.90
	FillingsUpdate:  mu: +0.107761480  nElectrons: 327.000000  magneticMoment: [ Abs: 59.34751  Tot: -0.00000 ]
	SubspaceRotationAdjust: set factor to 0.103
ElecMinimize: Iter:   6  F: -1612.331918464517457  |grad|_K:  1.294e-07  alpha:  4.338e-01  linmin: -2.419e-06  t[s]: 129675.69
	FillingsUpdate:  mu: +0.107820901  nElectrons: 327.000000  magneticMoment: [ Abs: 59.34748  Tot: -0.00000 ]
	SubspaceRotationAdjust: set factor to 0.127
ElecMinimize: Iter:   7  F: -1612.331919829263597  |grad|_K:  1.157e-07  alpha:  4.224e-01  linmin:  6.846e-07  t[s]: 129753.77
	FillingsUpdate:  mu: +0.107910315  nElectrons: 327.000000  magneticMoment: [ Abs: 59.34743  Tot: -0.00000 ]
	SubspaceRotationAdjust: set factor to 0.141
ElecMinimize: Iter:   8  F: -1612.331921080853590  |grad|_K:  1.229e-07  alpha:  4.850e-01  linmin:  5.215e-07  t[s]: 129833.34
	FillingsUpdate:  mu: +0.107751839  nElectrons: 327.000000  magneticMoment: [ Abs: 59.34733  Tot: +0.00000 ]
	SubspaceRotationAdjust: set factor to 0.122
ElecMinimize: Iter:   9  F: -1612.331922258866143  |grad|_K:  1.238e-07  alpha:  4.046e-01  linmin: -1.550e-06  t[s]: 129912.35
	FillingsUpdate:  mu: +0.107868190  nElectrons: 327.000000  magneticMoment: [ Abs: 59.34725  Tot: +0.00000 ]
	SubspaceRotationAdjust: set factor to 0.111
ElecMinimize: Iter:  10  F: -1612.331923280832598  |grad|_K:  1.021e-07  alpha:  3.456e-01  linmin:  1.140e-06  t[s]: 129990.22
	FillingsUpdate:  mu: +0.107853854  nElectrons: 327.000000  magneticMoment: [ Abs: 59.34712  Tot: -0.00000 ]
	SubspaceRotationAdjust: set factor to 0.126
ElecMinimize: Iter:  11  F: -1612.331924184400577  |grad|_K:  7.933e-08  alpha:  4.498e-01  linmin: -1.324e-06  t[s]: 130069.99
	FillingsUpdate:  mu: +0.107775370  nElectrons: 327.000000  magneticMoment: [ Abs: 59.34703  Tot: -0.00000 ]
	SubspaceRotationAdjust: set factor to 0.113
ElecMinimize: Iter:  12  F: -1612.331924686613320  |grad|_K:  6.727e-08  alpha:  4.138e-01  linmin: -2.636e-07  t[s]: 130148.03
	FillingsUpdate:  mu: +0.107851037  nElectrons: 327.000000  magneticMoment: [ Abs: 59.34699  Tot: -0.00000 ]
	SubspaceRotationAdjust: set factor to 0.082
ElecMinimize: Iter:  13  F: -1612.331924942743854  |grad|_K:  4.782e-08  alpha:  2.934e-01  linmin:  7.482e-07  t[s]: 130228.08
	FillingsUpdate:  mu: +0.107819432  nElectrons: 327.000000  magneticMoment: [ Abs: 59.34695  Tot: +0.00000 ]
	SubspaceRotationAdjust: set factor to 0.0886
ElecMinimize: Iter:  14  F: -1612.331925114588330  |grad|_K:  3.519e-08  alpha:  3.896e-01  linmin: -5.266e-06  t[s]: 130304.94
	FillingsUpdate:  mu: +0.107802573  nElectrons: 327.000000  magneticMoment: [ Abs: 59.34692  Tot: +0.00000 ]
	SubspaceRotationAdjust: set factor to 0.0982
ElecMinimize: Iter:  15  F: -1612.331925205950938  |grad|_K:  2.604e-08  alpha:  3.821e-01  linmin: -6.376e-06  t[s]: 130383.08
ElecMinimize: Converged (|Delta F|<1.000000e-06 for 5 iters).
Setting wave functions to eigenvectors of Hamiltonian

# Ionic positions in lattice coordinates:
ion Cr   0.013426743613717   0.000494955974065   0.167337821101349 1
ion Cr   0.515991847760507  -0.002238373483834   0.163483222041825 1
ion Cr   0.010748396376206   0.498426861268835   0.165004913994770 1
ion Cr   0.512426342666262   0.497316174085676   0.164422701017945 1
ion Cr   0.256806973937474   0.248333144170906   0.059182620208810 1
ion Cr   0.258074238804285   0.747168638503983   0.059740077362322 1
ion Cr  -0.246774750566710   0.249270830455957   0.051490641762262 1
ion Cr  -0.246164876875826   0.747953419771409   0.051946743517031 1
ion Cr   0.000000000000000   0.000000000000000  -0.050000000000000 0
ion Cr   0.500000000000000   0.000000000000000  -0.050000000000000 0
ion Cr   0.000000000000000   0.500000000000000  -0.050000000000000 0
ion Cr   0.500000000000000   0.500000000000000  -0.050000000000000 0
ion Cr   0.250000000000000   0.250000000000000  -0.150000000000000 0
ion Cr   0.250000000000000   0.750000000000000  -0.150000000000000 0
ion Cr  -0.250000000000000   0.250000000000000  -0.150000000000000 0
ion Cr  -0.250000000000000   0.750000000000000  -0.150000000000000 0
ion O   0.274340213445311   0.262386025101093   0.159809808432791 1
ion O   0.273291207534501   0.729024694264431   0.159836768393142 1
ion O  -0.257314748807804   0.260681881535213   0.149908205308135 1
ion O  -0.257015465381845   0.736447103080899   0.150925146847092 1
ion O   0.060411948493916  -0.003591644144995   0.072690147728276 1
ion O   0.541609822410292  -0.002349346408690   0.041664598375624 1
ion O  -0.037370488162311   0.498318925515552   0.040517095819021 1
ion O   0.456690664869092   0.497912026152933   0.040419714935197 1
ion O   0.250000000000000   0.250000000000000  -0.050000000000000 0
ion O   0.250000000000000   0.750000000000000  -0.050000000000000 0
ion O  -0.250000000000000   0.250000000000000  -0.050000000000000 0
ion O  -0.250000000000000   0.750000000000000  -0.050000000000000 0
ion O   0.000000000000000   0.000000000000000  -0.150000000000000 0
ion O   0.500000000000000   0.000000000000000  -0.150000000000000 0
ion O   0.000000000000000   0.500000000000000  -0.150000000000000 0
ion O   0.500000000000000   0.500000000000000  -0.150000000000000 0
ion O  -0.050585982015039   0.006586165985004   0.253093822712529 1
ion H   0.060553031962394   0.057597159451659   0.279204701044905 1

# Forces in Lattice coordinates:
force Cr   0.002980279350470   0.002196288034701  -0.013327081284626 1
force Cr   0.001770951588363   0.000610228430120  -0.016112940977913 1
force Cr   0.010961807971927   0.002390970620756  -0.019026108221346 1
force Cr  -0.001083526524491   0.001193311115767  -0.012782927908408 1
force Cr   0.002302097554542   0.002862715460922   0.016987249809407 1
force Cr  -0.000786112918082  -0.003776643495177   0.014425137113897 1
force Cr   0.001181034894708   0.002074813276667   0.006085749978530 1
force Cr   0.002065991183429  -0.002406986514790   0.015579537592548 1
force Cr   0.042468465214332   0.012462397371319   0.674565351381527 0
force Cr   0.032294353921709   0.010151807333980   0.103062418340596 0
force Cr  -0.032702831534790  -0.021178904812629   0.251734868369603 0
force Cr  -0.147812111228655  -0.019010676220304   0.335483972822729 0
force Cr  -0.000671460448023  -0.019436751906475  -0.980168296753719 0
force Cr   0.007258510510522   0.030846069632166  -0.540272458553028 0
force Cr   0.026362047482325  -0.028013926885660  -1.036619423343297 0
force Cr   0.042732113306462   0.030115596866735  -0.657541698798341 0
force O  -0.004463173633216  -0.003768379247009   0.000385413684452 1
force O  -0.002007144223042   0.005445387363488  -0.006761942006397 1
force O   0.003020214333812  -0.003875512034768  -0.019110423223525 1
force O   0.006746178967278   0.004776596312023  -0.019611388113751 1
force O   0.001297152249521  -0.002211697953778  -0.001324615488692 1
force O   0.001088275015576   0.000852736848396  -0.006966082693163 1
force O  -0.001303474204103   0.000751756208267  -0.009783103082446 1
force O   0.000504006690079  -0.000245275354619  -0.012646719137591 1
force O  -0.238418729482924  -0.087278754181644   0.478509535228242 0
force O  -0.241659566489574   0.072969070503480   0.080697721741978 0
force O   0.206757049190822  -0.045811932072039   0.611781337175414 0
force O   0.195373693873165   0.043478131024678   0.173396351719755 0
force O   0.016995921177124  -0.090964979705946  -0.648671426125896 0
force O  -0.001607968180844  -0.082308968983445   0.400831572115049 0
force O   0.032476695686730   0.081856529857733   0.447836203032924 0
force O   0.026480936730882   0.084321053168947   0.367753071917809 0
force O  -0.007653419272135  -0.003135589921324  -0.038106311083244 1
force H   0.007223453512312  -0.002195637624830   0.028591378720956 1

# Energy components:
   Eewald =     4475.9842985577424770
       EH =     5914.8934645781901054
     Eloc =   -12132.0061225569879753
      Enl =     -394.0155028292712132
   Epulay =       -0.0003758999111746
      Exc =     -215.2700391899597321
       KE =      737.1241277381438977
        U =        0.9598705428405651
-------------------------------------
     Etot =    -1612.3302790592119891
       TS =        0.0016461467389138
-------------------------------------
        F =    -1612.3319252059509381

IonicMinimize: Iter:  32  F: -1612.331925205950938  |grad|_K:  3.424e-04  alpha:  1.000e+00  linmin: -1.991e-02  t[s]: 130393.31
IonicMinimize: Converged (|Delta F|<1.000000e-04 for 3 iters).

#--- Lowdin population analysis ---
# oxidation-state Cr +3.003 +3.027 +3.028 +2.909 +2.871 +2.865 +2.868 +2.870 +2.889 +2.889 +2.937 +2.888 +2.960 +2.969 +2.943 +2.974
# magnetic-moments Cr +3.826 -2.017 +2.043 -3.965 +3.917 +3.930 -3.911 -3.933 -3.895 +3.773 -3.600 +3.780 -4.010 -2.081 +4.051 +2.081
# oxidation-state O -0.870 -0.867 -0.853 -0.858 -0.872 -0.853 -0.825 -0.844 -0.899 -0.879 -0.889 -0.872 -0.898 -0.864 -0.865 -0.871 -0.841
# magnetic-moments O -0.026 -0.024 +0.065 +0.060 -0.153 +0.035 +0.157 -0.184 -0.004 +0.073 +0.103 +0.031 -0.036 -0.040 +0.032 -0.031 -0.068
# oxidation-state H +0.380
# magnetic-moments H +0.006


Dumping 'OH.ionpos' ... done
Dumping 'OH.lattice' ... done
Dumping 'OH.Ecomponents' ... done
End date and time: Tue May 20 11:41:44 2025  (Duration: 1-12:13:16.80)
Done!
File 'min_progress.txt' has been deleted.
File 'min_details.txt' has been deleted.
File 'O_pos.txt' does not exist, so it cannot be deleted.
File 'OH_pos.txt' does not exist, so it cannot be deleted.
Directory 'runs' has been deleted.
File '/data2/jt577/May_2025/Relax_Mag_litU/pure_CrO/runs/wavefunctions/O.wfns' does not exist and cannot be copied.
File '/data2/jt577/May_2025/Relax_Mag_litU/pure_CrO/runs/wavefunctions/OH.wfns' does not exist and cannot be copied.
File '/data2/jt577/May_2025/Relax_Mag_litU/pure_CrO/runs/calc_20250516-211208/O/O.wfns' does not exist and cannot be copied.
File '/data2/jt577/May_2025/Relax_Mag_litU/pure_CrO/runs/calc_20250516-211208/OH/OH.wfns' does not exist and cannot be copied.
File '/data2/jt577/May_2025/Relax_Mag_litU/pure_CrO/runs/calc_20250516-211208/O/O.ionpos' has been copied to '/data2/jt577/May_2025/Relax_Mag_litU/pure_CrO/runs/positions/O.ionpos'.
File '/data2/jt577/May_2025/Relax_Mag_litU/pure_CrO/runs/calc_20250516-211208/O/O.lattice' has been copied to '/data2/jt577/May_2025/Relax_Mag_litU/pure_CrO/runs/positions/O.lattice'.
File '/data2/jt577/May_2025/Relax_Mag_litU/pure_CrO/runs/calc_20250516-211208/OH/OH.ionpos' has been copied to '/data2/jt577/May_2025/Relax_Mag_litU/pure_CrO/runs/positions/OH.ionpos'.
File '/data2/jt577/May_2025/Relax_Mag_litU/pure_CrO/runs/calc_20250516-211208/OH/OH.lattice' has been copied to '/data2/jt577/May_2025/Relax_Mag_litU/pure_CrO/runs/positions/OH.lattice'.
File '/data2/jt577/May_2025/Relax_Mag_litU/pure_CrO/runs/wavefunctions/O.wfns' does not exist and cannot be copied.
File '/data2/jt577/May_2025/Relax_Mag_litU/pure_CrO/runs/wavefunctions/OH.wfns' does not exist and cannot be copied.
Traceback (most recent call last):
  File "/data2/jt577/May_2025/Relax_Mag_litU/pure_CrO/main.py", line 246, in <module>
    x, _, unique_folder = mn.PBFGS(fun=cost, x0=x, jac=grad_cost, args=(elements, target, eta, q, first_iteration, generic_inputs, lattice, positions_ordered, ads_O_pos, ads_OH_pos), S=num_species, B=quasi_Hessian, folder=unique_folder, progress_file_path=progress_file_path, details_file_path=details_file_path, maxit=maxit, tol=1e-2, callback=callback_func)
  File "/data2/jt577/May_2025/Relax_Mag_litU/pure_CrO/modules/minimize.py", line 162, in PBFGS
    unique_folder = bs.perform_calc(x, *args)
  File "/data2/jt577/May_2025/Relax_Mag_litU/pure_CrO/modules/bsruncalc.py", line 152, in perform_calc
    energy_surface(w, adsorbate='O', elements=elements, folder=unique_folder, first_iteration=first_iteration, generic_inputs=generic_inputs, lattice=lattice, positions_ordered=positions_ordered, ads_O_pos=ads_O_pos, ads_OH_pos=ads_OH_pos)
  File "/data2/jt577/May_2025/Relax_Mag_litU/pure_CrO/modules/bsruncalc.py", line 128, in energy_surface
    write_input_surface(weights, adsorbate, elements, folder, first_iteration, generic_inputs, lattice, positions_ordered, ads_O_pos, ads_OH_pos)
  File "/data2/jt577/May_2025/Relax_Mag_litU/pure_CrO/modules/bsruncalc.py", line 82, in write_input_surface
    curr_line = mixed_lines[i]
IndexError: list index out of range
