
*************** JDFTx 1.7.0  ***************

Start date and time: Fri Mar 28 13:57:02 2025
Executable /data2/jt577/jdftx_eat_withLibXC/build/jdftx with command-line: -i /data2/jt577/March_2025/pure_RSO/ionic_relax_magnetism/pure_CrO/runs/calc_20250328-135701/O/O.in
Running on hosts (process indices):  node3405 (0-8)
Divided in process groups (process indices):  0 (0)  1 (1)  2 (2)  3 (3)  4 (4)  5 (5)  6 (6)  7 (7)  8 (8)
Resource initialization completed at t[s]:      0.00
Run totals: 9 processes, 90 threads, 0 GPUs


Input parsed successfully to the following command list (including defaults):

add-mix 
add-U 	Cr d 0.16
basis kpoint-dependent
coords-type Lattice
core-overlap-check vector
coulomb-interaction Periodic
davidson-band-ratio 1.1
dump End IonicPositions Lattice Ecomponents
dump-name O.$VAR
elec-cutoff 30
elec-eigen-algo Davidson
elec-ex-corr gga-x-rpbe gga-c-pbe
elec-smearing Fermi 0.001
electronic-minimize  \
	dirUpdateScheme      FletcherReeves \
	linminMethod         DirUpdateRecommended \
	nIterations          1000 \
	history              15 \
	knormThreshold       0 \
	energyDiffThreshold  1e-06 \
	nEnergyDiff          5 \
	alphaTstart          1 \
	alphaTmin            1e-10 \
	updateTestStepSize   yes \
	alphaTreduceFactor   0.1 \
	alphaTincreaseFactor 3 \
	nAlphaAdjustMax      3 \
	wolfeEnergy          0.0001 \
	wolfeGradient        0.9 \
	fdTest               no
exchange-regularization WignerSeitzTruncated
fluid None
fluid-ex-corr (null) lda-PZ
fluid-gummel-loop 10 1.000000e-05
fluid-minimize  \
	dirUpdateScheme      PolakRibiere \
	linminMethod         DirUpdateRecommended \
	nIterations          100 \
	history              15 \
	knormThreshold       0 \
	energyDiffThreshold  0 \
	nEnergyDiff          2 \
	alphaTstart          1 \
	alphaTmin            1e-10 \
	updateTestStepSize   yes \
	alphaTreduceFactor   0.1 \
	alphaTincreaseFactor 3 \
	nAlphaAdjustMax      3 \
	wolfeEnergy          0.0001 \
	wolfeGradient        0.9 \
	fdTest               no
fluid-solvent H2O 55.338 ScalarEOS \
	epsBulk 78.4 \
	pMol 0.92466 \
	epsInf 1.77 \
	Pvap 1.06736e-10 \
	sigmaBulk 4.62e-05 \
	Rvdw 2.61727 \
	Res 1.42 \
	tauNuc 343133 \
	poleEl 15 7 1
forces-output-coords Positions
initial-magnetic-moments  \
	Cr 1 -1 1 -1 1 1 -1 -1 -1 1 -1 1 -1 -1 1 1
initial-state O.$VAR
ion Cr  0.000000000000000   0.000000000000000   0.150000000000000 1
ion Cr  0.500000000000000   0.000000000000000   0.150000000000000 1
ion Cr  0.000000000000000   0.500000000000000   0.150000000000000 1
ion Cr  0.500000000000000   0.500000000000000   0.150000000000000 1
ion Cr  0.250000000000000   0.250000000000000   0.050000000000000 1
ion Cr  0.250000000000000   0.750000000000000   0.050000000000000 1
ion Cr -0.250000000000000   0.250000000000000   0.050000000000000 1
ion Cr -0.250000000000000   0.750000000000000   0.050000000000000 1
ion Cr  0.000000000000000   0.000000000000000  -0.050000000000000 0
ion Cr  0.500000000000000   0.000000000000000  -0.050000000000000 0
ion Cr  0.000000000000000   0.500000000000000  -0.050000000000000 0
ion Cr  0.500000000000000   0.500000000000000  -0.050000000000000 0
ion Cr  0.250000000000000   0.250000000000000  -0.150000000000000 0
ion Cr  0.250000000000000   0.750000000000000  -0.150000000000000 0
ion Cr -0.250000000000000   0.250000000000000  -0.150000000000000 0
ion Cr -0.250000000000000   0.750000000000000  -0.150000000000000 0
ion O  0.250000000000000   0.250000000000000   0.150000000000000 1
ion O  0.250000000000000   0.750000000000000   0.150000000000000 1
ion O -0.250000000000000   0.250000000000000   0.150000000000000 1
ion O -0.250000000000000   0.750000000000000   0.150000000000000 1
ion O  0.000000000000000   0.000000000000000   0.050000000000000 1
ion O  0.500000000000000   0.000000000000000   0.050000000000000 1
ion O  0.000000000000000   0.500000000000000   0.050000000000000 1
ion O  0.500000000000000   0.500000000000000   0.050000000000000 1
ion O  0.250000000000000   0.250000000000000  -0.050000000000000 0
ion O  0.250000000000000   0.750000000000000  -0.050000000000000 0
ion O -0.250000000000000   0.250000000000000  -0.050000000000000 0
ion O -0.250000000000000   0.750000000000000  -0.050000000000000 0
ion O  0.000000000000000   0.000000000000000  -0.150000000000000 0
ion O  0.500000000000000   0.000000000000000  -0.150000000000000 0
ion O  0.000000000000000   0.500000000000000  -0.150000000000000 0
ion O  0.500000000000000   0.500000000000000  -0.150000000000000 0
ion O  0.000000000000000   0.000000000000000   0.230000000000000 1
ion-species SG15/$ID_ONCV_PBE.upf
ion-width 0
ionic-minimize  \
	dirUpdateScheme      L-BFGS \
	linminMethod         DirUpdateRecommended \
	nIterations          1000 \
	history              15 \
	knormThreshold       0.0001 \
	energyDiffThreshold  0.0001 \
	nEnergyDiff          3 \
	alphaTstart          1 \
	alphaTmin            1e-10 \
	updateTestStepSize   yes \
	alphaTreduceFactor   0.1 \
	alphaTincreaseFactor 3 \
	nAlphaAdjustMax      3 \
	wolfeEnergy          0.0001 \
	wolfeGradient        0.9 \
	fdTest               no
kpoint   0.500000000000   0.500000000000   0.500000000000  1.00000000000000
kpoint-folding 3 3 1 
latt-move-scale 1 1 1
latt-scale 1 1 1 
lattice  \
	   8.410000000000000    8.410000000000000    0.000000000000000  \
	   8.410000000000000   -8.410000000000000    0.000000000000000  \
	   0.000000000000000    0.000000000000000   42.049999999999997 
lattice-minimize  \
	dirUpdateScheme      L-BFGS \
	linminMethod         DirUpdateRecommended \
	nIterations          0 \
	history              15 \
	knormThreshold       0 \
	energyDiffThreshold  1e-06 \
	nEnergyDiff          2 \
	alphaTstart          1 \
	alphaTmin            1e-10 \
	updateTestStepSize   yes \
	alphaTreduceFactor   0.1 \
	alphaTincreaseFactor 3 \
	nAlphaAdjustMax      3 \
	wolfeEnergy          0.0001 \
	wolfeGradient        0.9 \
	fdTest               no
lcao-params -1 1e-06 0.001
pcm-variant GLSSA13
spintype z-spin
subspace-rotation-factor 1 yes
symmetries none
symmetry-threshold 0.0001


Applied RMS atom displacement 0 bohrs to make symmetries exact.

---------- Initializing the Grid ----------
R = 
[         8.41         8.41            0  ]
[         8.41        -8.41            0  ]
[            0            0        42.05  ]
unit cell volume = 5948.23
G =
[   0.373554   0.373554         -0  ]
[   0.373554  -0.373554         -0  ]
[         -0         -0   0.149422  ]
Minimum fftbox size, Smin = [  60  60  208  ]
Chosen fftbox size, S = [  60  60  210  ]

---------- Exchange Correlation functional ----------
Initialized LibXC exchange functional 'Hammer, Hansen, and Norskov'
Initialized LibXC correlation functional 'Perdew, Burke & Ernzerhof'

---------- Setting up pseudopotentials ----------
Width of ionic core gaussian charges (only for fluid interactions / plotting) set to 0

Reading pseudopotential file '/data2/jt577/jdftx_eat_withLibXC/build/pseudopotentials/SG15/Cr_ONCV_PBE.upf':
  'Cr' pseudopotential, 'PBE' functional
  Generated using ONCVPSP code by D. R. Hamann
  Author: Martin Schlipf and Francois Gygi  Date: 150915.
  14 valence electrons, 4 orbitals, 6 projectors, 1160 radial grid points, with lMax = 2
  Transforming local potential to a uniform radial grid of dG=0.02 with 1373 points.
  Transforming nonlocal projectors to a uniform radial grid of dG=0.02 with 528 points.
    3S    l: 0   occupation:  2.0   eigenvalue: -2.865131
    3P    l: 1   occupation:  6.0   eigenvalue: -1.810600
    4S    l: 0   occupation:  2.0   eigenvalue: -0.180525
    3D    l: 2   occupation:  4.0   eigenvalue: -0.220312
  Transforming atomic orbitals to a uniform radial grid of dG=0.02 with 528 points.
  WARNING: large normalization error in atomic orbital 1s (integral: 0.000001).
  Core radius for overlap checks: 2.10 bohrs.
  Reading pulay file /data2/jt577/jdftx_eat_withLibXC/build/pseudopotentials/SG15/Cr_ONCV_PBE.pulay ... using dE_dnG = -9.817895e-06 computed for Ecut = 30.

Reading pseudopotential file '/data2/jt577/jdftx_eat_withLibXC/build/pseudopotentials/SG15/O_ONCV_PBE.upf':
  'O' pseudopotential, 'PBE' functional
  Generated using ONCVPSP code by D. R. Hamann
  Author: Martin Schlipf and Francois Gygi  Date: 150915.
  6 valence electrons, 2 orbitals, 4 projectors, 936 radial grid points, with lMax = 1
  Transforming local potential to a uniform radial grid of dG=0.02 with 1373 points.
  Transforming nonlocal projectors to a uniform radial grid of dG=0.02 with 528 points.
    2S    l: 0   occupation:  2.0   eigenvalue: -0.880572
    2P    l: 1   occupation:  4.0   eigenvalue: -0.331869
  Transforming atomic orbitals to a uniform radial grid of dG=0.02 with 528 points.
  Core radius for overlap checks: 1.29 bohrs.
  Reading pulay file /data2/jt577/jdftx_eat_withLibXC/build/pseudopotentials/SG15/O_ONCV_PBE.pulay ... using dE_dnG = -8.209514e-03 computed for Ecut = 30.

Initialized 2 species with 33 total atoms.

Folded 1 k-points by 3x3x1 to 9 k-points.

---------- Setting up k-points, bands, fillings ----------
No reducable k-points. 
Computing the number of bands and number of electrons
Calculating initial fillings.
nElectrons: 326.000000   nBands: 228   nStates: 18

----- Setting up reduced wavefunction bases (one per k-point) -----
average nbasis = 46667.556 , ideal nbasis = 46683.549

---------- Setting up ewald sum ----------
Optimum gaussian width for ewald sums = 4.036024 bohr.
Real space sum over 605 unit cells with max indices [  5  5  2  ]
Reciprocal space sum over 5915 terms with max indices [  6  6  17  ]

---------- Allocating electronic variables ----------
Initializing wave functions:  linear combination of atomic orbitals
Cr (M=1) pseudo-atom majority spin occupations:   s ( 1 0 )  p ( 3 )  d ( 3.5 )
Cr (M=1) pseudo-atom minority spin occupations:   s ( 1 0 )  p ( 3 )  d ( 2.5 )
O pseudo-atom occupations:   s ( 2 )  p ( 4 )
	FillingsUpdate:  mu: +0.827208865  nElectrons: 326.000000  magneticMoment: [ Abs: 0.68939  Tot: -0.00000 ]
LCAOMinimize: Iter:   0  F: -1479.1586305558055301  |grad|_K:  1.554e-02  alpha:  1.000e+00
LCAOMinimize: 	Step increased F by 1.261896e+02, reducing alpha to 2.245339e-02.
	FillingsUpdate:  mu: +0.536484575  nElectrons: 326.000000  magneticMoment: [ Abs: 0.78106  Tot: +0.00000 ]
LCAOMinimize: Iter:   1  F: -1483.4604911208452904  |grad|_K:  1.205e-02  alpha:  2.245e-02  linmin: -9.593e-02  cgtest:  7.289e-01  t[s]:     54.75
LCAOMinimize: 	Wrong curvature in test step, increasing alphaT to 6.736018e-02.
	FillingsUpdate:  mu: +0.401235093  nElectrons: 326.000000  magneticMoment: [ Abs: 0.89628  Tot: +0.00000 ]
LCAOMinimize: Iter:   2  F: -1487.0499847882149425  |grad|_K:  1.199e-02  alpha: -9.289e-02  linmin: -8.067e-02  cgtest:  8.541e-01  t[s]:     69.00
LCAOMinimize: 	Step increased F by 7.866917e+01, reducing alpha to 2.498234e-02.
	FillingsUpdate:  mu: +0.280451925  nElectrons: 326.000000  magneticMoment: [ Abs: 1.13354  Tot: -0.00000 ]
LCAOMinimize: Iter:   3  F: -1490.9432555658095225  |grad|_K:  1.153e-02  alpha:  2.498e-02  linmin: -6.932e-02  cgtest:  8.243e-01  t[s]:     95.76
LCAOMinimize: 	Predicted alpha/alphaT>3.000000, increasing alphaT to 7.494701e-02.
LCAOMinimize: 	Wrong curvature in test step, increasing alphaT to 2.248410e-01.
	FillingsUpdate:  mu: +0.477288401  nElectrons: 326.000000  magneticMoment: [ Abs: 2.55939  Tot: -0.00000 ]
LCAOMinimize: Iter:   4  F: -1502.0257073739896896  |grad|_K:  1.648e-02  alpha: -9.695e-01  linmin: -8.327e-02  cgtest:  1.453e-01  t[s]:    114.58
LCAOMinimize: 	Step increased F by 1.931085e+02, reducing alpha to 3.799273e-02.
LCAOMinimize: 	Step increased F by 7.192191e+00, reducing alpha to 3.799273e-03.
	FillingsUpdate:  mu: +0.467978065  nElectrons: 326.000000  magneticMoment: [ Abs: 3.07672  Tot: -0.00000 ]
LCAOMinimize: Iter:   5  F: -1504.3501056550446719  |grad|_K:  1.514e-02  alpha:  3.799e-03  linmin: -1.282e-01  cgtest:  8.818e-01  t[s]:    151.79
LCAOMinimize: 	Predicted alpha/alphaT>3.000000, increasing alphaT to 1.139782e-02.
LCAOMinimize: 	Predicted alpha/alphaT>3.000000, increasing alphaT to 3.419346e-02.
	FillingsUpdate:  mu: +0.067171394  nElectrons: 326.000000  magneticMoment: [ Abs: 4.01825  Tot: -0.00000 ]
LCAOMinimize: Iter:   6  F: -1506.7886711602138803  |grad|_K:  1.536e-02  alpha:  1.275e-02  linmin: -2.258e-02  cgtest:  2.186e-01  t[s]:    176.60
	FillingsUpdate:  mu: -0.293851016  nElectrons: 326.000000  magneticMoment: [ Abs: 8.72813  Tot: -0.00000 ]
LCAOMinimize: Iter:   7  F: -1510.8512849091080170  |grad|_K:  2.231e-02  alpha:  3.659e-02  linmin:  7.483e-03  cgtest: -2.011e-02  t[s]:    191.88
	FillingsUpdate:  mu: -0.166742195  nElectrons: 326.000000  magneticMoment: [ Abs: 13.55167  Tot: +0.00000 ]
LCAOMinimize: Iter:   8  F: -1512.8261355921772520  |grad|_K:  1.352e-02  alpha:  1.308e-02  linmin:  1.606e-02  cgtest:  8.452e-01  t[s]:    207.60
LCAOMinimize: Encountered beta<0, resetting CG.
	FillingsUpdate:  mu: -0.128141617  nElectrons: 326.000000  magneticMoment: [ Abs: 13.22576  Tot: -0.00000 ]
LCAOMinimize: Iter:   9  F: -1513.7116341026228383  |grad|_K:  1.034e-02  alpha:  1.061e-02  linmin: -9.153e-03  cgtest: -6.783e-02  t[s]:    223.21
LCAOMinimize: 	Predicted alpha/alphaT>3.000000, increasing alphaT to 3.183662e-02.
	FillingsUpdate:  mu: -0.009675022  nElectrons: 326.000000  magneticMoment: [ Abs: 13.06689  Tot: -0.00000 ]
LCAOMinimize: Iter:  10  F: -1514.7172057240140930  |grad|_K:  5.738e-03  alpha:  9.218e-03  linmin: -1.497e-01  cgtest:  2.087e-01  t[s]:    243.33
	FillingsUpdate:  mu: +0.067344765  nElectrons: 326.000000  magneticMoment: [ Abs: 12.28013  Tot: +0.00000 ]
LCAOMinimize: Iter:  11  F: -1514.9710887259477659  |grad|_K:  8.240e-03  alpha:  1.388e-02  linmin:  6.133e-02  cgtest:  1.618e-01  t[s]:    258.97
	FillingsUpdate:  mu: +0.071253374  nElectrons: 326.000000  magneticMoment: [ Abs: 11.49375  Tot: -0.00000 ]
LCAOMinimize: Iter:  12  F: -1515.0023647190255360  |grad|_K:  7.704e-03  alpha:  4.701e-03  linmin:  1.772e-02  cgtest:  9.822e-01  t[s]:    274.73
LCAOMinimize: Encountered beta<0, resetting CG.
	FillingsUpdate:  mu: +0.007304156  nElectrons: 326.000000  magneticMoment: [ Abs: 12.10945  Tot: +0.00000 ]
LCAOMinimize: Iter:  13  F: -1515.2098082618440458  |grad|_K:  5.056e-03  alpha:  8.380e-03  linmin:  8.079e-02  cgtest: -3.620e-01  t[s]:    290.38
	FillingsUpdate:  mu: -0.054144916  nElectrons: 326.000000  magneticMoment: [ Abs: 12.42300  Tot: -0.00000 ]
LCAOMinimize: Iter:  14  F: -1515.2764931609194718  |grad|_K:  4.852e-03  alpha:  8.464e-03  linmin: -3.626e-03  cgtest:  8.183e-01  t[s]:    306.22
	FillingsUpdate:  mu: -0.049652294  nElectrons: 326.000000  magneticMoment: [ Abs: 12.25092  Tot: -0.00000 ]
LCAOMinimize: Iter:  15  F: -1515.3468402581886494  |grad|_K:  2.144e-03  alpha:  6.270e-03  linmin:  1.900e-03  cgtest: -1.619e-02  t[s]:    321.74
LCAOMinimize: 	Predicted alpha/alphaT>3.000000, increasing alphaT to 1.881136e-02.
	FillingsUpdate:  mu: -0.002430771  nElectrons: 326.000000  magneticMoment: [ Abs: 11.87023  Tot: -0.00000 ]
LCAOMinimize: Iter:  16  F: -1515.4126190011891140  |grad|_K:  2.244e-03  alpha:  3.056e-02  linmin:  1.442e-03  cgtest:  5.670e-02  t[s]:    341.67
	FillingsUpdate:  mu: -0.020912120  nElectrons: 326.000000  magneticMoment: [ Abs: 11.91691  Tot: -0.00000 ]
LCAOMinimize: Iter:  17  F: -1515.4840540601956036  |grad|_K:  2.887e-03  alpha:  3.034e-02  linmin: -2.713e-03  cgtest:  2.501e-02  t[s]:    357.34
	FillingsUpdate:  mu: -0.045207429  nElectrons: 326.000000  magneticMoment: [ Abs: 11.83162  Tot: +0.00000 ]
LCAOMinimize: Iter:  18  F: -1515.5219467796739536  |grad|_K:  1.199e-03  alpha:  1.038e-02  linmin:  1.564e-02  cgtest: -3.904e-01  t[s]:    372.64
LCAOMinimize: 	Predicted alpha/alphaT>3.000000, increasing alphaT to 3.115273e-02.
	FillingsUpdate:  mu: -0.048719917  nElectrons: 326.000000  magneticMoment: [ Abs: 11.75689  Tot: -0.00000 ]
LCAOMinimize: Iter:  19  F: -1515.5590967235939388  |grad|_K:  1.139e-03  alpha:  6.267e-02  linmin: -6.558e-03  cgtest:  4.780e-01  t[s]:    392.82
	FillingsUpdate:  mu: -0.012889639  nElectrons: 326.000000  magneticMoment: [ Abs: 11.99282  Tot: -0.00000 ]
LCAOMinimize: Iter:  20  F: -1515.6272315492064990  |grad|_K:  2.669e-03  alpha:  1.052e-01  linmin: -1.759e-03  cgtest: -3.115e-02  t[s]:    408.57
	FillingsUpdate:  mu: -0.019071379  nElectrons: 326.000000  magneticMoment: [ Abs: 12.34338  Tot: +0.00000 ]
LCAOMinimize: Iter:  21  F: -1515.6746209123825793  |grad|_K:  2.580e-03  alpha:  2.467e-02  linmin:  1.024e-02  cgtest: -4.345e-01  t[s]:    424.13
	FillingsUpdate:  mu: -0.040060557  nElectrons: 326.000000  magneticMoment: [ Abs: 12.49296  Tot: -0.00000 ]
LCAOMinimize: Iter:  22  F: -1515.6923926640768059  |grad|_K:  1.880e-03  alpha:  1.185e-02  linmin:  3.096e-04  cgtest:  9.711e-01  t[s]:    439.70
LCAOMinimize: Encountered beta<0, resetting CG.
	FillingsUpdate:  mu: -0.056630196  nElectrons: 326.000000  magneticMoment: [ Abs: 12.53535  Tot: +0.00000 ]
LCAOMinimize: Iter:  23  F: -1515.7156441743154573  |grad|_K:  1.296e-03  alpha:  1.394e-02  linmin:  4.838e-04  cgtest:  7.124e-03  t[s]:    455.42
	FillingsUpdate:  mu: -0.078544772  nElectrons: 326.000000  magneticMoment: [ Abs: 12.63880  Tot: +0.00000 ]
LCAOMinimize: Iter:  24  F: -1515.7355089362836225  |grad|_K:  7.472e-04  alpha:  2.484e-02  linmin: -6.921e-03  cgtest:  2.957e-02  t[s]:    471.03
	FillingsUpdate:  mu: -0.064929715  nElectrons: 326.000000  magneticMoment: [ Abs: 12.59166  Tot: +0.00000 ]
LCAOMinimize: Iter:  25  F: -1515.7488842901673252  |grad|_K:  2.867e-04  alpha:  4.937e-02  linmin: -8.866e-03  cgtest: -8.916e-02  t[s]:    486.68
	FillingsUpdate:  mu: -0.069539916  nElectrons: 326.000000  magneticMoment: [ Abs: 12.56988  Tot: -0.00000 ]
LCAOMinimize: Iter:  26  F: -1515.7546094267268018  |grad|_K:  3.539e-04  alpha:  1.398e-01  linmin: -8.496e-03  cgtest:  2.855e-02  t[s]:    502.34
	FillingsUpdate:  mu: -0.052793102  nElectrons: 326.000000  magneticMoment: [ Abs: 12.46299  Tot: -0.00000 ]
LCAOMinimize: Iter:  27  F: -1515.7613331108900638  |grad|_K:  5.765e-04  alpha:  1.077e-01  linmin: -1.275e-04  cgtest: -5.802e-02  t[s]:    518.01
	FillingsUpdate:  mu: -0.048579960  nElectrons: 326.000000  magneticMoment: [ Abs: 12.46075  Tot: -0.00000 ]
LCAOMinimize: Iter:  28  F: -1515.7685877595317834  |grad|_K:  9.908e-04  alpha:  5.048e-02  linmin:  1.280e-03  cgtest: -4.297e-03  t[s]:    534.12
	FillingsUpdate:  mu: -0.063325446  nElectrons: 326.000000  magneticMoment: [ Abs: 12.59524  Tot: -0.00000 ]
LCAOMinimize: Iter:  29  F: -1515.7797185932527100  |grad|_K:  4.948e-04  alpha:  2.454e-02  linmin: -4.126e-04  cgtest: -1.589e-02  t[s]:    549.65
LCAOMinimize: 	Predicted alpha/alphaT>3.000000, increasing alphaT to 7.361785e-02.
	FillingsUpdate:  mu: -0.064073085  nElectrons: 326.000000  magneticMoment: [ Abs: 12.80320  Tot: +0.00000 ]
LCAOMinimize: Iter:  30  F: -1515.7900398739043339  |grad|_K:  3.578e-04  alpha:  8.833e-02  linmin: -1.779e-03  cgtest:  7.195e-02  t[s]:    569.81
LCAOMinimize: None of the convergence criteria satisfied after 30 iterations.


---- Citations for features of the code used in this run ----

   Software package:
      R. Sundararaman, K. Letchworth-Weaver, K.A. Schwarz, D. Gunceler, Y. Ozhabes and T.A. Arias, 'JDFTx: software for joint density-functional theory', SoftwareX 6, 278 (2017)

   Simplified rotationally-invariant DFT+U:
      S. L. Dudarev et al., Phys. Rev. B 57, 1505 (1998)

   LibXC library of exchange-correlation functions:
      M. A. L. Marques, M. J. T. Oliveira and T. Burnus, Comput. Phys. Commun. 183, 2272 (2012)

   Hammer, Hansen, and Norskov exchange functional:
      B. Hammer, L. B. Hansen, and J. K. Nørskov, Phys. Rev. B 59, 7413 (1999)

   Perdew, Burke & Ernzerhof correlation functional:
      J. P. Perdew, K. Burke, and M. Ernzerhof, Phys. Rev. Lett. 77, 3865 (1996)

   Pseudopotentials:
      M Schlipf and F Gygi, Comput. Phys. Commun. 196, 36 (2015)

   Total energy minimization with Auxiliary Hamiltonian:
      C. Freysoldt, S. Boeck, and J. Neugebauer, Phys. Rev. B 79, 241103(R) (2009)

This list may not be complete. Please suggest additional citations or
report any other bugs at https://github.com/shankar1729/jdftx/issues

Initialization completed successfully at t[s]:    576.34


-------- Electronic minimization -----------
	FillingsUpdate:  mu: -0.064073083  nElectrons: 326.000000  magneticMoment: [ Abs: 12.80320  Tot: +0.00000 ]
ElecMinimize: Iter:   0  F: -1515.790039873899104  |grad|_K:  4.334e-04  alpha:  1.000e+00
	FillingsUpdate:  mu: +0.374686793  nElectrons: 326.000000  magneticMoment: [ Abs: 12.95885  Tot: +0.00000 ]
	SubspaceRotationAdjust: set factor to 0.808
ElecMinimize: Iter:   1  F: -1532.649810374898607  |grad|_K:  1.003e-03  alpha:  4.513e-01  linmin:  3.598e-02  t[s]:    668.42
	FillingsUpdate:  mu: +1.179875681  nElectrons: 326.000000  magneticMoment: [ Abs: 14.06251  Tot: +0.00000 ]
	SubspaceRotationAdjust: set factor to 0.467
ElecMinimize: Iter:   2  F: -1533.468394118002834  |grad|_K:  1.978e-03  alpha:  4.541e-02  linmin:  6.249e-03  t[s]:    747.69
ElecMinimize: 	Step increased F by 4.103418e-01, reducing alpha to 3.667079e-04.
ElecMinimize: 	Step increased F by 4.099029e-01, reducing alpha to 3.667079e-05.
ElecMinimize: 	Step increased F by 4.384510e-01, reducing alpha to 3.667079e-06.
ElecMinimize: 	Step failed to reduce F after 3 attempts. Quitting step.
ElecMinimize: 	Undoing step.
ElecMinimize: 	Step failed: resetting search direction.
	FillingsUpdate:  mu: +1.200039613  nElectrons: 326.000000  magneticMoment: [ Abs: 14.22179  Tot: +0.00000 ]
	SubspaceRotationAdjust: set factor to 0.291
ElecMinimize: Iter:   3  F: -1533.029598477701711  |grad|_K:  1.580e-03  alpha:  3.667e-06
	FillingsUpdate:  mu: +0.418836062  nElectrons: 326.000000  magneticMoment: [ Abs: 14.37766  Tot: -0.00000 ]
	SubspaceRotationAdjust: set factor to 0.142
ElecMinimize: Iter:   4  F: -1546.934280423748078  |grad|_K:  7.533e-04  alpha:  2.607e-02  linmin:  4.105e-03  t[s]:   1030.16
ElecMinimize: 	Predicted alpha/alphaT>3.000000, increasing alphaT to 7.820896e-02.
	FillingsUpdate:  mu: +0.998160620  nElectrons: 326.000000  magneticMoment: [ Abs: 13.21089  Tot: -0.00000 ]
	SubspaceRotationAdjust: set factor to 0.109
	SubspaceRotationAdjust: resetting CG because factor has changed by 0.109053
ElecMinimize: 	State modified externally: resetting search direction.
ElecMinimize: Iter:   5  F: -1567.182873886289599  |grad|_K:  7.427e-04  alpha:  2.197e-01
	FillingsUpdate:  mu: +0.401090806  nElectrons: 326.000000  magneticMoment: [ Abs: 13.64610  Tot: +0.00000 ]
	SubspaceRotationAdjust: set factor to 0.0604
ElecMinimize: Iter:   6  F: -1578.106961639272413  |grad|_K:  4.002e-04  alpha:  1.051e-01  linmin:  2.597e-03  t[s]:   1235.28
ElecMinimize: 	Predicted alpha/alphaT>3.000000, increasing alphaT to 3.152480e-01.
	FillingsUpdate:  mu: -0.000143145  nElectrons: 326.000000  magneticMoment: [ Abs: 15.00180  Tot: +0.00000 ]
	SubspaceRotationAdjust: set factor to 0.055
ElecMinimize: Iter:   7  F: -1587.284196675071371  |grad|_K:  3.548e-04  alpha:  3.081e-01  linmin:  2.241e-03  t[s]:   1344.76
	FillingsUpdate:  mu: +0.024897002  nElectrons: 326.000000  magneticMoment: [ Abs: 15.86486  Tot: -0.00000 ]
	SubspaceRotationAdjust: set factor to 0.0741
ElecMinimize: Iter:   8  F: -1592.994664574924627  |grad|_K:  2.663e-04  alpha:  2.881e-01  linmin:  1.843e-03  t[s]:   1423.38
	FillingsUpdate:  mu: +0.084983707  nElectrons: 326.000000  magneticMoment: [ Abs: 16.35680  Tot: +0.00000 ]
	SubspaceRotationAdjust: set factor to 0.0721
ElecMinimize: Iter:   9  F: -1595.434407370648387  |grad|_K:  2.418e-04  alpha:  1.951e-01  linmin: -4.165e-05  t[s]:   1498.75
	FillingsUpdate:  mu: +0.233557255  nElectrons: 326.000000  magneticMoment: [ Abs: 17.16305  Tot: +0.00000 ]
	SubspaceRotationAdjust: set factor to 0.0871
ElecMinimize: Iter:  10  F: -1598.197646826670962  |grad|_K:  2.242e-04  alpha:  2.439e-01  linmin: -3.265e-04  t[s]:   1576.73
	FillingsUpdate:  mu: +0.195858386  nElectrons: 326.000000  magneticMoment: [ Abs: 18.10768  Tot: -0.00000 ]
	SubspaceRotationAdjust: set factor to 0.0895
ElecMinimize: Iter:  11  F: -1600.026503350882422  |grad|_K:  1.876e-04  alpha:  1.818e-01  linmin: -2.856e-04  t[s]:   1652.02
	FillingsUpdate:  mu: +0.108480179  nElectrons: 326.000000  magneticMoment: [ Abs: 18.98861  Tot: -0.00000 ]
	SubspaceRotationAdjust: set factor to 0.0825
ElecMinimize: Iter:  12  F: -1601.050829233091008  |grad|_K:  1.414e-04  alpha:  1.442e-01  linmin: -1.023e-04  t[s]:   1730.50
	FillingsUpdate:  mu: +0.078687965  nElectrons: 326.000000  magneticMoment: [ Abs: 20.18416  Tot: -0.00000 ]
	SubspaceRotationAdjust: set factor to 0.104
ElecMinimize: Iter:  13  F: -1601.908178582142909  |grad|_K:  1.165e-04  alpha:  2.164e-01  linmin: -2.215e-04  t[s]:   1808.09
	FillingsUpdate:  mu: +0.092067694  nElectrons: 326.000000  magneticMoment: [ Abs: 21.36883  Tot: +0.00000 ]
	SubspaceRotationAdjust: set factor to 0.116
ElecMinimize: Iter:  14  F: -1602.562815203942364  |grad|_K:  1.153e-04  alpha:  2.348e-01  linmin: -4.251e-05  t[s]:   1886.10
	FillingsUpdate:  mu: +0.123904230  nElectrons: 326.000000  magneticMoment: [ Abs: 22.90840  Tot: -0.00000 ]
	SubspaceRotationAdjust: set factor to 0.113
ElecMinimize: Iter:  15  F: -1603.118030714116230  |grad|_K:  1.357e-04  alpha:  2.158e-01  linmin: -3.218e-05  t[s]:   1964.24
	FillingsUpdate:  mu: +0.094224678  nElectrons: 326.000000  magneticMoment: [ Abs: 26.44865  Tot: +0.00000 ]
	SubspaceRotationAdjust: set factor to 0.118
ElecMinimize: Iter:  16  F: -1604.055793990622078  |grad|_K:  1.511e-04  alpha:  2.583e-01  linmin: -5.139e-06  t[s]:   2040.03
	FillingsUpdate:  mu: +0.062066006  nElectrons: 326.000000  magneticMoment: [ Abs: 30.26544  Tot: +0.00000 ]
	SubspaceRotationAdjust: set factor to 0.13
ElecMinimize: Iter:  17  F: -1605.297146456694463  |grad|_K:  1.696e-04  alpha:  2.797e-01  linmin: -7.219e-05  t[s]:   2118.66
	FillingsUpdate:  mu: +0.048619803  nElectrons: 326.000000  magneticMoment: [ Abs: 33.17040  Tot: +0.00000 ]
	SubspaceRotationAdjust: set factor to 0.124
ElecMinimize: Iter:  18  F: -1606.870976582372350  |grad|_K:  1.997e-04  alpha:  2.599e-01  linmin:  7.249e-06  t[s]:   2195.81
	FillingsUpdate:  mu: +0.038410588  nElectrons: 326.000000  magneticMoment: [ Abs: 33.35473  Tot: -0.00000 ]
	SubspaceRotationAdjust: set factor to 0.146
ElecMinimize: Iter:  19  F: -1606.934366484399789  |grad|_K:  1.919e-04  alpha:  1.556e-02  linmin: -4.912e-04  t[s]:   2271.72
ElecMinimize: 	Predicted alpha/alphaT>3.000000, increasing alphaT to 4.669026e-02.
	FillingsUpdate:  mu: +0.086102325  nElectrons: 326.000000  magneticMoment: [ Abs: 34.51733  Tot: -0.00000 ]
	SubspaceRotationAdjust: set factor to 0.121
ElecMinimize: Iter:  20  F: -1608.691048081792587  |grad|_K:  1.518e-04  alpha:  1.373e-01  linmin:  6.956e-04  t[s]:   2381.01
	FillingsUpdate:  mu: +0.085759034  nElectrons: 326.000000  magneticMoment: [ Abs: 34.51796  Tot: +0.00000 ]
	SubspaceRotationAdjust: set factor to 0.161
ElecMinimize: Iter:  21  F: -1608.693549911937907  |grad|_K:  1.479e-04  alpha:  1.363e-04  linmin: -3.166e-05  t[s]:   2459.74
ElecMinimize: 	Predicted alpha/alphaT>3.000000, increasing alphaT to 4.089309e-04.
ElecMinimize: 	Predicted alpha/alphaT>3.000000, increasing alphaT to 1.226793e-03.
ElecMinimize: 	Predicted alpha/alphaT>3.000000, increasing alphaT to 3.680378e-03.
	FillingsUpdate:  mu: +0.083209684  nElectrons: 326.000000  magneticMoment: [ Abs: 34.91664  Tot: -0.00000 ]
	SubspaceRotationAdjust: set factor to 0.19
ElecMinimize: Iter:  22  F: -1608.755958632322290  |grad|_K:  1.224e-04  alpha:  2.396e-02  linmin:  8.531e-04  t[s]:   2601.53
ElecMinimize: 	Bad step direction: g.d > 0.
ElecMinimize: 	Undoing step.
ElecMinimize: 	Step failed: resetting search direction.
	FillingsUpdate:  mu: +0.083209684  nElectrons: 326.000000  magneticMoment: [ Abs: 34.91664  Tot: -0.00000 ]
	SubspaceRotationAdjust: set factor to 0.215
ElecMinimize: Iter:  23  F: -1608.755958632318425  |grad|_K:  1.238e-04  alpha:  0.000e+00
ElecMinimize: 	Predicted alpha/alphaT>3.000000, increasing alphaT to 7.189488e-02.
	FillingsUpdate:  mu: +0.104132791  nElectrons: 326.000000  magneticMoment: [ Abs: 35.05630  Tot: +0.00000 ]
	SubspaceRotationAdjust: set factor to 0.127
ElecMinimize: Iter:  24  F: -1609.338323879596601  |grad|_K:  1.366e-04  alpha:  2.100e-01  linmin:  8.486e-03  t[s]:   2758.48
	FillingsUpdate:  mu: +0.090954288  nElectrons: 326.000000  magneticMoment: [ Abs: 35.03920  Tot: +0.00000 ]
	SubspaceRotationAdjust: set factor to 0.0843
ElecMinimize: Iter:  25  F: -1609.576459600651788  |grad|_K:  5.946e-05  alpha:  8.051e-02  linmin:  5.050e-03  t[s]:   2836.25
ElecMinimize: 	Predicted alpha/alphaT>3.000000, increasing alphaT to 2.415354e-01.
	FillingsUpdate:  mu: +0.097533945  nElectrons: 326.000000  magneticMoment: [ Abs: 35.32419  Tot: +0.00000 ]
	SubspaceRotationAdjust: set factor to 0.101
ElecMinimize: Iter:  26  F: -1609.918105394828217  |grad|_K:  5.265e-05  alpha:  5.377e-01  linmin: -1.501e-03  t[s]:   2946.53
	FillingsUpdate:  mu: +0.094399711  nElectrons: 326.000000  magneticMoment: [ Abs: 35.58797  Tot: -0.00000 ]
	SubspaceRotationAdjust: set factor to 0.0849
ElecMinimize: Iter:  27  F: -1610.134038627197924  |grad|_K:  4.806e-05  alpha:  4.027e-01  linmin: -4.287e-04  t[s]:   3023.25
	FillingsUpdate:  mu: +0.105559781  nElectrons: 326.000000  magneticMoment: [ Abs: 35.79397  Tot: +0.00000 ]
	SubspaceRotationAdjust: set factor to 0.0952
ElecMinimize: Iter:  28  F: -1610.277074820674443  |grad|_K:  2.797e-05  alpha:  3.317e-01  linmin: -2.471e-03  t[s]:   3098.41
	FillingsUpdate:  mu: +0.115557136  nElectrons: 326.000000  magneticMoment: [ Abs: 36.01395  Tot: +0.00000 ]
	SubspaceRotationAdjust: set factor to 0.113
ElecMinimize: Iter:  29  F: -1610.348259831364658  |grad|_K:  2.717e-05  alpha:  4.508e-01  linmin:  5.479e-04  t[s]:   3177.58
	FillingsUpdate:  mu: +0.115194544  nElectrons: 326.000000  magneticMoment: [ Abs: 36.40656  Tot: +0.00000 ]
	SubspaceRotationAdjust: set factor to 0.116
ElecMinimize: Iter:  30  F: -1610.413706299204705  |grad|_K:  2.600e-05  alpha:  4.693e-01  linmin: -3.952e-04  t[s]:   3253.63
	FillingsUpdate:  mu: +0.131012037  nElectrons: 326.000000  magneticMoment: [ Abs: 36.76574  Tot: -0.00000 ]
	SubspaceRotationAdjust: set factor to 0.111
ElecMinimize: Iter:  31  F: -1610.459821182119867  |grad|_K:  2.590e-05  alpha:  3.407e-01  linmin:  3.453e-04  t[s]:   3331.08
	FillingsUpdate:  mu: +0.121245269  nElectrons: 326.000000  magneticMoment: [ Abs: 37.23608  Tot: +0.00000 ]
	SubspaceRotationAdjust: set factor to 0.111
ElecMinimize: Iter:  32  F: -1610.503375082692628  |grad|_K:  2.281e-05  alpha:  3.438e-01  linmin: -2.712e-04  t[s]:   3408.87
	FillingsUpdate:  mu: +0.120499382  nElectrons: 326.000000  magneticMoment: [ Abs: 37.71801  Tot: -0.00000 ]
	SubspaceRotationAdjust: set factor to 0.113
ElecMinimize: Iter:  33  F: -1610.551414332553122  |grad|_K:  2.290e-05  alpha:  4.792e-01  linmin:  6.238e-04  t[s]:   3484.59
	FillingsUpdate:  mu: +0.124649924  nElectrons: 326.000000  magneticMoment: [ Abs: 38.39719  Tot: +0.00000 ]
	SubspaceRotationAdjust: set factor to 0.129
ElecMinimize: Iter:  34  F: -1610.594969306409439  |grad|_K:  2.388e-05  alpha:  4.522e-01  linmin:  2.367e-04  t[s]:   3562.69
	FillingsUpdate:  mu: +0.112137467  nElectrons: 326.000000  magneticMoment: [ Abs: 38.78073  Tot: +0.00000 ]
	SubspaceRotationAdjust: set factor to 0.101
ElecMinimize: Iter:  35  F: -1610.618418439068819  |grad|_K:  2.462e-05  alpha:  2.407e-01  linmin:  8.256e-04  t[s]:   3640.67
	FillingsUpdate:  mu: +0.111721859  nElectrons: 326.000000  magneticMoment: [ Abs: 39.35888  Tot: +0.00000 ]
	SubspaceRotationAdjust: set factor to 0.0699
ElecMinimize: Iter:  36  F: -1610.642645410998739  |grad|_K:  1.944e-05  alpha:  2.023e-01  linmin:  1.837e-03  t[s]:   3717.50
	FillingsUpdate:  mu: +0.111724109  nElectrons: 326.000000  magneticMoment: [ Abs: 39.71633  Tot: +0.00000 ]
	SubspaceRotationAdjust: set factor to 0.0742
ElecMinimize: Iter:  37  F: -1610.655693051440949  |grad|_K:  1.746e-05  alpha:  2.039e-01  linmin: -5.994e-04  t[s]:   3795.21
	FillingsUpdate:  mu: +0.112253414  nElectrons: 326.000000  magneticMoment: [ Abs: 39.93839  Tot: -0.00000 ]
	SubspaceRotationAdjust: set factor to 0.0866
ElecMinimize: Iter:  38  F: -1610.668282011051588  |grad|_K:  1.313e-05  alpha:  2.077e-01  linmin: -1.084e-03  t[s]:   3871.26
	FillingsUpdate:  mu: +0.123067907  nElectrons: 326.000000  magneticMoment: [ Abs: 40.14350  Tot: +0.00000 ]
	SubspaceRotationAdjust: set factor to 0.11
ElecMinimize: Iter:  39  F: -1610.680031279007835  |grad|_K:  1.227e-05  alpha:  3.351e-01  linmin: -6.156e-04  t[s]:   3949.41
	FillingsUpdate:  mu: +0.128629494  nElectrons: 326.000000  magneticMoment: [ Abs: 40.33186  Tot: +0.00000 ]
	SubspaceRotationAdjust: set factor to 0.104
ElecMinimize: Iter:  40  F: -1610.687827760916207  |grad|_K:  1.354e-05  alpha:  2.609e-01  linmin:  1.458e-04  t[s]:   4028.35
	FillingsUpdate:  mu: +0.125381022  nElectrons: 326.000000  magneticMoment: [ Abs: 40.52158  Tot: +0.00000 ]
	SubspaceRotationAdjust: set factor to 0.128
ElecMinimize: Iter:  41  F: -1610.696643166836793  |grad|_K:  1.130e-05  alpha:  2.523e-01  linmin: -1.925e-04  t[s]:   4105.85
	FillingsUpdate:  mu: +0.121665954  nElectrons: 326.000000  magneticMoment: [ Abs: 40.77434  Tot: +0.00000 ]
	SubspaceRotationAdjust: set factor to 0.133
ElecMinimize: Iter:  42  F: -1610.706110377301911  |grad|_K:  1.347e-05  alpha:  3.816e-01  linmin: -1.991e-05  t[s]:   4185.11
	FillingsUpdate:  mu: +0.114911155  nElectrons: 326.000000  magneticMoment: [ Abs: 41.02652  Tot: +0.00000 ]
	SubspaceRotationAdjust: set factor to 0.12
ElecMinimize: Iter:  43  F: -1610.713718101334734  |grad|_K:  1.416e-05  alpha:  2.216e-01  linmin:  6.643e-05  t[s]:   4260.01
	FillingsUpdate:  mu: +0.114960408  nElectrons: 326.000000  magneticMoment: [ Abs: 41.43633  Tot: -0.00000 ]
	SubspaceRotationAdjust: set factor to 0.147
ElecMinimize: Iter:  44  F: -1610.727449833965693  |grad|_K:  1.391e-05  alpha:  3.547e-01  linmin: -1.943e-04  t[s]:   4337.93
	FillingsUpdate:  mu: +0.120135207  nElectrons: 326.000000  magneticMoment: [ Abs: 41.90835  Tot: -0.00000 ]
	SubspaceRotationAdjust: set factor to 0.152
ElecMinimize: Iter:  45  F: -1610.742467754092104  |grad|_K:  1.552e-05  alpha:  3.923e-01  linmin: -3.356e-04  t[s]:   4414.77
	FillingsUpdate:  mu: +0.116756522  nElectrons: 326.000000  magneticMoment: [ Abs: 42.39009  Tot: -0.00000 ]
	SubspaceRotationAdjust: set factor to 0.135
ElecMinimize: Iter:  46  F: -1610.755591223855390  |grad|_K:  1.743e-05  alpha:  2.758e-01  linmin: -1.881e-05  t[s]:   4492.95
	FillingsUpdate:  mu: +0.117657634  nElectrons: 326.000000  magneticMoment: [ Abs: 43.06615  Tot: -0.00000 ]
	SubspaceRotationAdjust: set factor to 0.156
ElecMinimize: Iter:  47  F: -1610.771844636836704  |grad|_K:  1.594e-05  alpha:  2.778e-01  linmin: -6.137e-06  t[s]:   4572.05
	FillingsUpdate:  mu: +0.118781311  nElectrons: 326.000000  magneticMoment: [ Abs: 43.66777  Tot: +0.00000 ]
	SubspaceRotationAdjust: set factor to 0.184
ElecMinimize: Iter:  48  F: -1610.787215067151237  |grad|_K:  1.639e-05  alpha:  3.231e-01  linmin:  1.130e-03  t[s]:   4649.32
	FillingsUpdate:  mu: +0.117152316  nElectrons: 326.000000  magneticMoment: [ Abs: 44.03914  Tot: -0.00000 ]
	SubspaceRotationAdjust: set factor to 0.183
ElecMinimize: Iter:  49  F: -1610.795124516253964  |grad|_K:  1.676e-05  alpha:  1.705e-01  linmin:  1.029e-04  t[s]:   4727.85
	FillingsUpdate:  mu: +0.119839148  nElectrons: 326.000000  magneticMoment: [ Abs: 44.44743  Tot: +0.00000 ]
	SubspaceRotationAdjust: set factor to 0.163
ElecMinimize: Iter:  50  F: -1610.805465823286113  |grad|_K:  1.735e-05  alpha:  1.936e-01  linmin: -8.022e-05  t[s]:   4805.38
	FillingsUpdate:  mu: +0.124924572  nElectrons: 326.000000  magneticMoment: [ Abs: 44.79964  Tot: +0.00000 ]
	SubspaceRotationAdjust: set factor to 0.232
ElecMinimize: Iter:  51  F: -1610.816732985204681  |grad|_K:  1.619e-05  alpha:  1.935e-01  linmin: -1.867e-04  t[s]:   4885.67
	FillingsUpdate:  mu: +0.122503894  nElectrons: 326.000000  magneticMoment: [ Abs: 45.10106  Tot: +0.00000 ]
	SubspaceRotationAdjust: set factor to 0.278
ElecMinimize: Iter:  52  F: -1610.827115335321196  |grad|_K:  1.471e-05  alpha:  2.015e-01  linmin: -8.589e-04  t[s]:   4964.17
	FillingsUpdate:  mu: +0.120853873  nElectrons: 326.000000  magneticMoment: [ Abs: 45.42201  Tot: +0.00000 ]
	SubspaceRotationAdjust: set factor to 0.357
ElecMinimize: Iter:  53  F: -1610.838165984690249  |grad|_K:  1.401e-05  alpha:  2.442e-01  linmin: -4.778e-04  t[s]:   5041.49
	FillingsUpdate:  mu: +0.117981247  nElectrons: 326.000000  magneticMoment: [ Abs: 45.70499  Tot: -0.00000 ]
	SubspaceRotationAdjust: set factor to 0.438
ElecMinimize: Iter:  54  F: -1610.849288152332292  |grad|_K:  1.453e-05  alpha:  2.820e-01  linmin: -1.845e-04  t[s]:   5118.46
	FillingsUpdate:  mu: +0.111664682  nElectrons: 326.000000  magneticMoment: [ Abs: 45.92429  Tot: +0.00000 ]
	SubspaceRotationAdjust: set factor to 0.525
ElecMinimize: Iter:  55  F: -1610.860377002633868  |grad|_K:  1.518e-05  alpha:  2.674e-01  linmin:  3.909e-05  t[s]:   5196.22
	FillingsUpdate:  mu: +0.111792588  nElectrons: 326.000000  magneticMoment: [ Abs: 46.11182  Tot: +0.00000 ]
	SubspaceRotationAdjust: set factor to 0.618
ElecMinimize: Iter:  56  F: -1610.869993519473155  |grad|_K:  1.420e-05  alpha:  2.211e-01  linmin: -9.377e-05  t[s]:   5272.13
	FillingsUpdate:  mu: +0.110067251  nElectrons: 326.000000  magneticMoment: [ Abs: 46.20008  Tot: +0.00000 ]
	SubspaceRotationAdjust: set factor to 0.757
ElecMinimize: Iter:  57  F: -1610.879263373978119  |grad|_K:  1.341e-05  alpha:  2.355e-01  linmin:  5.792e-05  t[s]:   5351.37
	FillingsUpdate:  mu: +0.115334594  nElectrons: 326.000000  magneticMoment: [ Abs: 46.25312  Tot: +0.00000 ]
	SubspaceRotationAdjust: set factor to 0.91
	SubspaceRotationAdjust: resetting CG because factor has changed by 8.3423
ElecMinimize: 	State modified externally: resetting search direction.
ElecMinimize: Iter:  58  F: -1610.886758682375557  |grad|_K:  1.350e-05  alpha:  2.200e-01
	FillingsUpdate:  mu: +0.109127789  nElectrons: 326.000000  magneticMoment: [ Abs: 46.22170  Tot: -0.00000 ]
	SubspaceRotationAdjust: set factor to 0.491
ElecMinimize: Iter:  59  F: -1610.897398875312547  |grad|_K:  2.890e-05  alpha:  3.379e-01  linmin:  5.068e-03  t[s]:   5524.88
	FillingsUpdate:  mu: +0.111870570  nElectrons: 326.000000  magneticMoment: [ Abs: 46.23096  Tot: +0.00000 ]
	SubspaceRotationAdjust: set factor to 0.761
ElecMinimize: Iter:  60  F: -1610.902812414637538  |grad|_K:  1.492e-05  alpha:  6.236e-02  linmin:  1.471e-03  t[s]:   5604.54
ElecMinimize: 	Predicted alpha/alphaT>3.000000, increasing alphaT to 1.870653e-01.
	FillingsUpdate:  mu: +0.115697963  nElectrons: 326.000000  magneticMoment: [ Abs: 46.22546  Tot: +0.00000 ]
	SubspaceRotationAdjust: set factor to 0.67
ElecMinimize: Iter:  61  F: -1610.914030723429050  |grad|_K:  1.385e-05  alpha:  2.808e-01  linmin: -2.350e-03  t[s]:   5716.63
	FillingsUpdate:  mu: +0.117827490  nElectrons: 326.000000  magneticMoment: [ Abs: 46.16222  Tot: -0.00000 ]
	SubspaceRotationAdjust: set factor to 0.633
ElecMinimize: Iter:  62  F: -1610.920373115175607  |grad|_K:  8.082e-06  alpha:  1.228e-01  linmin: -4.508e-03  t[s]:   5794.89
	FillingsUpdate:  mu: +0.110521182  nElectrons: 326.000000  magneticMoment: [ Abs: 46.17069  Tot: -0.00000 ]
	SubspaceRotationAdjust: set factor to 0.355
ElecMinimize: Iter:  63  F: -1610.923713320347360  |grad|_K:  1.939e-05  alpha:  3.307e-01  linmin:  1.261e-02  t[s]:   5873.69
ElecMinimize: 	Bad step direction: g.d > 0.
ElecMinimize: 	Undoing step.
ElecMinimize: 	Step failed: resetting search direction.
	FillingsUpdate:  mu: +0.110521182  nElectrons: 326.000000  magneticMoment: [ Abs: 46.17069  Tot: -0.00000 ]
	SubspaceRotationAdjust: set factor to 0.215
ElecMinimize: Iter:  64  F: -1610.923713320342813  |grad|_K:  1.511e-05  alpha:  0.000e+00
	FillingsUpdate:  mu: +0.116907232  nElectrons: 326.000000  magneticMoment: [ Abs: 46.22355  Tot: +0.00000 ]
	SubspaceRotationAdjust: set factor to 0.105
	SubspaceRotationAdjust: resetting CG because factor has changed by 0.115132
ElecMinimize: 	State modified externally: resetting search direction.
ElecMinimize: Iter:  65  F: -1610.926965646186318  |grad|_K:  5.022e-06  alpha:  1.525e-01
	FillingsUpdate:  mu: +0.117860280  nElectrons: 326.000000  magneticMoment: [ Abs: 46.20319  Tot: -0.00000 ]
	SubspaceRotationAdjust: set factor to 0.165
ElecMinimize: Iter:  66  F: -1610.928540345638112  |grad|_K:  2.724e-06  alpha:  3.313e-01  linmin:  3.823e-03  t[s]:   6091.94
	FillingsUpdate:  mu: +0.114395863  nElectrons: 326.000000  magneticMoment: [ Abs: 46.21234  Tot: +0.00000 ]
	SubspaceRotationAdjust: set factor to 0.165
ElecMinimize: Iter:  67  F: -1610.929508604467401  |grad|_K:  3.483e-06  alpha:  7.251e-01  linmin:  2.049e-03  t[s]:   6169.59
	FillingsUpdate:  mu: +0.114510224  nElectrons: 326.000000  magneticMoment: [ Abs: 46.25847  Tot: +0.00000 ]
	SubspaceRotationAdjust: set factor to 0.173
ElecMinimize: Iter:  68  F: -1610.930850853707625  |grad|_K:  4.191e-06  alpha:  5.953e-01  linmin:  3.720e-04  t[s]:   6250.30
	FillingsUpdate:  mu: +0.112976282  nElectrons: 326.000000  magneticMoment: [ Abs: 46.31469  Tot: -0.00000 ]
	SubspaceRotationAdjust: set factor to 0.184
ElecMinimize: Iter:  69  F: -1610.932866162616847  |grad|_K:  5.329e-06  alpha:  6.066e-01  linmin:  1.535e-04  t[s]:   6330.08
	FillingsUpdate:  mu: +0.107561400  nElectrons: 326.000000  magneticMoment: [ Abs: 46.48764  Tot: -0.00000 ]
	SubspaceRotationAdjust: set factor to 0.206
ElecMinimize: Iter:  70  F: -1610.936723632935127  |grad|_K:  7.319e-06  alpha:  7.259e-01  linmin:  6.539e-04  t[s]:   6410.42
	FillingsUpdate:  mu: +0.111867999  nElectrons: 326.000000  magneticMoment: [ Abs: 46.66364  Tot: -0.00000 ]
	SubspaceRotationAdjust: set factor to 0.214
ElecMinimize: Iter:  71  F: -1610.940338844337930  |grad|_K:  7.099e-06  alpha:  3.352e-01  linmin: -9.140e-04  t[s]:   6489.63
	FillingsUpdate:  mu: +0.107774054  nElectrons: 326.000000  magneticMoment: [ Abs: 46.86100  Tot: +0.00000 ]
	SubspaceRotationAdjust: set factor to 0.252
ElecMinimize: Iter:  72  F: -1610.944009852991712  |grad|_K:  8.262e-06  alpha:  3.535e-01  linmin:  1.030e-03  t[s]:   6566.87
	FillingsUpdate:  mu: +0.109266508  nElectrons: 326.000000  magneticMoment: [ Abs: 47.02525  Tot: +0.00000 ]
	SubspaceRotationAdjust: set factor to 0.27
ElecMinimize: Iter:  73  F: -1610.946155503400860  |grad|_K:  1.028e-05  alpha:  1.765e-01  linmin:  1.494e-04  t[s]:   6644.69
	FillingsUpdate:  mu: +0.113118262  nElectrons: 326.000000  magneticMoment: [ Abs: 47.22157  Tot: +0.00000 ]
	SubspaceRotationAdjust: set factor to 0.25
ElecMinimize: Iter:  74  F: -1610.949220074174264  |grad|_K:  1.107e-05  alpha:  1.529e-01  linmin: -1.487e-04  t[s]:   6724.38
	FillingsUpdate:  mu: +0.114905638  nElectrons: 326.000000  magneticMoment: [ Abs: 47.41026  Tot: +0.00000 ]
	SubspaceRotationAdjust: set factor to 0.224
ElecMinimize: Iter:  75  F: -1610.952281182514071  |grad|_K:  1.180e-05  alpha:  1.271e-01  linmin: -2.869e-05  t[s]:   6804.90
	FillingsUpdate:  mu: +0.116923589  nElectrons: 326.000000  magneticMoment: [ Abs: 47.61814  Tot: -0.00000 ]
	SubspaceRotationAdjust: set factor to 0.218
ElecMinimize: Iter:  76  F: -1610.955665006570143  |grad|_K:  1.252e-05  alpha:  1.260e-01  linmin:  1.098e-04  t[s]:   6881.24
	FillingsUpdate:  mu: +0.115999226  nElectrons: 326.000000  magneticMoment: [ Abs: 47.80143  Tot: -0.00000 ]
	SubspaceRotationAdjust: set factor to 0.195
ElecMinimize: Iter:  77  F: -1610.959098858633524  |grad|_K:  1.375e-05  alpha:  1.154e-01  linmin:  1.251e-04  t[s]:   6962.27
	FillingsUpdate:  mu: +0.114901386  nElectrons: 326.000000  magneticMoment: [ Abs: 47.92893  Tot: +0.00000 ]
	SubspaceRotationAdjust: set factor to 0.23
ElecMinimize: Iter:  78  F: -1610.962241192507463  |grad|_K:  1.207e-05  alpha:  8.755e-02  linmin:  1.702e-05  t[s]:   7039.90
	FillingsUpdate:  mu: +0.115482559  nElectrons: 326.000000  magneticMoment: [ Abs: 48.00747  Tot: +0.00000 ]
	SubspaceRotationAdjust: set factor to 0.262
ElecMinimize: Iter:  79  F: -1610.964801247933792  |grad|_K:  1.175e-05  alpha:  9.169e-02  linmin: -4.014e-05  t[s]:   7117.71
	FillingsUpdate:  mu: +0.114792521  nElectrons: 326.000000  magneticMoment: [ Abs: 48.08873  Tot: -0.00000 ]
	SubspaceRotationAdjust: set factor to 0.267
ElecMinimize: Iter:  80  F: -1610.967565778217022  |grad|_K:  1.227e-05  alpha:  1.039e-01  linmin:  9.619e-05  t[s]:   7194.68
	FillingsUpdate:  mu: +0.114642917  nElectrons: 326.000000  magneticMoment: [ Abs: 48.17140  Tot: +0.00000 ]
	SubspaceRotationAdjust: set factor to 0.381
ElecMinimize: Iter:  81  F: -1610.969910297645811  |grad|_K:  1.120e-05  alpha:  8.200e-02  linmin:  4.453e-05  t[s]:   7272.94
	FillingsUpdate:  mu: +0.107764682  nElectrons: 326.000000  magneticMoment: [ Abs: 48.25589  Tot: +0.00000 ]
	SubspaceRotationAdjust: set factor to 0.383
ElecMinimize: Iter:  82  F: -1610.971872341152221  |grad|_K:  1.227e-05  alpha:  8.214e-02  linmin:  4.837e-05  t[s]:   7348.10
	FillingsUpdate:  mu: +0.107474009  nElectrons: 326.000000  magneticMoment: [ Abs: 48.35808  Tot: -0.00000 ]
	SubspaceRotationAdjust: set factor to 0.387
ElecMinimize: Iter:  83  F: -1610.974145044785246  |grad|_K:  1.172e-05  alpha:  7.945e-02  linmin: -9.226e-05  t[s]:   7426.28
	FillingsUpdate:  mu: +0.113944504  nElectrons: 326.000000  magneticMoment: [ Abs: 48.43643  Tot: +0.00000 ]
	SubspaceRotationAdjust: set factor to 0.491
ElecMinimize: Iter:  84  F: -1610.975952020236491  |grad|_K:  1.019e-05  alpha:  6.803e-02  linmin: -9.080e-05  t[s]:   7504.98
	FillingsUpdate:  mu: +0.119788661  nElectrons: 326.000000  magneticMoment: [ Abs: 48.55740  Tot: -0.00000 ]
	SubspaceRotationAdjust: set factor to 0.596
ElecMinimize: Iter:  85  F: -1610.978026793034587  |grad|_K:  1.082e-05  alpha:  1.034e-01  linmin:  1.391e-04  t[s]:   7583.27
	FillingsUpdate:  mu: +0.122065355  nElectrons: 326.000000  magneticMoment: [ Abs: 48.66543  Tot: +0.00000 ]
	SubspaceRotationAdjust: set factor to 0.534
ElecMinimize: Iter:  86  F: -1610.979525439367990  |grad|_K:  1.248e-05  alpha:  6.608e-02  linmin: -2.033e-05  t[s]:   7661.48
	FillingsUpdate:  mu: +0.121295735  nElectrons: 326.000000  magneticMoment: [ Abs: 48.80617  Tot: -0.00000 ]
	SubspaceRotationAdjust: set factor to 0.43
ElecMinimize: Iter:  87  F: -1610.981852065277508  |grad|_K:  1.391e-05  alpha:  7.753e-02  linmin:  1.946e-05  t[s]:   7740.81
	FillingsUpdate:  mu: +0.117655193  nElectrons: 326.000000  magneticMoment: [ Abs: 48.87852  Tot: +0.00000 ]
	SubspaceRotationAdjust: set factor to 0.649
ElecMinimize: Iter:  88  F: -1610.983596633583602  |grad|_K:  1.083e-05  alpha:  4.451e-02  linmin: -1.363e-04  t[s]:   7821.96
	FillingsUpdate:  mu: +0.114247368  nElectrons: 326.000000  magneticMoment: [ Abs: 48.94101  Tot: +0.00000 ]
	SubspaceRotationAdjust: set factor to 0.548
ElecMinimize: Iter:  89  F: -1610.984928167844146  |grad|_K:  1.399e-05  alpha:  5.871e-02  linmin:  3.572e-04  t[s]:   7901.89
	FillingsUpdate:  mu: +0.112444206  nElectrons: 326.000000  magneticMoment: [ Abs: 49.02051  Tot: -0.00000 ]
	SubspaceRotationAdjust: set factor to 0.411
ElecMinimize: Iter:  90  F: -1610.985995522476287  |grad|_K:  1.562e-05  alpha:  3.024e-02  linmin: -7.680e-05  t[s]:   7979.96
	FillingsUpdate:  mu: +0.110278546  nElectrons: 326.000000  magneticMoment: [ Abs: 49.15119  Tot: +0.00000 ]
	SubspaceRotationAdjust: set factor to 0.341
ElecMinimize: Iter:  91  F: -1610.987538597344837  |grad|_K:  1.474e-05  alpha:  3.220e-02  linmin:  9.098e-05  t[s]:   8058.63
	FillingsUpdate:  mu: +0.109644654  nElectrons: 326.000000  magneticMoment: [ Abs: 49.23593  Tot: +0.00000 ]
	SubspaceRotationAdjust: set factor to 0.31
ElecMinimize: Iter:  92  F: -1610.988492348202726  |grad|_K:  1.397e-05  alpha:  1.997e-02  linmin: -2.145e-04  t[s]:   8135.81
	FillingsUpdate:  mu: +0.106902771  nElectrons: 326.000000  magneticMoment: [ Abs: 49.30512  Tot: +0.00000 ]
	SubspaceRotationAdjust: set factor to 0.257
ElecMinimize: Iter:  93  F: -1610.989156996160546  |grad|_K:  1.479e-05  alpha:  1.572e-02  linmin:  1.372e-04  t[s]:   8217.39
	FillingsUpdate:  mu: +0.105276457  nElectrons: 326.000000  magneticMoment: [ Abs: 49.36102  Tot: -0.00000 ]
	SubspaceRotationAdjust: set factor to 0.197
ElecMinimize: Iter:  94  F: -1610.989598967388019  |grad|_K:  1.555e-05  alpha:  1.057e-02  linmin: -4.312e-08  t[s]:   8293.79
	FillingsUpdate:  mu: +0.105556472  nElectrons: 326.000000  magneticMoment: [ Abs: 49.42827  Tot: -0.00000 ]
	SubspaceRotationAdjust: set factor to 0.144
ElecMinimize: Iter:  95  F: -1610.990121490674483  |grad|_K:  1.598e-05  alpha:  1.129e-02  linmin:  7.432e-05  t[s]:   8373.20
	FillingsUpdate:  mu: +0.105088102  nElectrons: 326.000000  magneticMoment: [ Abs: 49.50518  Tot: -0.00000 ]
	SubspaceRotationAdjust: set factor to 0.105
ElecMinimize: Iter:  96  F: -1610.990710463550613  |grad|_K:  1.567e-05  alpha:  1.230e-02  linmin: -1.849e-06  t[s]:   8451.25
	FillingsUpdate:  mu: +0.104968756  nElectrons: 326.000000  magneticMoment: [ Abs: 49.59702  Tot: +0.00000 ]
	SubspaceRotationAdjust: set factor to 0.08
ElecMinimize: Iter:  97  F: -1610.991465537033719  |grad|_K:  1.484e-05  alpha:  1.588e-02  linmin: -8.030e-05  t[s]:   8526.90
	FillingsUpdate:  mu: +0.105858860  nElectrons: 326.000000  magneticMoment: [ Abs: 49.70232  Tot: +0.00000 ]
	SubspaceRotationAdjust: set factor to 0.0668
ElecMinimize: Iter:  98  F: -1610.992433782663511  |grad|_K:  1.391e-05  alpha:  2.199e-02  linmin: -1.240e-04  t[s]:   8607.23
	FillingsUpdate:  mu: +0.106879825  nElectrons: 326.000000  magneticMoment: [ Abs: 49.81092  Tot: -0.00000 ]
	SubspaceRotationAdjust: set factor to 0.0642
ElecMinimize: Iter:  99  F: -1610.993565617157401  |grad|_K:  1.331e-05  alpha:  2.912e-02  linmin: -4.276e-05  t[s]:   8686.32
	FillingsUpdate:  mu: +0.108255291  nElectrons: 326.000000  magneticMoment: [ Abs: 49.90565  Tot: +0.00000 ]
	SubspaceRotationAdjust: set factor to 0.074
ElecMinimize: Iter: 100  F: -1610.994693768660227  |grad|_K:  1.296e-05  alpha:  3.257e-02  linmin: -5.211e-05  t[s]:   8765.64
	FillingsUpdate:  mu: +0.109875054  nElectrons: 326.000000  magneticMoment: [ Abs: 49.98677  Tot: -0.00000 ]
	SubspaceRotationAdjust: set factor to 0.104
ElecMinimize: Iter: 101  F: -1610.995813478623177  |grad|_K:  1.266e-05  alpha:  3.410e-02  linmin: -7.492e-06  t[s]:   8844.94
	FillingsUpdate:  mu: +0.112910741  nElectrons: 326.000000  magneticMoment: [ Abs: 50.05006  Tot: -0.00000 ]
	SubspaceRotationAdjust: set factor to 0.135
ElecMinimize: Iter: 102  F: -1610.996780366817347  |grad|_K:  1.244e-05  alpha:  3.133e-02  linmin: -3.414e-06  t[s]:   8923.30
	FillingsUpdate:  mu: +0.118606510  nElectrons: 326.000000  magneticMoment: [ Abs: 50.09848  Tot: +0.00000 ]
	SubspaceRotationAdjust: set factor to 0.169
ElecMinimize: Iter: 103  F: -1610.997606488810561  |grad|_K:  1.193e-05  alpha:  2.775e-02  linmin:  2.654e-07  t[s]:   9001.77
	FillingsUpdate:  mu: +0.122274212  nElectrons: 326.000000  magneticMoment: [ Abs: 50.13735  Tot: -0.00000 ]
	SubspaceRotationAdjust: set factor to 0.2
ElecMinimize: Iter: 104  F: -1610.998320307792255  |grad|_K:  1.165e-05  alpha:  2.613e-02  linmin:  9.733e-06  t[s]:   9078.82
	FillingsUpdate:  mu: +0.122848091  nElectrons: 326.000000  magneticMoment: [ Abs: 50.17291  Tot: +0.00000 ]
	SubspaceRotationAdjust: set factor to 0.243
ElecMinimize: Iter: 105  F: -1610.998979039972937  |grad|_K:  1.192e-05  alpha:  2.537e-02  linmin:  1.682e-05  t[s]:   9162.40
	FillingsUpdate:  mu: +0.122375817  nElectrons: 326.000000  magneticMoment: [ Abs: 50.21095  Tot: +0.00000 ]
	SubspaceRotationAdjust: set factor to 0.291
ElecMinimize: Iter: 106  F: -1610.999644273190825  |grad|_K:  1.274e-05  alpha:  2.451e-02  linmin:  1.828e-05  t[s]:   9241.59
	FillingsUpdate:  mu: +0.121721287  nElectrons: 326.000000  magneticMoment: [ Abs: 50.25411  Tot: -0.00000 ]
	SubspaceRotationAdjust: set factor to 0.285
ElecMinimize: Iter: 107  F: -1611.000333707879463  |grad|_K:  1.350e-05  alpha:  2.220e-02  linmin:  1.261e-05  t[s]:   9319.29
	FillingsUpdate:  mu: +0.122079924  nElectrons: 326.000000  magneticMoment: [ Abs: 50.29986  Tot: -0.00000 ]
	SubspaceRotationAdjust: set factor to 0.302
ElecMinimize: Iter: 108  F: -1611.000998830188337  |grad|_K:  1.291e-05  alpha:  1.904e-02  linmin:  4.425e-06  t[s]:   9398.28
	FillingsUpdate:  mu: +0.121861816  nElectrons: 326.000000  magneticMoment: [ Abs: 50.34375  Tot: -0.00000 ]
	SubspaceRotationAdjust: set factor to 0.381
ElecMinimize: Iter: 109  F: -1611.001588962519918  |grad|_K:  1.220e-05  alpha:  1.845e-02  linmin: -3.002e-06  t[s]:   9476.67
	FillingsUpdate:  mu: +0.120261886  nElectrons: 326.000000  magneticMoment: [ Abs: 50.38490  Tot: +0.00000 ]
	SubspaceRotationAdjust: set factor to 0.508
ElecMinimize: Iter: 110  F: -1611.002116288786056  |grad|_K:  1.219e-05  alpha:  1.844e-02  linmin: -1.366e-05  t[s]:   9553.44
	FillingsUpdate:  mu: +0.119378325  nElectrons: 326.000000  magneticMoment: [ Abs: 50.42670  Tot: -0.00000 ]
	SubspaceRotationAdjust: set factor to 0.563
ElecMinimize: Iter: 111  F: -1611.002646081501098  |grad|_K:  1.326e-05  alpha:  1.851e-02  linmin: -2.255e-05  t[s]:   9632.82
	FillingsUpdate:  mu: +0.115854105  nElectrons: 326.000000  magneticMoment: [ Abs: 50.47402  Tot: +0.00000 ]
	SubspaceRotationAdjust: set factor to 0.534
ElecMinimize: Iter: 112  F: -1611.003274230200077  |grad|_K:  1.473e-05  alpha:  1.848e-02  linmin: -2.471e-05  t[s]:   9712.00
	FillingsUpdate:  mu: +0.113528376  nElectrons: 326.000000  magneticMoment: [ Abs: 50.52534  Tot: -0.00000 ]
	SubspaceRotationAdjust: set factor to 0.527
ElecMinimize: Iter: 113  F: -1611.004028503048858  |grad|_K:  1.507e-05  alpha:  1.797e-02  linmin: -2.193e-05  t[s]:   9789.28
	FillingsUpdate:  mu: +0.113146544  nElectrons: 326.000000  magneticMoment: [ Abs: 50.57283  Tot: -0.00000 ]
	SubspaceRotationAdjust: set factor to 0.655
ElecMinimize: Iter: 114  F: -1611.004804946226159  |grad|_K:  1.426e-05  alpha:  1.766e-02  linmin: -1.033e-05  t[s]:   9868.98
	FillingsUpdate:  mu: +0.113713388  nElectrons: 326.000000  magneticMoment: [ Abs: 50.61031  Tot: +0.00000 ]
	SubspaceRotationAdjust: set factor to 0.873
	SubspaceRotationAdjust: resetting CG because factor has changed by 8.33048
ElecMinimize: 	State modified externally: resetting search direction.
ElecMinimize: Iter: 115  F: -1611.005473452105889  |grad|_K:  1.430e-05  alpha:  1.703e-02
ElecMinimize: 	Predicted alpha/alphaT>3.000000, increasing alphaT to 5.109031e-02.
ElecMinimize: 	Predicted alpha/alphaT>3.000000, increasing alphaT to 1.532709e-01.
	FillingsUpdate:  mu: +0.115861027  nElectrons: 326.000000  magneticMoment: [ Abs: 50.63719  Tot: +0.00000 ]
	SubspaceRotationAdjust: set factor to 0.463
ElecMinimize: Iter: 116  F: -1611.015693534855700  |grad|_K:  2.746e-05  alpha:  2.601e-01  linmin: -4.955e-05  t[s]:  10108.96
	FillingsUpdate:  mu: +0.112575458  nElectrons: 326.000000  magneticMoment: [ Abs: 50.76526  Tot: -0.00000 ]
	SubspaceRotationAdjust: set factor to 0.247
ElecMinimize: Iter: 117  F: -1611.021787882384388  |grad|_K:  1.420e-05  alpha:  7.766e-02  linmin:  3.437e-03  t[s]:  10185.33
ElecMinimize: 	Predicted alpha/alphaT>3.000000, increasing alphaT to 2.329895e-01.
	FillingsUpdate:  mu: +0.123321180  nElectrons: 326.000000  magneticMoment: [ Abs: 50.74786  Tot: -0.00000 ]
	SubspaceRotationAdjust: set factor to 0.19
ElecMinimize: Iter: 118  F: -1611.028300806410698  |grad|_K:  1.084e-05  alpha:  2.564e-01  linmin:  2.340e-04  t[s]:  10298.24
	FillingsUpdate:  mu: +0.117839961  nElectrons: 326.000000  magneticMoment: [ Abs: 50.79734  Tot: +0.00000 ]
	SubspaceRotationAdjust: set factor to 0.181
ElecMinimize: Iter: 119  F: -1611.034577389235210  |grad|_K:  6.799e-06  alpha:  2.862e-01  linmin: -7.454e-05  t[s]:  10377.16
	FillingsUpdate:  mu: +0.117769476  nElectrons: 326.000000  magneticMoment: [ Abs: 50.83983  Tot: +0.00000 ]
	SubspaceRotationAdjust: set factor to 0.225
ElecMinimize: Iter: 120  F: -1611.037730767268158  |grad|_K:  4.554e-06  alpha:  3.536e-01  linmin:  7.549e-05  t[s]:  10458.42
	FillingsUpdate:  mu: +0.118750973  nElectrons: 326.000000  magneticMoment: [ Abs: 50.89022  Tot: -0.00000 ]
	SubspaceRotationAdjust: set factor to 0.273
ElecMinimize: Iter: 121  F: -1611.039792426910026  |grad|_K:  4.447e-06  alpha:  5.180e-01  linmin: -1.679e-04  t[s]:  10538.89
	FillingsUpdate:  mu: +0.114000035  nElectrons: 326.000000  magneticMoment: [ Abs: 51.01001  Tot: -0.00000 ]
	SubspaceRotationAdjust: set factor to 0.31
ElecMinimize: Iter: 122  F: -1611.042383616345660  |grad|_K:  6.562e-06  alpha:  6.594e-01  linmin: -1.245e-03  t[s]:  10618.95
	FillingsUpdate:  mu: +0.116687938  nElectrons: 326.000000  magneticMoment: [ Abs: 51.24069  Tot: +0.00000 ]
	SubspaceRotationAdjust: set factor to 0.261
ElecMinimize: Iter: 123  F: -1611.047349335230365  |grad|_K:  9.878e-06  alpha:  3.451e-01  linmin: -4.705e-03  t[s]:  10696.48
	FillingsUpdate:  mu: +0.118090912  nElectrons: 326.000000  magneticMoment: [ Abs: 51.40073  Tot: +0.00000 ]
	SubspaceRotationAdjust: set factor to 0.192
ElecMinimize: Iter: 124  F: -1611.050835713106835  |grad|_K:  1.216e-05  alpha:  7.581e-02  linmin: -1.009e-02  t[s]:  10776.47
	FillingsUpdate:  mu: +0.116034080  nElectrons: 326.000000  magneticMoment: [ Abs: 51.61090  Tot: +0.00000 ]
	SubspaceRotationAdjust: set factor to 0.128
ElecMinimize: Iter: 125  F: -1611.054562842263977  |grad|_K:  1.642e-05  alpha:  5.265e-02  linmin:  8.107e-04  t[s]:  10855.15
	FillingsUpdate:  mu: +0.119653122  nElectrons: 326.000000  magneticMoment: [ Abs: 51.69401  Tot: -0.00000 ]
	SubspaceRotationAdjust: set factor to 0.0909
	SubspaceRotationAdjust: resetting CG because factor has changed by 0.104206
ElecMinimize: 	State modified externally: resetting search direction.
ElecMinimize: Iter: 126  F: -1611.054893307381917  |grad|_K:  1.503e-05  alpha:  1.030e-02
ElecMinimize: 	Predicted alpha/alphaT>3.000000, increasing alphaT to 3.088534e-02.
ElecMinimize: 	Predicted alpha/alphaT>3.000000, increasing alphaT to 9.265602e-02.
	FillingsUpdate:  mu: +0.113341978  nElectrons: 326.000000  magneticMoment: [ Abs: 51.69954  Tot: -0.00000 ]
	SubspaceRotationAdjust: set factor to 0.0762
ElecMinimize: Iter: 127  F: -1611.065892517536213  |grad|_K:  6.435e-06  alpha:  2.508e-01  linmin: -4.488e-03  t[s]:  11098.93
	FillingsUpdate:  mu: +0.114951469  nElectrons: 326.000000  magneticMoment: [ Abs: 51.80079  Tot: +0.00000 ]
	SubspaceRotationAdjust: set factor to 0.0936
ElecMinimize: Iter: 128  F: -1611.071921379631021  |grad|_K:  7.289e-06  alpha:  7.345e-01  linmin: -7.815e-05  t[s]:  11178.38
	FillingsUpdate:  mu: +0.118169943  nElectrons: 326.000000  magneticMoment: [ Abs: 52.02983  Tot: +0.00000 ]
	SubspaceRotationAdjust: set factor to 0.114
ElecMinimize: Iter: 129  F: -1611.080183542959048  |grad|_K:  9.214e-06  alpha:  8.118e-01  linmin:  6.542e-04  t[s]:  11259.70
	FillingsUpdate:  mu: +0.120392667  nElectrons: 326.000000  magneticMoment: [ Abs: 52.27010  Tot: -0.00000 ]
	SubspaceRotationAdjust: set factor to 0.122
ElecMinimize: Iter: 130  F: -1611.089592536838836  |grad|_K:  1.031e-05  alpha:  5.989e-01  linmin: -8.050e-05  t[s]:  11339.94
	FillingsUpdate:  mu: +0.115733483  nElectrons: 326.000000  magneticMoment: [ Abs: 52.46403  Tot: +0.00000 ]
	SubspaceRotationAdjust: set factor to 0.144
ElecMinimize: Iter: 131  F: -1611.100693544071191  |grad|_K:  9.442e-06  alpha:  5.455e-01  linmin: -6.033e-04  t[s]:  11420.67
	FillingsUpdate:  mu: +0.113097125  nElectrons: 326.000000  magneticMoment: [ Abs: 52.60756  Tot: -0.00000 ]
	SubspaceRotationAdjust: set factor to 0.173
ElecMinimize: Iter: 132  F: -1611.108848828515193  |grad|_K:  7.889e-06  alpha:  4.626e-01  linmin: -2.572e-04  t[s]:  11501.00
	FillingsUpdate:  mu: +0.114952090  nElectrons: 326.000000  magneticMoment: [ Abs: 52.73337  Tot: -0.00000 ]
	SubspaceRotationAdjust: set factor to 0.198
ElecMinimize: Iter: 133  F: -1611.114401803241208  |grad|_K:  6.439e-06  alpha:  4.590e-01  linmin: -5.637e-04  t[s]:  11579.04
	FillingsUpdate:  mu: +0.113982827  nElectrons: 326.000000  magneticMoment: [ Abs: 52.79924  Tot: -0.00000 ]
	SubspaceRotationAdjust: set factor to 0.213
ElecMinimize: Iter: 134  F: -1611.118590822858778  |grad|_K:  5.850e-06  alpha:  5.126e-01  linmin: -1.899e-04  t[s]:  11657.21
	FillingsUpdate:  mu: +0.114134212  nElectrons: 326.000000  magneticMoment: [ Abs: 52.88045  Tot: -0.00000 ]
	SubspaceRotationAdjust: set factor to 0.233
ElecMinimize: Iter: 135  F: -1611.122136948836896  |grad|_K:  5.285e-06  alpha:  5.336e-01  linmin: -2.718e-04  t[s]:  11733.93
	FillingsUpdate:  mu: +0.114639744  nElectrons: 326.000000  magneticMoment: [ Abs: 52.97436  Tot: -0.00000 ]
	SubspaceRotationAdjust: set factor to 0.241
ElecMinimize: Iter: 136  F: -1611.124709267155140  |grad|_K:  4.553e-06  alpha:  4.668e-01  linmin:  4.921e-04  t[s]:  11810.60
	FillingsUpdate:  mu: +0.113512550  nElectrons: 326.000000  magneticMoment: [ Abs: 53.01471  Tot: +0.00000 ]
	SubspaceRotationAdjust: set factor to 0.183
ElecMinimize: Iter: 137  F: -1611.125952971011202  |grad|_K:  5.143e-06  alpha:  3.011e-01  linmin: -1.824e-04  t[s]:  11888.48
	FillingsUpdate:  mu: +0.114432826  nElectrons: 326.000000  magneticMoment: [ Abs: 53.05454  Tot: -0.00000 ]
	SubspaceRotationAdjust: set factor to 0.141
ElecMinimize: Iter: 138  F: -1611.127026912705787  |grad|_K:  3.707e-06  alpha:  2.104e-01  linmin: -1.223e-05  t[s]:  11965.11
	FillingsUpdate:  mu: +0.115359689  nElectrons: 326.000000  magneticMoment: [ Abs: 53.10969  Tot: -0.00000 ]
	SubspaceRotationAdjust: set factor to 0.139
ElecMinimize: Iter: 139  F: -1611.128253426090168  |grad|_K:  3.239e-06  alpha:  4.687e-01  linmin:  2.585e-04  t[s]:  12043.38
	FillingsUpdate:  mu: +0.114952572  nElectrons: 326.000000  magneticMoment: [ Abs: 53.17019  Tot: +0.00000 ]
	SubspaceRotationAdjust: set factor to 0.149
ElecMinimize: Iter: 140  F: -1611.129212342179471  |grad|_K:  2.868e-06  alpha:  4.842e-01  linmin: -7.487e-05  t[s]:  12120.34
	FillingsUpdate:  mu: +0.112828665  nElectrons: 326.000000  magneticMoment: [ Abs: 53.22609  Tot: -0.00000 ]
	SubspaceRotationAdjust: set factor to 0.146
ElecMinimize: Iter: 141  F: -1611.130078468882402  |grad|_K:  3.383e-06  alpha:  5.482e-01  linmin:  3.440e-04  t[s]:  12199.24
	FillingsUpdate:  mu: +0.113905631  nElectrons: 326.000000  magneticMoment: [ Abs: 53.28515  Tot: +0.00000 ]
	SubspaceRotationAdjust: set factor to 0.117
ElecMinimize: Iter: 142  F: -1611.130813355633791  |grad|_K:  3.643e-06  alpha:  3.504e-01  linmin:  5.166e-05  t[s]:  12276.74
	FillingsUpdate:  mu: +0.112617429  nElectrons: 326.000000  magneticMoment: [ Abs: 53.34872  Tot: +0.00000 ]
	SubspaceRotationAdjust: set factor to 0.0927
ElecMinimize: Iter: 143  F: -1611.131711250268154  |grad|_K:  3.473e-06  alpha:  3.544e-01  linmin:  6.563e-04  t[s]:  12354.02
	FillingsUpdate:  mu: +0.113471993  nElectrons: 326.000000  magneticMoment: [ Abs: 53.44461  Tot: -0.00000 ]
	SubspaceRotationAdjust: set factor to 0.111
ElecMinimize: Iter: 144  F: -1611.132831949767251  |grad|_K:  3.625e-06  alpha:  5.127e-01  linmin:  3.092e-05  t[s]:  12432.24
	FillingsUpdate:  mu: +0.113668076  nElectrons: 326.000000  magneticMoment: [ Abs: 53.54986  Tot: -0.00000 ]
	SubspaceRotationAdjust: set factor to 0.128
ElecMinimize: Iter: 145  F: -1611.134161955232912  |grad|_K:  4.336e-06  alpha:  5.361e-01  linmin:  1.674e-03  t[s]:  12512.99
	FillingsUpdate:  mu: +0.113257860  nElectrons: 326.000000  magneticMoment: [ Abs: 53.56406  Tot: +0.00000 ]
	SubspaceRotationAdjust: set factor to 0.152
ElecMinimize: Iter: 146  F: -1611.134431033411602  |grad|_K:  4.499e-06  alpha:  5.279e-02  linmin: -5.726e-03  t[s]:  12592.60
ElecMinimize: 	Predicted alpha/alphaT>3.000000, increasing alphaT to 1.583718e-01.
	FillingsUpdate:  mu: +0.110949497  nElectrons: 326.000000  magneticMoment: [ Abs: 53.61762  Tot: +0.00000 ]
	SubspaceRotationAdjust: set factor to 0.102
ElecMinimize: Iter: 147  F: -1611.135514237586449  |grad|_K:  5.712e-06  alpha:  1.843e-01  linmin:  3.812e-03  t[s]:  12705.40
	FillingsUpdate:  mu: +0.110649859  nElectrons: 326.000000  magneticMoment: [ Abs: 53.63246  Tot: -0.00000 ]
	SubspaceRotationAdjust: set factor to 0.0767
ElecMinimize: Iter: 148  F: -1611.135669303462009  |grad|_K:  5.373e-06  alpha:  3.083e-02  linmin: -1.246e-03  t[s]:  12782.93
	FillingsUpdate:  mu: +0.110723510  nElectrons: 326.000000  magneticMoment: [ Abs: 53.66775  Tot: +0.00000 ]
	SubspaceRotationAdjust: set factor to 0.0656
ElecMinimize: Iter: 149  F: -1611.136171377414030  |grad|_K:  5.284e-06  alpha:  7.922e-02  linmin: -2.772e-04  t[s]:  12864.00
	FillingsUpdate:  mu: +0.110976631  nElectrons: 326.000000  magneticMoment: [ Abs: 53.70472  Tot: +0.00000 ]
	SubspaceRotationAdjust: set factor to 0.0595
ElecMinimize: Iter: 150  F: -1611.136684201791695  |grad|_K:  5.151e-06  alpha:  9.200e-02  linmin: -2.784e-04  t[s]:  12944.24
	FillingsUpdate:  mu: +0.111627949  nElectrons: 326.000000  magneticMoment: [ Abs: 53.74554  Tot: -0.00000 ]
	SubspaceRotationAdjust: set factor to 0.0581
ElecMinimize: Iter: 151  F: -1611.137265145377114  |grad|_K:  4.782e-06  alpha:  1.093e-01  linmin: -2.984e-04  t[s]:  13023.70
	FillingsUpdate:  mu: +0.112399172  nElectrons: 326.000000  magneticMoment: [ Abs: 53.78912  Tot: +0.00000 ]
	SubspaceRotationAdjust: set factor to 0.0757
ElecMinimize: Iter: 152  F: -1611.137854849993573  |grad|_K:  4.569e-06  alpha:  1.290e-01  linmin: -1.603e-04  t[s]:  13104.47
	FillingsUpdate:  mu: +0.113019367  nElectrons: 326.000000  magneticMoment: [ Abs: 53.83474  Tot: -0.00000 ]
	SubspaceRotationAdjust: set factor to 0.0974
ElecMinimize: Iter: 153  F: -1611.138439964234976  |grad|_K:  4.722e-06  alpha:  1.430e-01  linmin: -5.896e-05  t[s]:  13182.52
	FillingsUpdate:  mu: +0.113083183  nElectrons: 326.000000  magneticMoment: [ Abs: 53.88092  Tot: -0.00000 ]
	SubspaceRotationAdjust: set factor to 0.116
ElecMinimize: Iter: 154  F: -1611.139014962955571  |grad|_K:  4.833e-06  alpha:  1.333e-01  linmin: -2.391e-05  t[s]:  13259.19
	FillingsUpdate:  mu: +0.112802535  nElectrons: 326.000000  magneticMoment: [ Abs: 53.92802  Tot: -0.00000 ]
	SubspaceRotationAdjust: set factor to 0.132
ElecMinimize: Iter: 155  F: -1611.139601745741402  |grad|_K:  5.054e-06  alpha:  1.304e-01  linmin: -2.728e-05  t[s]:  13337.06
	FillingsUpdate:  mu: +0.112532558  nElectrons: 326.000000  magneticMoment: [ Abs: 53.98031  Tot: +0.00000 ]
	SubspaceRotationAdjust: set factor to 0.152
ElecMinimize: Iter: 156  F: -1611.140269216292381  |grad|_K:  5.442e-06  alpha:  1.355e-01  linmin: -3.662e-05  t[s]:  13416.05
	FillingsUpdate:  mu: +0.111765060  nElectrons: 326.000000  magneticMoment: [ Abs: 54.03883  Tot: +0.00000 ]
	SubspaceRotationAdjust: set factor to 0.177
ElecMinimize: Iter: 157  F: -1611.141040152783717  |grad|_K:  5.725e-06  alpha:  1.348e-01  linmin: -3.889e-05  t[s]:  13494.46
	FillingsUpdate:  mu: +0.112094036  nElectrons: 326.000000  magneticMoment: [ Abs: 54.10045  Tot: -0.00000 ]
	SubspaceRotationAdjust: set factor to 0.198
ElecMinimize: Iter: 158  F: -1611.141879854082617  |grad|_K:  6.215e-06  alpha:  1.323e-01  linmin:  2.136e-04  t[s]:  13574.31
	FillingsUpdate:  mu: +0.111375195  nElectrons: 326.000000  magneticMoment: [ Abs: 54.14661  Tot: -0.00000 ]
	SubspaceRotationAdjust: set factor to 0.227
ElecMinimize: Iter: 159  F: -1611.142544543148915  |grad|_K:  6.672e-06  alpha:  9.129e-02  linmin:  7.011e-05  t[s]:  13654.31
	FillingsUpdate:  mu: +0.109268752  nElectrons: 326.000000  magneticMoment: [ Abs: 54.18929  Tot: -0.00000 ]
	SubspaceRotationAdjust: set factor to 0.252
ElecMinimize: Iter: 160  F: -1611.143232168430814  |grad|_K:  6.641e-06  alpha:  8.199e-02  linmin: -8.305e-05  t[s]:  13733.02
	FillingsUpdate:  mu: +0.107217114  nElectrons: 326.000000  magneticMoment: [ Abs: 54.23460  Tot: +0.00000 ]
	SubspaceRotationAdjust: set factor to 0.275
ElecMinimize: Iter: 161  F: -1611.143996401426193  |grad|_K:  6.930e-06  alpha:  8.885e-02  linmin:  2.673e-05  t[s]:  13810.20
	FillingsUpdate:  mu: +0.108425596  nElectrons: 326.000000  magneticMoment: [ Abs: 54.28256  Tot: -0.00000 ]
	SubspaceRotationAdjust: set factor to 0.342
ElecMinimize: Iter: 162  F: -1611.144750960839247  |grad|_K:  6.791e-06  alpha:  8.222e-02  linmin:  1.850e-05  t[s]:  13887.49
	FillingsUpdate:  mu: +0.111431661  nElectrons: 326.000000  magneticMoment: [ Abs: 54.32172  Tot: -0.00000 ]
	SubspaceRotationAdjust: set factor to 0.384
ElecMinimize: Iter: 163  F: -1611.145364429905612  |grad|_K:  6.369e-06  alpha:  6.949e-02  linmin:  7.336e-06  t[s]:  13968.76
	FillingsUpdate:  mu: +0.113899517  nElectrons: 326.000000  magneticMoment: [ Abs: 54.35533  Tot: -0.00000 ]
	SubspaceRotationAdjust: set factor to 0.455
ElecMinimize: Iter: 164  F: -1611.145972797431341  |grad|_K:  6.912e-06  alpha:  7.826e-02  linmin:  1.164e-05  t[s]:  14047.02
	FillingsUpdate:  mu: +0.112573710  nElectrons: 326.000000  magneticMoment: [ Abs: 54.38168  Tot: +0.00000 ]
	SubspaceRotationAdjust: set factor to 0.591
ElecMinimize: Iter: 165  F: -1611.146583514851045  |grad|_K:  6.469e-06  alpha:  6.675e-02  linmin: -2.073e-06  t[s]:  14125.52
	FillingsUpdate:  mu: +0.110953815  nElectrons: 326.000000  magneticMoment: [ Abs: 54.40146  Tot: +0.00000 ]
	SubspaceRotationAdjust: set factor to 0.671
ElecMinimize: Iter: 166  F: -1611.147113891361869  |grad|_K:  7.292e-06  alpha:  6.600e-02  linmin: -1.321e-05  t[s]:  14205.56
	FillingsUpdate:  mu: +0.110946283  nElectrons: 326.000000  magneticMoment: [ Abs: 54.43085  Tot: +0.00000 ]
	SubspaceRotationAdjust: set factor to 0.933
	SubspaceRotationAdjust: resetting CG because factor has changed by 10.2563
ElecMinimize: 	State modified externally: resetting search direction.
ElecMinimize: Iter: 167  F: -1611.147802759174738  |grad|_K:  7.651e-06  alpha:  6.729e-02
	FillingsUpdate:  mu: +0.115367663  nElectrons: 326.000000  magneticMoment: [ Abs: 54.44547  Tot: +0.00000 ]
	SubspaceRotationAdjust: set factor to 0.518
ElecMinimize: Iter: 168  F: -1611.149098012622972  |grad|_K:  1.421e-05  alpha:  1.149e-01  linmin: -1.997e-04  t[s]:  14380.10
	FillingsUpdate:  mu: +0.109424187  nElectrons: 326.000000  magneticMoment: [ Abs: 54.44763  Tot: +0.00000 ]
	SubspaceRotationAdjust: set factor to 0.357
ElecMinimize: Iter: 169  F: -1611.152065797391970  |grad|_K:  7.400e-06  alpha:  7.615e-02  linmin: -9.072e-07  t[s]:  14460.81
	FillingsUpdate:  mu: +0.110387809  nElectrons: 326.000000  magneticMoment: [ Abs: 54.40940  Tot: +0.00000 ]
	SubspaceRotationAdjust: set factor to 0.239
ElecMinimize: Iter: 170  F: -1611.153787719904813  |grad|_K:  5.455e-06  alpha:  1.656e-01  linmin:  2.695e-04  t[s]:  14539.58
	FillingsUpdate:  mu: +0.107680066  nElectrons: 326.000000  magneticMoment: [ Abs: 54.42306  Tot: +0.00000 ]
	SubspaceRotationAdjust: set factor to 0.161
ElecMinimize: Iter: 171  F: -1611.155477748104204  |grad|_K:  5.733e-06  alpha:  3.057e-01  linmin:  4.516e-04  t[s]:  14617.95
	FillingsUpdate:  mu: +0.114609911  nElectrons: 326.000000  magneticMoment: [ Abs: 54.44601  Tot: +0.00000 ]
	SubspaceRotationAdjust: set factor to 0.127
ElecMinimize: Iter: 172  F: -1611.156373064915442  |grad|_K:  3.491e-06  alpha:  1.480e-01  linmin:  1.840e-04  t[s]:  14696.43
	FillingsUpdate:  mu: +0.115563001  nElectrons: 326.000000  magneticMoment: [ Abs: 54.46352  Tot: +0.00000 ]
	SubspaceRotationAdjust: set factor to 0.163
ElecMinimize: Iter: 173  F: -1611.157145038785075  |grad|_K:  2.773e-06  alpha:  3.338e-01  linmin:  3.321e-05  t[s]:  14776.67
	FillingsUpdate:  mu: +0.111174745  nElectrons: 326.000000  magneticMoment: [ Abs: 54.46289  Tot: +0.00000 ]
	SubspaceRotationAdjust: set factor to 0.147
ElecMinimize: Iter: 174  F: -1611.157685081466525  |grad|_K:  3.066e-06  alpha:  3.669e-01  linmin:  1.476e-04  t[s]:  14857.45
	FillingsUpdate:  mu: +0.113066944  nElectrons: 326.000000  magneticMoment: [ Abs: 54.46268  Tot: +0.00000 ]
	SubspaceRotationAdjust: set factor to 0.145
ElecMinimize: Iter: 175  F: -1611.158122727798855  |grad|_K:  2.191e-06  alpha:  2.467e-01  linmin:  3.163e-06  t[s]:  14936.30
	FillingsUpdate:  mu: +0.114865997  nElectrons: 326.000000  magneticMoment: [ Abs: 54.48817  Tot: +0.00000 ]
	SubspaceRotationAdjust: set factor to 0.181
ElecMinimize: Iter: 176  F: -1611.158602813997959  |grad|_K:  2.675e-06  alpha:  5.138e-01  linmin: -4.367e-04  t[s]:  15014.42
	FillingsUpdate:  mu: +0.111235656  nElectrons: 326.000000  magneticMoment: [ Abs: 54.53538  Tot: +0.00000 ]
	SubspaceRotationAdjust: set factor to 0.153
ElecMinimize: Iter: 177  F: -1611.159244411972622  |grad|_K:  4.061e-06  alpha:  4.544e-01  linmin:  3.125e-05  t[s]:  15095.15
	FillingsUpdate:  mu: +0.114534858  nElectrons: 326.000000  magneticMoment: [ Abs: 54.61094  Tot: -0.00000 ]
	SubspaceRotationAdjust: set factor to 0.15
ElecMinimize: Iter: 178  F: -1611.160514660517947  |grad|_K:  4.852e-06  alpha:  3.533e-01  linmin:  5.478e-04  t[s]:  15175.22
	FillingsUpdate:  mu: +0.114017691  nElectrons: 326.000000  magneticMoment: [ Abs: 54.65068  Tot: +0.00000 ]
	SubspaceRotationAdjust: set factor to 0.169
ElecMinimize: Iter: 179  F: -1611.161242626470539  |grad|_K:  5.928e-06  alpha:  1.212e-01  linmin: -2.310e-03  t[s]:  15257.56
	FillingsUpdate:  mu: +0.112630148  nElectrons: 326.000000  magneticMoment: [ Abs: 54.71156  Tot: +0.00000 ]
	SubspaceRotationAdjust: set factor to 0.13
ElecMinimize: Iter: 180  F: -1611.162339489664419  |grad|_K:  7.787e-06  alpha:  1.252e-01  linmin:  1.279e-03  t[s]:  15336.46
	FillingsUpdate:  mu: +0.111886549  nElectrons: 326.000000  magneticMoment: [ Abs: 54.73525  Tot: -0.00000 ]
	SubspaceRotationAdjust: set factor to 0.108
	SubspaceRotationAdjust: resetting CG because factor has changed by 0.11632
ElecMinimize: 	State modified externally: resetting search direction.
ElecMinimize: Iter: 181  F: -1611.162681069840346  |grad|_K:  7.315e-06  alpha:  2.857e-02
ElecMinimize: 	Predicted alpha/alphaT>3.000000, increasing alphaT to 8.571989e-02.
ElecMinimize: 	Predicted alpha/alphaT>3.000000, increasing alphaT to 2.571597e-01.
	FillingsUpdate:  mu: +0.114261191  nElectrons: 326.000000  magneticMoment: [ Abs: 54.75483  Tot: -0.00000 ]
	SubspaceRotationAdjust: set factor to 0.11
ElecMinimize: Iter: 182  F: -1611.165695917463609  |grad|_K:  3.517e-06  alpha:  2.913e-01  linmin: -5.391e-03  t[s]:  15577.10
	FillingsUpdate:  mu: +0.117865219  nElectrons: 326.000000  magneticMoment: [ Abs: 54.77129  Tot: +0.00000 ]
	SubspaceRotationAdjust: set factor to 0.105
ElecMinimize: Iter: 183  F: -1611.167060282498824  |grad|_K:  3.194e-06  alpha:  5.347e-01  linmin: -3.897e-03  t[s]:  15658.91
	FillingsUpdate:  mu: +0.115800255  nElectrons: 326.000000  magneticMoment: [ Abs: 54.83417  Tot: -0.00000 ]
	SubspaceRotationAdjust: set factor to 0.125
ElecMinimize: Iter: 184  F: -1611.169179655006019  |grad|_K:  4.832e-06  alpha:  1.018e+00  linmin:  3.103e-04  t[s]:  15737.65
	FillingsUpdate:  mu: +0.112635091  nElectrons: 326.000000  magneticMoment: [ Abs: 54.93319  Tot: +0.00000 ]
	SubspaceRotationAdjust: set factor to 0.137
ElecMinimize: Iter: 185  F: -1611.172375848209185  |grad|_K:  6.138e-06  alpha:  6.939e-01  linmin:  1.976e-05  t[s]:  15816.80
	FillingsUpdate:  mu: +0.110620489  nElectrons: 326.000000  magneticMoment: [ Abs: 55.01656  Tot: -0.00000 ]
	SubspaceRotationAdjust: set factor to 0.155
ElecMinimize: Iter: 186  F: -1611.175819008431063  |grad|_K:  6.262e-06  alpha:  4.631e-01  linmin: -1.822e-05  t[s]:  15896.43
	FillingsUpdate:  mu: +0.113720729  nElectrons: 326.000000  magneticMoment: [ Abs: 55.08888  Tot: -0.00000 ]
	SubspaceRotationAdjust: set factor to 0.176
ElecMinimize: Iter: 187  F: -1611.178961728786362  |grad|_K:  6.097e-06  alpha:  4.150e-01  linmin:  1.170e-04  t[s]:  15976.39
	FillingsUpdate:  mu: +0.115970404  nElectrons: 326.000000  magneticMoment: [ Abs: 55.13556  Tot: +0.00000 ]
	SubspaceRotationAdjust: set factor to 0.208
ElecMinimize: Iter: 188  F: -1611.181053994300328  |grad|_K:  5.653e-06  alpha:  2.759e-01  linmin: -3.284e-04  t[s]:  16057.32
	FillingsUpdate:  mu: +0.116240308  nElectrons: 326.000000  magneticMoment: [ Abs: 55.18795  Tot: +0.00000 ]
	SubspaceRotationAdjust: set factor to 0.276
ElecMinimize: Iter: 189  F: -1611.182960928716057  |grad|_K:  5.662e-06  alpha:  3.026e-01  linmin: -2.151e-04  t[s]:  16136.16
	FillingsUpdate:  mu: +0.114026981  nElectrons: 326.000000  magneticMoment: [ Abs: 55.24153  Tot: +0.00000 ]
	SubspaceRotationAdjust: set factor to 0.315
ElecMinimize: Iter: 190  F: -1611.184534947364000  |grad|_K:  5.299e-06  alpha:  2.537e-01  linmin: -1.647e-04  t[s]:  16213.79
	FillingsUpdate:  mu: +0.111988706  nElectrons: 326.000000  magneticMoment: [ Abs: 55.29932  Tot: +0.00000 ]
	SubspaceRotationAdjust: set factor to 0.319
ElecMinimize: Iter: 191  F: -1611.185999864911764  |grad|_K:  5.183e-06  alpha:  2.685e-01  linmin: -5.427e-05  t[s]:  16294.02
	FillingsUpdate:  mu: +0.114098760  nElectrons: 326.000000  magneticMoment: [ Abs: 55.35462  Tot: -0.00000 ]
	SubspaceRotationAdjust: set factor to 0.354
ElecMinimize: Iter: 192  F: -1611.187287244891195  |grad|_K:  4.277e-06  alpha:  2.491e-01  linmin: -1.299e-04  t[s]:  16371.86
	FillingsUpdate:  mu: +0.115036318  nElectrons: 326.000000  magneticMoment: [ Abs: 55.39480  Tot: -0.00000 ]
	SubspaceRotationAdjust: set factor to 0.394
ElecMinimize: Iter: 193  F: -1611.188363924765326  |grad|_K:  4.014e-06  alpha:  3.034e-01  linmin: -6.609e-06  t[s]:  16451.39
	FillingsUpdate:  mu: +0.113554350  nElectrons: 326.000000  magneticMoment: [ Abs: 55.42008  Tot: +0.00000 ]
	SubspaceRotationAdjust: set factor to 0.412
ElecMinimize: Iter: 194  F: -1611.189129666098552  |grad|_K:  3.894e-06  alpha:  2.469e-01  linmin:  2.156e-05  t[s]:  16529.71
	FillingsUpdate:  mu: +0.113981846  nElectrons: 326.000000  magneticMoment: [ Abs: 55.43757  Tot: -0.00000 ]
	SubspaceRotationAdjust: set factor to 0.39
ElecMinimize: Iter: 195  F: -1611.189710106152916  |grad|_K:  3.655e-06  alpha:  2.011e-01  linmin: -7.850e-05  t[s]:  16610.14
	FillingsUpdate:  mu: +0.113595206  nElectrons: 326.000000  magneticMoment: [ Abs: 55.46192  Tot: +0.00000 ]
	SubspaceRotationAdjust: set factor to 0.416
ElecMinimize: Iter: 196  F: -1611.190451871967753  |grad|_K:  3.731e-06  alpha:  2.850e-01  linmin: -1.625e-04  t[s]:  16691.96
	FillingsUpdate:  mu: +0.116606440  nElectrons: 326.000000  magneticMoment: [ Abs: 55.50147  Tot: -0.00000 ]
	SubspaceRotationAdjust: set factor to 0.445
ElecMinimize: Iter: 197  F: -1611.191812804013807  |grad|_K:  6.133e-06  alpha:  4.902e-01  linmin: -1.062e-04  t[s]:  16769.87
	FillingsUpdate:  mu: +0.117612122  nElectrons: 326.000000  magneticMoment: [ Abs: 55.52618  Tot: -0.00000 ]
	SubspaceRotationAdjust: set factor to 0.547
ElecMinimize: Iter: 198  F: -1611.193629027424095  |grad|_K:  7.712e-06  alpha:  1.558e-01  linmin: -1.787e-03  t[s]:  16849.44
	FillingsUpdate:  mu: +0.117817950  nElectrons: 326.000000  magneticMoment: [ Abs: 55.52541  Tot: -0.00000 ]
	SubspaceRotationAdjust: set factor to 0.655
ElecMinimize: Iter: 199  F: -1611.195441973371771  |grad|_K:  9.061e-06  alpha:  1.035e-01  linmin:  9.065e-05  t[s]:  16928.36
	FillingsUpdate:  mu: +0.117467078  nElectrons: 326.000000  magneticMoment: [ Abs: 55.50982  Tot: -0.00000 ]
	SubspaceRotationAdjust: set factor to 0.793
ElecMinimize: Iter: 200  F: -1611.196087789529201  |grad|_K:  9.592e-06  alpha:  4.291e-02  linmin:  6.576e-05  t[s]:  17006.11
	FillingsUpdate:  mu: +0.116799271  nElectrons: 326.000000  magneticMoment: [ Abs: 55.48536  Tot: +0.00000 ]
	SubspaceRotationAdjust: set factor to 0.908
	SubspaceRotationAdjust: resetting CG because factor has changed by 8.3689
ElecMinimize: 	State modified externally: resetting search direction.
[...]
ion Cr  -0.250000000000000   0.750000000000000  -0.150000000000000 0
ion O   0.274669459365933   0.272476635033356   0.164279397487056 1
ion O   0.277133896113571   0.741270941735072   0.162623414590256 1
ion O  -0.253428145557261   0.268975531082218   0.154688528539282 1
ion O  -0.252172131921842   0.742744711461316   0.154250815358596 1
ion O   0.060159347042409   0.005242084951791   0.074361778100854 1
ion O   0.541492755054919   0.004293045698057   0.042909466668674 1
ion O  -0.033635828131015   0.503264587226949   0.041143831224481 1
ion O   0.459050463449233   0.503919523355112   0.040984539138486 1
ion O   0.250000000000000   0.250000000000000  -0.050000000000000 0
ion O   0.250000000000000   0.750000000000000  -0.050000000000000 0
ion O  -0.250000000000000   0.250000000000000  -0.050000000000000 0
ion O  -0.250000000000000   0.750000000000000  -0.050000000000000 0
ion O   0.000000000000000   0.000000000000000  -0.150000000000000 0
ion O   0.500000000000000   0.000000000000000  -0.150000000000000 0
ion O   0.000000000000000   0.500000000000000  -0.150000000000000 0
ion O   0.500000000000000   0.500000000000000  -0.150000000000000 0
ion O  -0.045438097051667  -0.010976384630502   0.255825258046661 1
ion H   0.055915953586877   0.056682531464571   0.282188143185932 1

# Forces in Lattice coordinates:
force Cr   0.000343445449627  -0.000280820831865  -0.016213738584308 1
force Cr   0.000513222735400   0.001118521000152  -0.008041262636077 1
force Cr   0.002093579467012   0.000244825048886  -0.001929457709478 1
force Cr   0.001485445985978   0.000317654222271  -0.007951308300617 1
force Cr   0.001643572440639  -0.000667825180593   0.001837791868125 1
force Cr   0.002895801051561  -0.000760383301109   0.006501408165577 1
force Cr   0.000354723614415  -0.000919921896307  -0.002779582041336 1
force Cr   0.000339246466291   0.001266244556684   0.004411318999276 1
force Cr   0.051478314042300   0.003405457438587   0.794479149483556 0
force Cr   0.039848038950799   0.013612961656957   0.299160538068298 0
force Cr  -0.025223781122938   0.008001874017087   0.381075241846774 0
force Cr  -0.143650594602151   0.008624840681054   0.452572415580475 0
force Cr   0.008567934783647  -0.028230625792029  -0.680617279787725 0
force Cr   0.008549480855259   0.028329721638977  -0.689670055103857 0
force Cr   0.040153487337592  -0.027889874296270  -0.800584294992274 0
force Cr   0.039912053118257   0.027772995070789  -0.796282476640193 0
force O  -0.001620542468283   0.000259490144354   0.004056828131417 1
force O  -0.005154405942510  -0.002876896222025   0.034747559384967 1
force O   0.000400490465878  -0.000460226755640  -0.016571425342483 1
force O  -0.001711639486430   0.001074711124346  -0.007312610510481 1
force O   0.000464816116217   0.001216658837769  -0.001081511219443 1
force O  -0.000047847936268  -0.000693148462039  -0.001742479833512 1
force O   0.002976485855541   0.001109582703917  -0.005046445872550 1
force O  -0.004621794074570  -0.000200190524222   0.006897404450976 1
force O  -0.269101066692838  -0.068544197135185   0.113113738366756 0
force O  -0.276015163190846   0.076903929840852   0.122383706263704 0
force O   0.231798784217969  -0.033640998520309   0.250450407317365 0
force O   0.223286963958422   0.043716533002494   0.252939983515076 0
force O  -0.000756016488473  -0.000041773986499  -0.731653289549794 0
force O   0.001308906865879  -0.001800957338889   0.330763337400441 0
force O   0.014347752012096  -0.000927666627155   0.397076012075070 0
force O   0.028655289663696  -0.001504445035078   0.292385119056391 0
force O   0.004203212208690   0.007151031841181   0.005155384294968 1
force H  -0.002728154708619  -0.003480772518117  -0.003925114261626 1

# Energy components:
   Eewald =     4383.0950469264262210
       EH =     5821.9169364856115862
     Eloc =   -11945.9895144773836364
      Enl =     -393.7681226598134572
   Epulay =       -0.0003758999111746
      Exc =     -215.0919861347753113
       KE =      736.6878700191477947
        U =        1.1503413949101309
-------------------------------------
     Etot =    -1611.9998043457874246
       TS =        0.0014545839429287
-------------------------------------
        F =    -1612.0012589297302839

IonicMinimize: Iter:  33  F: -1612.001258929730284  |grad|_K:  2.166e-04  alpha:  1.000e+00  linmin: -1.590e-03  t[s]: 135955.26

#--- Lowdin population analysis ---
# oxidation-state Cr +3.016 +3.054 +3.048 +2.922 +2.895 +2.892 +2.897 +2.897 +2.907 +2.901 +2.948 +2.898 +2.978 +2.978 +2.979 +2.979
# magnetic-moments Cr +3.859 -2.029 +2.046 -4.004 +3.981 +3.983 -3.989 -3.991 -3.932 +3.846 -3.663 +3.842 -2.099 -2.100 +2.107 +2.106
# oxidation-state O -0.891 -0.882 -0.874 -0.872 -0.886 -0.870 -0.837 -0.858 -0.896 -0.896 -0.891 -0.890 -0.911 -0.876 -0.876 -0.883 -0.842
# magnetic-moments O -0.024 -0.029 +0.064 +0.063 -0.167 +0.029 +0.180 -0.200 +0.092 +0.092 +0.039 +0.040 -0.031 -0.046 +0.037 -0.036 -0.087
# oxidation-state H +0.378
# magnetic-moments H +0.006


-------- Electronic minimization -----------
	FillingsUpdate:  mu: +0.106892675  nElectrons: 327.000000  magneticMoment: [ Abs: 57.17879  Tot: +0.00000 ]
ElecMinimize: Iter:   0  F: -1611.999833283522776  |grad|_K:  5.794e-06  alpha:  1.000e+00
	FillingsUpdate:  mu: +0.104808694  nElectrons: 327.000000  magneticMoment: [ Abs: 57.17720  Tot: +0.00000 ]
	SubspaceRotationAdjust: set factor to 0.129
ElecMinimize: Iter:   1  F: -1612.001135217364663  |grad|_K:  1.715e-06  alpha:  2.020e-01  linmin:  1.682e-03  t[s]: 136083.75
	FillingsUpdate:  mu: +0.105840327  nElectrons: 327.000000  magneticMoment: [ Abs: 57.17858  Tot: -0.00000 ]
	SubspaceRotationAdjust: set factor to 0.0645
ElecMinimize: Iter:   2  F: -1612.001216292853542  |grad|_K:  7.376e-07  alpha:  1.432e-01  linmin:  5.208e-05  t[s]: 136165.21
	FillingsUpdate:  mu: +0.105373678  nElectrons: 327.000000  magneticMoment: [ Abs: 57.17839  Tot: +0.00000 ]
	SubspaceRotationAdjust: set factor to 0.0922
ElecMinimize: Iter:   3  F: -1612.001241077267650  |grad|_K:  3.731e-07  alpha:  2.364e-01  linmin: -5.292e-06  t[s]: 136243.23
	FillingsUpdate:  mu: +0.105132120  nElectrons: 327.000000  magneticMoment: [ Abs: 57.17826  Tot: -0.00000 ]
	SubspaceRotationAdjust: set factor to 0.0944
ElecMinimize: Iter:   4  F: -1612.001248872486030  |grad|_K:  2.482e-07  alpha:  2.904e-01  linmin: -3.808e-06  t[s]: 136319.69
	FillingsUpdate:  mu: +0.105294351  nElectrons: 327.000000  magneticMoment: [ Abs: 57.17846  Tot: +0.00000 ]
	SubspaceRotationAdjust: set factor to 0.107
ElecMinimize: Iter:   5  F: -1612.001254074588132  |grad|_K:  2.008e-07  alpha:  4.381e-01  linmin:  3.378e-06  t[s]: 136397.69
	FillingsUpdate:  mu: +0.105250370  nElectrons: 327.000000  magneticMoment: [ Abs: 57.17853  Tot: +0.00000 ]
	SubspaceRotationAdjust: set factor to 0.129
ElecMinimize: Iter:   6  F: -1612.001257616396515  |grad|_K:  2.006e-07  alpha:  4.555e-01  linmin:  2.635e-07  t[s]: 136475.95
	FillingsUpdate:  mu: +0.105178243  nElectrons: 327.000000  magneticMoment: [ Abs: 57.17861  Tot: +0.00000 ]
	SubspaceRotationAdjust: set factor to 0.153
ElecMinimize: Iter:   7  F: -1612.001260892993514  |grad|_K:  1.880e-07  alpha:  4.221e-01  linmin: -3.265e-07  t[s]: 136553.42
	FillingsUpdate:  mu: +0.105351098  nElectrons: 327.000000  magneticMoment: [ Abs: 57.17891  Tot: +0.00000 ]
	SubspaceRotationAdjust: set factor to 0.155
ElecMinimize: Iter:   8  F: -1612.001264139213390  |grad|_K:  2.073e-07  alpha:  4.763e-01  linmin:  2.738e-06  t[s]: 136632.44
	FillingsUpdate:  mu: +0.105163018  nElectrons: 327.000000  magneticMoment: [ Abs: 57.17892  Tot: +0.00000 ]
	SubspaceRotationAdjust: set factor to 0.141
ElecMinimize: Iter:   9  F: -1612.001267062719990  |grad|_K:  1.895e-07  alpha:  3.533e-01  linmin: -4.144e-07  t[s]: 136709.41
	FillingsUpdate:  mu: +0.105278132  nElectrons: 327.000000  magneticMoment: [ Abs: 57.17915  Tot: +0.00000 ]
	SubspaceRotationAdjust: set factor to 0.14
ElecMinimize: Iter:  10  F: -1612.001269763702112  |grad|_K:  1.561e-07  alpha:  3.902e-01  linmin:  1.580e-06  t[s]: 136788.26
	FillingsUpdate:  mu: +0.105255870  nElectrons: 327.000000  magneticMoment: [ Abs: 57.17923  Tot: +0.00000 ]
	SubspaceRotationAdjust: set factor to 0.148
ElecMinimize: Iter:  11  F: -1612.001271819308613  |grad|_K:  1.269e-07  alpha:  4.375e-01  linmin: -7.452e-08  t[s]: 136867.76
	FillingsUpdate:  mu: +0.105220527  nElectrons: 327.000000  magneticMoment: [ Abs: 57.17924  Tot: -0.00000 ]
	SubspaceRotationAdjust: set factor to 0.154
ElecMinimize: Iter:  12  F: -1612.001273008245334  |grad|_K:  1.053e-07  alpha:  3.831e-01  linmin: -3.516e-07  t[s]: 136947.24
	FillingsUpdate:  mu: +0.105282054  nElectrons: 327.000000  magneticMoment: [ Abs: 57.17932  Tot: +0.00000 ]
	SubspaceRotationAdjust: set factor to 0.15
ElecMinimize: Iter:  13  F: -1612.001273743682759  |grad|_K:  7.881e-08  alpha:  3.438e-01  linmin: -3.983e-08  t[s]: 137026.76
	FillingsUpdate:  mu: +0.105210187  nElectrons: 327.000000  magneticMoment: [ Abs: 57.17927  Tot: +0.00000 ]
	SubspaceRotationAdjust: set factor to 0.138
ElecMinimize: Iter:  14  F: -1612.001274160540333  |grad|_K:  7.168e-08  alpha:  3.480e-01  linmin: -2.679e-06  t[s]: 137105.41
	FillingsUpdate:  mu: +0.105261715  nElectrons: 327.000000  magneticMoment: [ Abs: 57.17933  Tot: +0.00000 ]
	SubspaceRotationAdjust: set factor to 0.145
ElecMinimize: Iter:  15  F: -1612.001274482155168  |grad|_K:  5.508e-08  alpha:  3.244e-01  linmin: -8.025e-07  t[s]: 137187.78
	FillingsUpdate:  mu: +0.105244180  nElectrons: 327.000000  magneticMoment: [ Abs: 57.17932  Tot: -0.00000 ]
	SubspaceRotationAdjust: set factor to 0.178
ElecMinimize: Iter:  16  F: -1612.001274746012086  |grad|_K:  5.261e-08  alpha:  4.513e-01  linmin:  1.305e-05  t[s]: 137265.68
	FillingsUpdate:  mu: +0.105228580  nElectrons: 327.000000  magneticMoment: [ Abs: 57.17931  Tot: +0.00000 ]
	SubspaceRotationAdjust: set factor to 0.211
ElecMinimize: Iter:  17  F: -1612.001275016835507  |grad|_K:  5.779e-08  alpha:  5.077e-01  linmin:  3.055e-06  t[s]: 137345.30
ElecMinimize: Converged (|Delta F|<1.000000e-06 for 5 iters).
Setting wave functions to eigenvectors of Hamiltonian

# Ionic positions in lattice coordinates:
ion Cr   0.016951068129314   0.004539684814731   0.169681061902510 1
ion Cr   0.520265510986652   0.005982696610931   0.168379421118240 1
ion Cr   0.014423096604822   0.506882360862492   0.169452595853571 1
ion Cr   0.515496365275363   0.506310226223722   0.168191417792084 1
ion Cr   0.260062380890462   0.254839336768848   0.061396935987736 1
ion Cr   0.258750818641375   0.753282529707226   0.061088311267353 1
ion Cr  -0.244309655894738   0.254170501649873   0.053702524874131 1
ion Cr  -0.245219816289372   0.752498216365895   0.053584732785322 1
ion Cr   0.000000000000000   0.000000000000000  -0.050000000000000 0
ion Cr   0.500000000000000   0.000000000000000  -0.050000000000000 0
ion Cr   0.000000000000000   0.500000000000000  -0.050000000000000 0
ion Cr   0.500000000000000   0.500000000000000  -0.050000000000000 0
ion Cr   0.250000000000000   0.250000000000000  -0.150000000000000 0
ion Cr   0.250000000000000   0.750000000000000  -0.150000000000000 0
ion Cr  -0.250000000000000   0.250000000000000  -0.150000000000000 0
ion Cr  -0.250000000000000   0.750000000000000  -0.150000000000000 0
ion O   0.275021029839674   0.272292486669829   0.164324881909210 1
ion O   0.276853005521000   0.741141065078011   0.162979144539731 1
ion O  -0.253051173430300   0.269118745485741   0.154602254277740 1
ion O  -0.252139715747031   0.743041565610122   0.154224342054889 1
ion O   0.060413279786500   0.005280600875687   0.074373284719789 1
ion O   0.541315941488187   0.004293893004780   0.042896348028893 1
ion O  -0.033002813896355   0.503359687456842   0.041130036640176 1
ion O   0.458899979797965   0.503964584199560   0.041026021208490 1
ion O   0.250000000000000   0.250000000000000  -0.050000000000000 0
ion O   0.250000000000000   0.750000000000000  -0.050000000000000 0
ion O  -0.250000000000000   0.250000000000000  -0.050000000000000 0
ion O  -0.250000000000000   0.750000000000000  -0.050000000000000 0
ion O   0.000000000000000   0.000000000000000  -0.150000000000000 0
ion O   0.500000000000000   0.000000000000000  -0.150000000000000 0
ion O   0.000000000000000   0.500000000000000  -0.150000000000000 0
ion O   0.500000000000000   0.500000000000000  -0.150000000000000 0
ion O  -0.045856788324991  -0.010515973267456   0.255805642009598 1
ion H   0.055562484326658   0.056149496533509   0.282305253061141 1

# Forces in Lattice coordinates:
force Cr  -0.000275373845066   0.001835222004508   0.000654490743660 1
force Cr  -0.002279972086169   0.001649816558278  -0.000908276526448 1
force Cr   0.000200444355319  -0.001498297584587  -0.001872352306231 1
force Cr  -0.002716566009068  -0.001530812860663   0.000209685528877 1
force Cr  -0.001632910624465  -0.000505641759551  -0.004092162981997 1
force Cr  -0.001310296428450   0.001259934228762  -0.001578204065827 1
force Cr   0.003464667152308   0.000125467870128  -0.008446569651410 1
force Cr   0.003409069447796   0.000125410772121  -0.010466918868332 1
force Cr   0.052241974475835   0.002900997755204   0.795651608176759 0
force Cr   0.038880970359817   0.013003728326510   0.294778024570752 0
force Cr  -0.022783383580045   0.008973322106574   0.378893870630303 0
force Cr  -0.144631616876559   0.009381492622551   0.454461406500218 0
force Cr   0.008550983779149  -0.028264859565717  -0.679695223325136 0
force Cr   0.008508881426100   0.028358633497346  -0.687679509331071 0
force Cr   0.040170670483279  -0.027906552602346  -0.800824534560286 0
force Cr   0.039917033322632   0.027781239585417  -0.796163598958805 0
force O   0.001686290409016   0.002486770577441   0.010413723993371 1
force O   0.000899743824138  -0.002172563270843   0.047601004876390 1
force O   0.001993670747004   0.001004203196348  -0.012140370410836 1
force O   0.000166569103458  -0.000142373691222  -0.004321343789453 1
force O   0.002428982794522  -0.001211197690524   0.006315367546531 1
force O   0.001614142838201  -0.001409520276714   0.004302080817286 1
force O   0.001167559656859   0.001803081699590   0.005052584729039 1
force O   0.000388740544418  -0.000455551371518   0.003243737596180 1
force O  -0.268852325781553  -0.068737870780689   0.110583502009704 0
force O  -0.275745938522361   0.077118747506826   0.115553847804957 0
force O   0.232042635309055  -0.033720985508709   0.257762737130111 0
force O   0.223475403775064   0.043902313027736   0.259926476490225 0
force O  -0.000927243574634   0.000031344326763  -0.731880893736807 0
force O   0.001567723366472  -0.001725147211946   0.331812092266468 0
force O   0.013930252503610  -0.001048419653090   0.398025925524339 0
force O   0.028829641505227  -0.001590694057548   0.292949320620687 0
force O  -0.003300951146988   0.002892250385623  -0.018278741393498 1
force H   0.002207900189437  -0.000459409255949   0.006801021859519 1

# Energy components:
   Eewald =     4382.5605260999873281
       EH =     5821.3763368245081438
     Eloc =   -11944.9132115272568626
      Enl =     -393.7677764415714705
   Epulay =       -0.0003758999111746
      Exc =     -215.0914951137936555
       KE =      736.6858652682485626
        U =        1.1503088700459574
-------------------------------------
     Etot =    -1611.9998219197423168
       TS =        0.0014530970932482
-------------------------------------
        F =    -1612.0012750168355069

IonicMinimize: Iter:  34  F: -1612.001275016835507  |grad|_K:  2.206e-04  alpha:  1.000e+00  linmin: -1.092e-02  t[s]: 137355.66
IonicMinimize: Converged (|Delta F|<1.000000e-04 for 3 iters).

#--- Lowdin population analysis ---
# oxidation-state Cr +3.016 +3.053 +3.048 +2.922 +2.895 +2.892 +2.897 +2.897 +2.907 +2.901 +2.948 +2.898 +2.978 +2.978 +2.979 +2.979
# magnetic-moments Cr +3.859 -2.029 +2.046 -4.004 +3.980 +3.983 -3.990 -3.992 -3.932 +3.845 -3.662 +3.843 -2.099 -2.100 +2.107 +2.106
# oxidation-state O -0.890 -0.882 -0.874 -0.872 -0.886 -0.869 -0.837 -0.858 -0.896 -0.896 -0.891 -0.890 -0.911 -0.876 -0.876 -0.883 -0.843
# magnetic-moments O -0.024 -0.029 +0.065 +0.064 -0.167 +0.029 +0.179 -0.201 +0.093 +0.092 +0.040 +0.041 -0.031 -0.046 +0.037 -0.036 -0.088
# oxidation-state H +0.379
# magnetic-moments H +0.006


Dumping 'OH.ionpos' ... done
Dumping 'OH.lattice' ... done
Dumping 'OH.Ecomponents' ... done
End date and time: Tue Apr  1 20:49:42 2025  (Duration: 1-14:09:19.18)
Done!
File 'min_progress.txt' has been deleted.
File 'min_details.txt' does not exist, so it cannot be deleted.
File 'O_pos.txt' does not exist, so it cannot be deleted.
File 'OH_pos.txt' does not exist, so it cannot be deleted.
Directory 'runs' does not exist, so it cannot be deleted.
File '/data2/jt577/March_2025/pure_RSO/ionic_relax_magnetism/pure_CrO/runs/wavefunctions/O.wfns' does not exist and cannot be copied.
File '/data2/jt577/March_2025/pure_RSO/ionic_relax_magnetism/pure_CrO/runs/wavefunctions/OH.wfns' does not exist and cannot be copied.
File '/data2/jt577/March_2025/pure_RSO/ionic_relax_magnetism/pure_CrO/runs/calc_20250328-135701/O/O.wfns' does not exist and cannot be copied.
File '/data2/jt577/March_2025/pure_RSO/ionic_relax_magnetism/pure_CrO/runs/calc_20250328-135701/OH/OH.wfns' does not exist and cannot be copied.
File '/data2/jt577/March_2025/pure_RSO/ionic_relax_magnetism/pure_CrO/runs/calc_20250328-135701/O/O.ionpos' has been copied to '/data2/jt577/March_2025/pure_RSO/ionic_relax_magnetism/pure_CrO/runs/positions/O.ionpos'.
File '/data2/jt577/March_2025/pure_RSO/ionic_relax_magnetism/pure_CrO/runs/calc_20250328-135701/O/O.lattice' has been copied to '/data2/jt577/March_2025/pure_RSO/ionic_relax_magnetism/pure_CrO/runs/positions/O.lattice'.
File '/data2/jt577/March_2025/pure_RSO/ionic_relax_magnetism/pure_CrO/runs/calc_20250328-135701/OH/OH.ionpos' has been copied to '/data2/jt577/March_2025/pure_RSO/ionic_relax_magnetism/pure_CrO/runs/positions/OH.ionpos'.
File '/data2/jt577/March_2025/pure_RSO/ionic_relax_magnetism/pure_CrO/runs/calc_20250328-135701/OH/OH.lattice' has been copied to '/data2/jt577/March_2025/pure_RSO/ionic_relax_magnetism/pure_CrO/runs/positions/OH.lattice'.
File '/data2/jt577/March_2025/pure_RSO/ionic_relax_magnetism/pure_CrO/runs/wavefunctions/O.wfns' does not exist and cannot be copied.
File '/data2/jt577/March_2025/pure_RSO/ionic_relax_magnetism/pure_CrO/runs/wavefunctions/OH.wfns' does not exist and cannot be copied.
Traceback (most recent call last):
  File "/data2/jt577/March_2025/pure_RSO/ionic_relax_magnetism/pure_CrO/main.py", line 246, in <module>
    x, _, unique_folder = mn.PBFGS(fun=cost, x0=x, jac=grad_cost, args=(elements, target, eta, q, first_iteration, generic_inputs, lattice, positions_ordered, ads_O_pos, ads_OH_pos), S=num_species, B=quasi_Hessian, folder=unique_folder, progress_file_path=progress_file_path, details_file_path=details_file_path, maxit=maxit, tol=1e-2, callback=callback_func)
  File "/data2/jt577/March_2025/pure_RSO/ionic_relax_magnetism/pure_CrO/modules/minimize.py", line 162, in PBFGS
    unique_folder = bs.perform_calc(x, *args)
  File "/data2/jt577/March_2025/pure_RSO/ionic_relax_magnetism/pure_CrO/modules/bsruncalc.py", line 152, in perform_calc
    energy_surface(w, adsorbate='O', elements=elements, folder=unique_folder, first_iteration=first_iteration, generic_inputs=generic_inputs, lattice=lattice, positions_ordered=positions_ordered, ads_O_pos=ads_O_pos, ads_OH_pos=ads_OH_pos)
  File "/data2/jt577/March_2025/pure_RSO/ionic_relax_magnetism/pure_CrO/modules/bsruncalc.py", line 128, in energy_surface
    write_input_surface(weights, adsorbate, elements, folder, first_iteration, generic_inputs, lattice, positions_ordered, ads_O_pos, ads_OH_pos)
  File "/data2/jt577/March_2025/pure_RSO/ionic_relax_magnetism/pure_CrO/modules/bsruncalc.py", line 82, in write_input_surface
    curr_line = mixed_lines[i]
IndexError: list index out of range
