
*************** JDFTx 1.7.0  ***************

Start date and time: Fri May 16 17:18:30 2025
Executable /data2/jt577/jdftx_eat_withLibXC/build/jdftx with command-line: -i /data2/jt577/May_2025/Relax_Mag_litU/rel2+1_6/OH/runs/calc_/run.in
Running on hosts (process indices):  node3301 (0-8)
Divided in process groups (process indices):  0 (0)  1 (1)  2 (2)  3 (3)  4 (4)  5 (5)  6 (6)  7 (7)  8 (8)
Resource initialization completed at t[s]:      0.00
Run totals: 9 processes, 63 threads, 0 GPUs


Input parsed successfully to the following command list (including defaults):

add-mix 
add-U 	Ni d 0.235196 \
	Co d 0.121273 \
	Cr d 0.128623 \
	V d 0.113923
basis kpoint-dependent
coords-type Lattice
core-overlap-check vector
coulomb-interaction Periodic
davidson-band-ratio 1.1
dump End IonicPositions Lattice Ecomponents
dump-name run.$VAR
elec-cutoff 30
elec-eigen-algo Davidson
elec-ex-corr gga-x-rpbe gga-c-pbe
elec-smearing Fermi 0.001
electronic-minimize  \
	dirUpdateScheme      FletcherReeves \
	linminMethod         DirUpdateRecommended \
	nIterations          1000 \
	history              15 \
	knormThreshold       0 \
	energyDiffThreshold  1e-06 \
	nEnergyDiff          5 \
	alphaTstart          1 \
	alphaTmin            1e-10 \
	updateTestStepSize   yes \
	alphaTreduceFactor   0.1 \
	alphaTincreaseFactor 3 \
	nAlphaAdjustMax      3 \
	wolfeEnergy          0.0001 \
	wolfeGradient        0.9 \
	fdTest               no
exchange-regularization WignerSeitzTruncated
fluid None
fluid-ex-corr (null) lda-PZ
fluid-gummel-loop 10 1.000000e-05
fluid-minimize  \
	dirUpdateScheme      PolakRibiere \
	linminMethod         DirUpdateRecommended \
	nIterations          100 \
	history              15 \
	knormThreshold       0 \
	energyDiffThreshold  0 \
	nEnergyDiff          2 \
	alphaTstart          1 \
	alphaTmin            1e-10 \
	updateTestStepSize   yes \
	alphaTreduceFactor   0.1 \
	alphaTincreaseFactor 3 \
	nAlphaAdjustMax      3 \
	wolfeEnergy          0.0001 \
	wolfeGradient        0.9 \
	fdTest               no
fluid-solvent H2O 55.338 ScalarEOS \
	epsBulk 78.4 \
	pMol 0.92466 \
	epsInf 1.77 \
	Pvap 1.06736e-10 \
	sigmaBulk 4.62e-05 \
	Rvdw 2.61727 \
	Res 1.42 \
	tauNuc 343133 \
	poleEl 15 7 1
forces-output-coords Positions
initial-magnetic-moments  \
	Ni 1 -1 1 -1 \
	Co -1 1 \
	Cr 1 -1 \
	V -1 -1 1 1 -1 -1 1 1
initial-state run.$VAR
ion Ni  0.000000000000000   0.000000000000000   0.150000000000000 1
ion Ni  0.500000000000000   0.000000000000000   0.150000000000000 1
ion Ni  0.000000000000000   0.500000000000000   0.150000000000000 1
ion Ni  0.000000000000000   0.500000000000000  -0.050000000000000 0
ion Co  0.500000000000000   0.500000000000000   0.150000000000000 1
ion Co  0.250000000000000   0.750000000000000   0.050000000000000 1
ion Cr  0.250000000000000   0.250000000000000   0.050000000000000 1
ion Cr -0.250000000000000   0.250000000000000   0.050000000000000 1
ion V -0.250000000000000   0.750000000000000   0.050000000000000 1
ion V  0.000000000000000   0.000000000000000  -0.050000000000000 0
ion V  0.500000000000000   0.000000000000000  -0.050000000000000 0
ion V  0.500000000000000   0.500000000000000  -0.050000000000000 0
ion V  0.250000000000000   0.250000000000000  -0.150000000000000 0
ion V  0.250000000000000   0.750000000000000  -0.150000000000000 0
ion V -0.250000000000000   0.250000000000000  -0.150000000000000 0
ion V -0.250000000000000   0.750000000000000  -0.150000000000000 0
ion O  0.250000000000000   0.250000000000000   0.150000000000000 1
ion O  0.250000000000000   0.750000000000000   0.150000000000000 1
ion O -0.250000000000000   0.250000000000000   0.150000000000000 1
ion O -0.250000000000000   0.750000000000000   0.150000000000000 1
ion O  0.000000000000000   0.000000000000000   0.050000000000000 1
ion O  0.500000000000000   0.000000000000000   0.050000000000000 1
ion O  0.000000000000000   0.500000000000000   0.050000000000000 1
ion O  0.500000000000000   0.500000000000000   0.050000000000000 1
ion O  0.250000000000000   0.250000000000000  -0.050000000000000 0
ion O  0.250000000000000   0.750000000000000  -0.050000000000000 0
ion O -0.250000000000000   0.250000000000000  -0.050000000000000 0
ion O -0.250000000000000   0.750000000000000  -0.050000000000000 0
ion O  0.000000000000000   0.000000000000000  -0.150000000000000 0
ion O  0.500000000000000   0.000000000000000  -0.150000000000000 0
ion O  0.000000000000000   0.500000000000000  -0.150000000000000 0
ion O  0.500000000000000   0.500000000000000  -0.150000000000000 0
ion O -0.008040138212305  -0.008269777577920   0.235000196603227 1
ion H  0.095742872057713   0.094897636790041   0.252810710255288 1
ion-species SG15/$ID_ONCV_PBE.upf
ion-width 0
ionic-minimize  \
	dirUpdateScheme      L-BFGS \
	linminMethod         DirUpdateRecommended \
	nIterations          1000 \
	history              15 \
	knormThreshold       0.0001 \
	energyDiffThreshold  0.0001 \
	nEnergyDiff          3 \
	alphaTstart          1 \
	alphaTmin            1e-10 \
	updateTestStepSize   yes \
	alphaTreduceFactor   0.1 \
	alphaTincreaseFactor 3 \
	nAlphaAdjustMax      3 \
	wolfeEnergy          0.0001 \
	wolfeGradient        0.9 \
	fdTest               no
kpoint   0.500000000000   0.500000000000   0.500000000000  1.00000000000000
kpoint-folding 3 3 1 
latt-move-scale 1 1 1
latt-scale 1 1 1 
lattice  \
	   8.140000000000001    8.140000000000001    0.000000000000000  \
	   8.140000000000001   -8.140000000000001    0.000000000000000  \
	   0.000000000000000    0.000000000000000   40.700000000000003 
lattice-minimize  \
	dirUpdateScheme      L-BFGS \
	linminMethod         DirUpdateRecommended \
	nIterations          0 \
	history              15 \
	knormThreshold       0 \
	energyDiffThreshold  1e-06 \
	nEnergyDiff          2 \
	alphaTstart          1 \
	alphaTmin            1e-10 \
	updateTestStepSize   yes \
	alphaTreduceFactor   0.1 \
	alphaTincreaseFactor 3 \
	nAlphaAdjustMax      3 \
	wolfeEnergy          0.0001 \
	wolfeGradient        0.9 \
	fdTest               no
lcao-params -1 1e-06 0.001
pcm-variant GLSSA13
spintype z-spin
subspace-rotation-factor 1 yes
symmetries none
symmetry-threshold 0.0001


Applied RMS atom displacement 0 bohrs to make symmetries exact.

---------- Initializing the Grid ----------
R = 
[         8.14         8.14            0  ]
[         8.14        -8.14            0  ]
[            0            0         40.7  ]
unit cell volume = 5393.53
G =
[   0.385945   0.385945         -0  ]
[   0.385945  -0.385945         -0  ]
[         -0         -0   0.154378  ]
Minimum fftbox size, Smin = [  60  60  204  ]
Chosen fftbox size, S = [  60  60  210  ]

---------- Exchange Correlation functional ----------
Initialized LibXC exchange functional 'Hammer, Hansen, and Norskov'
Initialized LibXC correlation functional 'Perdew, Burke & Ernzerhof'

---------- Setting up pseudopotentials ----------
Width of ionic core gaussian charges (only for fluid interactions / plotting) set to 0

Reading pseudopotential file '/data2/jt577/jdftx_eat_withLibXC/build/pseudopotentials/SG15/Ni_ONCV_PBE.upf':
  'Ni' pseudopotential, 'PBE' functional
  Generated using ONCVPSP code by D. R. Hamann
  Author: Martin Schlipf and Francois Gygi  Date: 150915.
  18 valence electrons, 4 orbitals, 6 projectors, 1292 radial grid points, with lMax = 2
  Transforming local potential to a uniform radial grid of dG=0.02 with 1419 points.
  Transforming nonlocal projectors to a uniform radial grid of dG=0.02 with 528 points.
    3S    l: 0   occupation:  2.0   eigenvalue: -4.081355
    3P    l: 1   occupation:  6.0   eigenvalue: -2.623460
    4S    l: 0   occupation:  2.0   eigenvalue: -0.207378
    3D    l: 2   occupation:  8.0   eigenvalue: -0.326118
  Transforming atomic orbitals to a uniform radial grid of dG=0.02 with 528 points.
  WARNING: large normalization error in atomic orbital 1s (integral: 0.000006).
  Core radius for overlap checks: 1.99 bohrs.
  Reading pulay file /data2/jt577/jdftx_eat_withLibXC/build/pseudopotentials/SG15/Ni_ONCV_PBE.pulay ... using dE_dnG = -7.250568e-04 computed for Ecut = 30.

Reading pseudopotential file '/data2/jt577/jdftx_eat_withLibXC/build/pseudopotentials/SG15/Co_ONCV_PBE.upf':
  'Co' pseudopotential, 'PBE' functional
  Generated using ONCVPSP code by D. R. Hamann
  Author: Martin Schlipf and Francois Gygi  Date: 150915.
  17 valence electrons, 4 orbitals, 6 projectors, 1388 radial grid points, with lMax = 2
  Transforming local potential to a uniform radial grid of dG=0.02 with 1419 points.
  Transforming nonlocal projectors to a uniform radial grid of dG=0.02 with 528 points.
    3S    l: 0   occupation:  2.0   eigenvalue: -3.763303
    3P    l: 1   occupation:  6.0   eigenvalue: -2.412101
    4S    l: 0   occupation:  2.0   eigenvalue: -0.201022
    3D    l: 2   occupation:  7.0   eigenvalue: -0.301498
  Transforming atomic orbitals to a uniform radial grid of dG=0.02 with 528 points.
  Core radius for overlap checks: 1.94 bohrs.
  Reading pulay file /data2/jt577/jdftx_eat_withLibXC/build/pseudopotentials/SG15/Co_ONCV_PBE.pulay ... using dE_dnG = -9.787391e-05 computed for Ecut = 30.

Reading pseudopotential file '/data2/jt577/jdftx_eat_withLibXC/build/pseudopotentials/SG15/Cr_ONCV_PBE.upf':
  'Cr' pseudopotential, 'PBE' functional
  Generated using ONCVPSP code by D. R. Hamann
  Author: Martin Schlipf and Francois Gygi  Date: 150915.
  14 valence electrons, 4 orbitals, 6 projectors, 1160 radial grid points, with lMax = 2
  Transforming local potential to a uniform radial grid of dG=0.02 with 1419 points.
  Transforming nonlocal projectors to a uniform radial grid of dG=0.02 with 528 points.
    3S    l: 0   occupation:  2.0   eigenvalue: -2.865131
    3P    l: 1   occupation:  6.0   eigenvalue: -1.810600
    4S    l: 0   occupation:  2.0   eigenvalue: -0.180525
    3D    l: 2   occupation:  4.0   eigenvalue: -0.220312
  Transforming atomic orbitals to a uniform radial grid of dG=0.02 with 528 points.
  WARNING: large normalization error in atomic orbital 1s (integral: 0.000001).
  Core radius for overlap checks: 2.10 bohrs.
  Reading pulay file /data2/jt577/jdftx_eat_withLibXC/build/pseudopotentials/SG15/Cr_ONCV_PBE.pulay ... using dE_dnG = -9.817895e-06 computed for Ecut = 30.

Reading pseudopotential file '/data2/jt577/jdftx_eat_withLibXC/build/pseudopotentials/SG15/V_ONCV_PBE.upf':
  'V' pseudopotential, 'PBE' functional
  Generated using ONCVPSP code by D. R. Hamann
  Author: Martin Schlipf and Francois Gygi  Date: 150915.
  13 valence electrons, 4 orbitals, 6 projectors, 1536 radial grid points, with lMax = 2
  Transforming local potential to a uniform radial grid of dG=0.02 with 1419 points.
  Transforming nonlocal projectors to a uniform radial grid of dG=0.02 with 528 points.
    3S    l: 0   occupation:  2.0   eigenvalue: -2.581105
    3P    l: 1   occupation:  6.0   eigenvalue: -1.618486
    4S    l: 0   occupation:  2.0   eigenvalue: -0.172804
    3D    l: 2   occupation:  3.0   eigenvalue: -0.189795
  Transforming atomic orbitals to a uniform radial grid of dG=0.02 with 528 points.
  Core radius for overlap checks: 1.80 bohrs.
  Reading pulay file /data2/jt577/jdftx_eat_withLibXC/build/pseudopotentials/SG15/V_ONCV_PBE.pulay ... using dE_dnG = -1.698632e-04 computed for Ecut = 30.

Reading pseudopotential file '/data2/jt577/jdftx_eat_withLibXC/build/pseudopotentials/SG15/O_ONCV_PBE.upf':
  'O' pseudopotential, 'PBE' functional
  Generated using ONCVPSP code by D. R. Hamann
  Author: Martin Schlipf and Francois Gygi  Date: 150915.
  6 valence electrons, 2 orbitals, 4 projectors, 936 radial grid points, with lMax = 1
  Transforming local potential to a uniform radial grid of dG=0.02 with 1419 points.
  Transforming nonlocal projectors to a uniform radial grid of dG=0.02 with 528 points.
    2S    l: 0   occupation:  2.0   eigenvalue: -0.880572
    2P    l: 1   occupation:  4.0   eigenvalue: -0.331869
  Transforming atomic orbitals to a uniform radial grid of dG=0.02 with 528 points.
  Core radius for overlap checks: 1.29 bohrs.
  Reading pulay file /data2/jt577/jdftx_eat_withLibXC/build/pseudopotentials/SG15/O_ONCV_PBE.pulay ... using dE_dnG = -8.209514e-03 computed for Ecut = 30.

Reading pseudopotential file '/data2/jt577/jdftx_eat_withLibXC/build/pseudopotentials/SG15/H_ONCV_PBE.upf':
  'H' pseudopotential, 'PBE' functional
  Generated using ONCVPSP code by D. R. Hamann
  Author: Martin Schlipf and Francois Gygi  Date: 150915.
  1 valence electrons, 1 orbitals, 2 projectors, 1166 radial grid points, with lMax = 0
  Transforming local potential to a uniform radial grid of dG=0.02 with 1419 points.
  Transforming nonlocal projectors to a uniform radial grid of dG=0.02 with 528 points.
    1S    l: 0   occupation:  1.0   eigenvalue: -0.238602
  Transforming atomic orbitals to a uniform radial grid of dG=0.02 with 528 points.
  Core radius for overlap checks: 1.01 bohrs.
  Reading pulay file /data2/jt577/jdftx_eat_withLibXC/build/pseudopotentials/SG15/H_ONCV_PBE.pulay ... using dE_dnG = -8.245991e-05 computed for Ecut = 30.

Initialized 6 species with 34 total atoms.

Folded 1 k-points by 3x3x1 to 9 k-points.

---------- Setting up k-points, bands, fillings ----------
No reducable k-points. 
Computing the number of bands and number of electrons
Calculating initial fillings.
nElectrons: 341.000000   nBands: 229   nStates: 18

----- Setting up reduced wavefunction bases (one per k-point) -----
average nbasis = 42312.000 , ideal nbasis = 42330.081

---------- Setting up ewald sum ----------
Optimum gaussian width for ewald sums = 3.887061 bohr.
Real space sum over 605 unit cells with max indices [  5  5  2  ]
Reciprocal space sum over 5915 terms with max indices [  6  6  17  ]

---------- Allocating electronic variables ----------
Initializing wave functions:  linear combination of atomic orbitals
Ni (M=1) pseudo-atom majority spin occupations:   s ( 1 0.5 )  p ( 3 )  d ( 5 )
Ni (M=1) pseudo-atom minority spin occupations:   s ( 1 0 )  p ( 3 )  d ( 4.5 )
Co (M=1) pseudo-atom majority spin occupations:   s ( 1 0 )  p ( 3 )  d ( 5 )
Co (M=1) pseudo-atom minority spin occupations:   s ( 1 0 )  p ( 3 )  d ( 4 )
Cr (M=1) pseudo-atom majority spin occupations:   s ( 1 0 )  p ( 3 )  d ( 3.5 )
Cr (M=1) pseudo-atom minority spin occupations:   s ( 1 0 )  p ( 3 )  d ( 2.5 )
V (M=1) pseudo-atom majority spin occupations:   s ( 1 0 )  p ( 3 )  d ( 3 )
V (M=1) pseudo-atom minority spin occupations:   s ( 1 0 )  p ( 3 )  d ( 2 )
O pseudo-atom occupations:   s ( 2 )  p ( 4 )
H pseudo-atom occupations:   s ( 1 )
	FillingsUpdate:  mu: +0.895860536  nElectrons: 341.000000  magneticMoment: [ Abs: 0.66895  Tot: +0.00000 ]
LCAOMinimize: Iter:   0  F: -1757.0296097117832232  |grad|_K:  1.228e-02  alpha:  1.000e+00
	FillingsUpdate:  mu: +0.248615776  nElectrons: 341.000000  magneticMoment: [ Abs: 2.82322  Tot: +0.00000 ]
LCAOMinimize: Iter:   1  F: -1774.6208092151507572  |grad|_K:  1.019e-02  alpha:  5.987e-02  linmin: -4.502e-02  cgtest:  3.485e-01  t[s]:     62.37
LCAOMinimize: 	Wrong curvature in test step, increasing alphaT to 1.796163e-01.
	FillingsUpdate:  mu: +1.235331647  nElectrons: 341.000000  magneticMoment: [ Abs: 2.36945  Tot: -0.00000 ]
LCAOMinimize: Iter:   2  F: -1785.4279098830809289  |grad|_K:  4.772e-02  alpha: -3.206e-01  linmin: -6.695e-02  cgtest:  1.767e-01  t[s]:     81.89
LCAOMinimize: 	Step increased F by 1.459311e+03, reducing alpha to 4.858438e-02.
LCAOMinimize: 	Step increased F by 1.093557e+03, reducing alpha to 4.858438e-03.
LCAOMinimize: 	Step increased F by 4.238155e+02, reducing alpha to 4.858438e-04.
LCAOMinimize: 	Step failed to reduce F after 3 attempts. Quitting step.
LCAOMinimize: 	Undoing step.
LCAOMinimize: 	Step failed: resetting search direction.
	FillingsUpdate:  mu: +6.162718070  nElectrons: 341.000000  magneticMoment: [ Abs: 4.21405  Tot: +0.00000 ]
LCAOMinimize: Iter:   3  F: -1414.2521176280999953  |grad|_K:  1.408e-01  alpha:  4.858e-04
LCAOMinimize: 	Step increased F by 5.483664e+02, reducing alpha to 4.770899e-02.
	FillingsUpdate:  mu: +7.424688499  nElectrons: 341.000000  magneticMoment: [ Abs: 0.85100  Tot: -0.00000 ]
LCAOMinimize: Iter:   4  F: -1523.7885600258841805  |grad|_K:  7.431e-02  alpha:  4.771e-02  linmin:  5.646e-02  cgtest: -1.633e+00  t[s]:    184.95
LCAOMinimize: 	Bad step direction: g.d > 0.
LCAOMinimize: 	Undoing step.
LCAOMinimize: 	Step failed: resetting search direction.
	FillingsUpdate:  mu: +7.424688499  nElectrons: 341.000000  magneticMoment: [ Abs: 0.85100  Tot: -0.00000 ]
LCAOMinimize: Iter:   5  F: -1523.7885600258841805  |grad|_K:  7.431e-02  alpha:  0.000e+00
	FillingsUpdate:  mu: +4.057908712  nElectrons: 341.000000  magneticMoment: [ Abs: 7.60008  Tot: -0.00000 ]
LCAOMinimize: Iter:   6  F: -1600.7075077092119955  |grad|_K:  1.652e-01  alpha:  4.907e-02  linmin:  8.807e-02  cgtest: -3.589e-01  t[s]:    221.08
LCAOMinimize: 	Bad step direction: g.d > 0.
LCAOMinimize: 	Undoing step.
LCAOMinimize: 	Step failed: resetting search direction.
	FillingsUpdate:  mu: +4.057908712  nElectrons: 341.000000  magneticMoment: [ Abs: 7.60008  Tot: -0.00000 ]
LCAOMinimize: Iter:   7  F: -1600.7075077092119955  |grad|_K:  1.652e-01  alpha:  0.000e+00
	FillingsUpdate:  mu: +2.885438579  nElectrons: 341.000000  magneticMoment: [ Abs: 1.91837  Tot: +0.00000 ]
LCAOMinimize: Iter:   8  F: -1757.2711329499018120  |grad|_K:  3.874e-02  alpha:  2.660e-02  linmin:  6.631e-02  cgtest: -2.385e+00  t[s]:    257.81
LCAOMinimize: 	Bad step direction: g.d > 0.
LCAOMinimize: 	Undoing step.
LCAOMinimize: 	Step failed: resetting search direction.
	FillingsUpdate:  mu: +2.885438579  nElectrons: 341.000000  magneticMoment: [ Abs: 1.91837  Tot: +0.00000 ]
LCAOMinimize: Iter:   9  F: -1757.2711329499018120  |grad|_K:  3.874e-02  alpha:  0.000e+00
LCAOMinimize: 	Wrong curvature in test step, increasing alphaT to 7.980368e-02.
	FillingsUpdate:  mu: +1.104210315  nElectrons: 341.000000  magneticMoment: [ Abs: 5.41300  Tot: +0.00000 ]
LCAOMinimize: Iter:  10  F: -1809.1481780480728503  |grad|_K:  2.633e-02  alpha: -3.647e-02  linmin: -2.976e-02  cgtest: -1.028e-01  t[s]:    293.29
LCAOMinimize: 	Step increased F by 8.697566e+02, reducing alpha to 2.357077e-02.
LCAOMinimize: 	Step increased F by 1.312964e+02, reducing alpha to 2.357077e-03.
	FillingsUpdate:  mu: +0.886874043  nElectrons: 341.000000  magneticMoment: [ Abs: 5.98721  Tot: -0.00000 ]
LCAOMinimize: Iter:  11  F: -1811.3099330380862284  |grad|_K:  2.450e-02  alpha:  2.357e-03  linmin: -5.139e-02  cgtest:  9.214e-01  t[s]:    347.78
LCAOMinimize: 	Predicted alpha/alphaT>3.000000, increasing alphaT to 7.071232e-03.
LCAOMinimize: 	Predicted alpha/alphaT>3.000000, increasing alphaT to 2.121370e-02.
	FillingsUpdate:  mu: +0.174618636  nElectrons: 341.000000  magneticMoment: [ Abs: 7.95849  Tot: -0.00000 ]
LCAOMinimize: Iter:  12  F: -1819.3735420891184731  |grad|_K:  1.083e-02  alpha:  2.752e-02  linmin: -1.370e-02  cgtest: -1.148e-02  t[s]:    382.77
	FillingsUpdate:  mu: -0.140830587  nElectrons: 341.000000  magneticMoment: [ Abs: 8.12257  Tot: -0.00000 ]
LCAOMinimize: Iter:  13  F: -1820.9795935975676002  |grad|_K:  1.407e-02  alpha:  2.788e-02  linmin: -2.839e-03  cgtest: -1.104e-01  t[s]:    405.54
	FillingsUpdate:  mu: -0.128682537  nElectrons: 341.000000  magneticMoment: [ Abs: 8.59320  Tot: +0.00000 ]
LCAOMinimize: Iter:  14  F: -1821.8648197154238915  |grad|_K:  1.266e-02  alpha:  4.135e-03  linmin: -5.726e-02  cgtest:  9.370e-01  t[s]:    428.14
LCAOMinimize: Encountered beta<0, resetting CG.
LCAOMinimize: 	Predicted alpha/alphaT>3.000000, increasing alphaT to 1.240406e-02.
	FillingsUpdate:  mu: +0.093058342  nElectrons: 341.000000  magneticMoment: [ Abs: 9.74557  Tot: +0.00000 ]
LCAOMinimize: Iter:  15  F: -1822.8194756252275965  |grad|_K:  9.117e-03  alpha:  1.258e-02  linmin:  4.971e-02  cgtest: -3.388e-01  t[s]:    457.06
	FillingsUpdate:  mu: +0.362458548  nElectrons: 341.000000  magneticMoment: [ Abs: 10.39173  Tot: -0.00000 ]
LCAOMinimize: Iter:  16  F: -1823.1589985346222420  |grad|_K:  1.275e-02  alpha:  1.298e-02  linmin: -5.947e-04  cgtest:  8.462e-01  t[s]:    479.72
	FillingsUpdate:  mu: +0.171258137  nElectrons: 341.000000  magneticMoment: [ Abs: 9.87726  Tot: +0.00000 ]
LCAOMinimize: Iter:  17  F: -1824.2598076315925937  |grad|_K:  7.070e-03  alpha:  1.411e-02  linmin: -3.262e-03  cgtest: -3.304e-01  t[s]:    502.13
LCAOMinimize: 	Predicted alpha/alphaT>3.000000, increasing alphaT to 4.232915e-02.
	FillingsUpdate:  mu: +0.152861730  nElectrons: 341.000000  magneticMoment: [ Abs: 10.18108  Tot: -0.00000 ]
LCAOMinimize: Iter:  18  F: -1824.5333087772535237  |grad|_K:  6.453e-03  alpha:  5.820e-03  linmin: -6.670e-02  cgtest:  9.595e-01  t[s]:    531.67
LCAOMinimize: Encountered beta<0, resetting CG.
	FillingsUpdate:  mu: +0.155988940  nElectrons: 341.000000  magneticMoment: [ Abs: 11.07968  Tot: -0.00000 ]
LCAOMinimize: Iter:  19  F: -1824.7978464504810745  |grad|_K:  4.719e-03  alpha:  1.338e-02  linmin:  2.973e-03  cgtest: -5.283e-02  t[s]:    555.16
	FillingsUpdate:  mu: +0.030545880  nElectrons: 341.000000  magneticMoment: [ Abs: 11.81158  Tot: -0.00000 ]
LCAOMinimize: Iter:  20  F: -1825.0194234532586961  |grad|_K:  4.356e-03  alpha:  2.338e-02  linmin:  1.661e-02  cgtest:  1.296e-01  t[s]:    578.08
	FillingsUpdate:  mu: +0.068328946  nElectrons: 341.000000  magneticMoment: [ Abs: 12.63524  Tot: -0.00000 ]
LCAOMinimize: Iter:  21  F: -1825.2323807133013815  |grad|_K:  4.228e-03  alpha:  3.051e-02  linmin:  1.313e-02  cgtest:  3.606e-01  t[s]:    600.57
	FillingsUpdate:  mu: +0.110200286  nElectrons: 341.000000  magneticMoment: [ Abs: 13.20792  Tot: -0.00000 ]
LCAOMinimize: Iter:  22  F: -1825.3264533962401401  |grad|_K:  3.134e-03  alpha:  1.166e-02  linmin: -5.496e-03  cgtest:  4.251e-01  t[s]:    623.37
	FillingsUpdate:  mu: +0.098970633  nElectrons: 341.000000  magneticMoment: [ Abs: 13.87112  Tot: -0.00000 ]
LCAOMinimize: Iter:  23  F: -1825.4772209218526768  |grad|_K:  1.980e-03  alpha:  2.947e-02  linmin: -1.422e-02  cgtest:  2.381e-01  t[s]:    645.71
	FillingsUpdate:  mu: +0.109837942  nElectrons: 341.000000  magneticMoment: [ Abs: 14.19879  Tot: -0.00000 ]
LCAOMinimize: Iter:  24  F: -1825.5408467471220320  |grad|_K:  2.344e-03  alpha:  3.146e-02  linmin: -3.255e-03  cgtest: -1.001e-01  t[s]:    668.06
	FillingsUpdate:  mu: +0.117241610  nElectrons: 341.000000  magneticMoment: [ Abs: 15.23101  Tot: -0.00000 ]
LCAOMinimize: Iter:  25  F: -1825.5953438529529649  |grad|_K:  2.053e-03  alpha:  1.992e-02  linmin:  3.189e-04  cgtest: -1.650e-01  t[s]:    690.00
	FillingsUpdate:  mu: +0.094177211  nElectrons: 341.000000  magneticMoment: [ Abs: 17.12677  Tot: +0.00000 ]
LCAOMinimize: Iter:  26  F: -1825.6824088952935199  |grad|_K:  1.725e-03  alpha:  4.092e-02  linmin: -3.164e-03  cgtest:  6.442e-01  t[s]:    712.01
	FillingsUpdate:  mu: +0.120821481  nElectrons: 341.000000  magneticMoment: [ Abs: 17.35132  Tot: -0.00000 ]
LCAOMinimize: Iter:  27  F: -1825.7263014584987104  |grad|_K:  1.850e-03  alpha:  3.164e-02  linmin: -1.776e-03  cgtest: -6.360e-02  t[s]:    734.39
	FillingsUpdate:  mu: +0.136740671  nElectrons: 341.000000  magneticMoment: [ Abs: 18.07791  Tot: -0.00000 ]
LCAOMinimize: Iter:  28  F: -1825.7605196592412540  |grad|_K:  1.017e-03  alpha:  1.963e-02  linmin: -1.034e-03  cgtest:  1.141e-01  t[s]:    756.92
LCAOMinimize: 	Predicted alpha/alphaT>3.000000, increasing alphaT to 5.890059e-02.
	FillingsUpdate:  mu: +0.113709398  nElectrons: 341.000000  magneticMoment: [ Abs: 19.04861  Tot: -0.00000 ]
LCAOMinimize: Iter:  29  F: -1825.7901979643377217  |grad|_K:  1.470e-03  alpha:  5.991e-02  linmin:  3.164e-03  cgtest:  2.031e-01  t[s]:    785.52
	FillingsUpdate:  mu: +0.105534219  nElectrons: 341.000000  magneticMoment: [ Abs: 19.75124  Tot: +0.00000 ]
LCAOMinimize: Iter:  30  F: -1825.8200720915415332  |grad|_K:  1.527e-03  alpha:  3.907e-02  linmin: -3.142e-04  cgtest: -4.555e-02  t[s]:    808.09
LCAOMinimize: None of the convergence criteria satisfied after 30 iterations.


---- Citations for features of the code used in this run ----

   Software package:
      R. Sundararaman, K. Letchworth-Weaver, K.A. Schwarz, D. Gunceler, Y. Ozhabes and T.A. Arias, 'JDFTx: software for joint density-functional theory', SoftwareX 6, 278 (2017)

   Simplified rotationally-invariant DFT+U:
      S. L. Dudarev et al., Phys. Rev. B 57, 1505 (1998)

   LibXC library of exchange-correlation functions:
      M. A. L. Marques, M. J. T. Oliveira and T. Burnus, Comput. Phys. Commun. 183, 2272 (2012)

   Hammer, Hansen, and Norskov exchange functional:
      B. Hammer, L. B. Hansen, and J. K. Nørskov, Phys. Rev. B 59, 7413 (1999)

   Perdew, Burke & Ernzerhof correlation functional:
      J. P. Perdew, K. Burke, and M. Ernzerhof, Phys. Rev. Lett. 77, 3865 (1996)

   Pseudopotentials:
      M Schlipf and F Gygi, Comput. Phys. Commun. 196, 36 (2015)

   Total energy minimization with Auxiliary Hamiltonian:
      C. Freysoldt, S. Boeck, and J. Neugebauer, Phys. Rev. B 79, 241103(R) (2009)

This list may not be complete. Please suggest additional citations or
report any other bugs at https://github.com/shankar1729/jdftx/issues

Initialization completed successfully at t[s]:    815.91


-------- Electronic minimization -----------
	FillingsUpdate:  mu: +0.105534238  nElectrons: 341.000000  magneticMoment: [ Abs: 19.75124  Tot: +0.00000 ]
ElecMinimize: Iter:   0  F: -1825.820072091543125  |grad|_K:  8.640e-04  alpha:  1.000e+00
	FillingsUpdate:  mu: +1.029538358  nElectrons: 341.000000  magneticMoment: [ Abs: 24.62674  Tot: +0.00000 ]
	SubspaceRotationAdjust: set factor to 0.697
ElecMinimize: Iter:   1  F: -1858.162913842094440  |grad|_K:  1.728e-03  alpha:  4.483e-01  linmin:  5.103e-03  t[s]:    886.73
ElecMinimize: 	Step increased F by 5.836678e+01, reducing alpha to 1.153695e-02.
	FillingsUpdate:  mu: +0.597981096  nElectrons: 341.000000  magneticMoment: [ Abs: 23.41694  Tot: +0.00000 ]
	SubspaceRotationAdjust: set factor to 0.813
ElecMinimize: Iter:   2  F: -1863.191874447742066  |grad|_K:  8.724e-04  alpha:  1.154e-02  linmin: -2.075e-03  t[s]:    966.13
	FillingsUpdate:  mu: +0.366179016  nElectrons: 341.000000  magneticMoment: [ Abs: 21.70767  Tot: +0.00000 ]
	SubspaceRotationAdjust: set factor to 0.896
ElecMinimize: Iter:   3  F: -1866.956189597754019  |grad|_K:  7.758e-04  alpha:  2.183e-02  linmin: -2.666e-03  t[s]:   1015.42
	FillingsUpdate:  mu: +0.057926215  nElectrons: 341.000000  magneticMoment: [ Abs: 23.10630  Tot: +0.00000 ]
	SubspaceRotationAdjust: set factor to 0.739
ElecMinimize: Iter:   4  F: -1872.846143601918129  |grad|_K:  8.465e-04  alpha:  4.690e-02  linmin: -4.515e-04  t[s]:   1064.14
	FillingsUpdate:  mu: +0.209112411  nElectrons: 341.000000  magneticMoment: [ Abs: 24.71752  Tot: -0.00000 ]
	SubspaceRotationAdjust: set factor to 0.51
ElecMinimize: Iter:   5  F: -1882.661997387296879  |grad|_K:  7.522e-04  alpha:  7.304e-02  linmin:  5.684e-04  t[s]:   1113.35
	FillingsUpdate:  mu: +0.335527865  nElectrons: 341.000000  magneticMoment: [ Abs: 26.06349  Tot: -0.00000 ]
	SubspaceRotationAdjust: set factor to 0.452
ElecMinimize: Iter:   6  F: -1884.847670080365333  |grad|_K:  5.740e-04  alpha:  1.529e-02  linmin: -1.084e-03  t[s]:   1162.26
	FillingsUpdate:  mu: +0.484670246  nElectrons: 341.000000  magneticMoment: [ Abs: 27.30093  Tot: +0.00000 ]
	SubspaceRotationAdjust: set factor to 0.442
ElecMinimize: Iter:   7  F: -1886.621451820983793  |grad|_K:  5.184e-04  alpha:  2.063e-02  linmin: -8.727e-04  t[s]:   1211.22
	FillingsUpdate:  mu: +0.386963900  nElectrons: 341.000000  magneticMoment: [ Abs: 25.83222  Tot: -0.00000 ]
	SubspaceRotationAdjust: set factor to 0.4
ElecMinimize: Iter:   8  F: -1888.251022434560355  |grad|_K:  4.797e-04  alpha:  3.343e-02  linmin:  1.117e-03  t[s]:   1260.05
	FillingsUpdate:  mu: +0.330355592  nElectrons: 341.000000  magneticMoment: [ Abs: 25.25412  Tot: -0.00000 ]
	SubspaceRotationAdjust: set factor to 0.377
ElecMinimize: Iter:   9  F: -1888.637106862231121  |grad|_K:  4.391e-04  alpha:  1.259e-02  linmin: -3.928e-04  t[s]:   1308.65
	FillingsUpdate:  mu: +0.231825095  nElectrons: 341.000000  magneticMoment: [ Abs: 24.58620  Tot: +0.00000 ]
	SubspaceRotationAdjust: set factor to 0.267
ElecMinimize: Iter:  10  F: -1889.432829205696180  |grad|_K:  4.700e-04  alpha:  2.241e-02  linmin:  8.124e-04  t[s]:   1357.17
	FillingsUpdate:  mu: +0.352261121  nElectrons: 341.000000  magneticMoment: [ Abs: 24.50315  Tot: -0.00000 ]
	SubspaceRotationAdjust: set factor to 0.173
ElecMinimize: Iter:  11  F: -1889.715686628688900  |grad|_K:  4.863e-04  alpha:  1.110e-02  linmin:  4.869e-05  t[s]:   1405.91
	FillingsUpdate:  mu: +0.318292566  nElectrons: 341.000000  magneticMoment: [ Abs: 25.84782  Tot: -0.00000 ]
	SubspaceRotationAdjust: set factor to 0.128
	SubspaceRotationAdjust: resetting CG because factor has changed by 0.12757
ElecMinimize: 	State modified externally: resetting search direction.
ElecMinimize: Iter:  12  F: -1890.351723931954893  |grad|_K:  3.365e-04  alpha:  1.781e-02
ElecMinimize: 	Predicted alpha/alphaT>3.000000, increasing alphaT to 5.343307e-02.
	FillingsUpdate:  mu: +0.181453682  nElectrons: 341.000000  magneticMoment: [ Abs: 27.14358  Tot: +0.00000 ]
	SubspaceRotationAdjust: set factor to 0.152
ElecMinimize: Iter:  13  F: -1893.264798118590079  |grad|_K:  1.251e-04  alpha:  1.272e-01  linmin: -2.477e-02  t[s]:   1538.34
	FillingsUpdate:  mu: +0.134788673  nElectrons: 341.000000  magneticMoment: [ Abs: 28.11356  Tot: +0.00000 ]
	SubspaceRotationAdjust: set factor to 0.156
ElecMinimize: Iter:  14  F: -1894.060329138987527  |grad|_K:  7.877e-05  alpha:  2.394e-01  linmin:  2.011e-03  t[s]:   1586.44
	FillingsUpdate:  mu: +0.146827139  nElectrons: 341.000000  magneticMoment: [ Abs: 28.48234  Tot: -0.00000 ]
	SubspaceRotationAdjust: set factor to 0.164
ElecMinimize: Iter:  15  F: -1894.319215889518546  |grad|_K:  6.812e-05  alpha:  2.688e-01  linmin: -1.557e-04  t[s]:   1634.64
	FillingsUpdate:  mu: +0.161527799  nElectrons: 341.000000  magneticMoment: [ Abs: 29.20021  Tot: +0.00000 ]
	SubspaceRotationAdjust: set factor to 0.197
ElecMinimize: Iter:  16  F: -1894.562148786347507  |grad|_K:  5.763e-05  alpha:  2.916e-01  linmin: -3.065e-05  t[s]:   1683.01
	FillingsUpdate:  mu: +0.146840459  nElectrons: 341.000000  magneticMoment: [ Abs: 30.13854  Tot: -0.00000 ]
	SubspaceRotationAdjust: set factor to 0.209
ElecMinimize: Iter:  17  F: -1894.738657503088007  |grad|_K:  5.569e-05  alpha:  3.010e-01  linmin: -6.095e-06  t[s]:   1730.92
	FillingsUpdate:  mu: +0.122509682  nElectrons: 341.000000  magneticMoment: [ Abs: 30.70362  Tot: -0.00000 ]
	SubspaceRotationAdjust: set factor to 0.214
ElecMinimize: Iter:  18  F: -1894.882276650337417  |grad|_K:  5.150e-05  alpha:  2.641e-01  linmin:  6.823e-06  t[s]:   1778.55
	FillingsUpdate:  mu: +0.132179486  nElectrons: 341.000000  magneticMoment: [ Abs: 31.73864  Tot: -0.00000 ]
	SubspaceRotationAdjust: set factor to 0.248
ElecMinimize: Iter:  19  F: -1895.032279555154219  |grad|_K:  4.949e-05  alpha:  3.218e-01  linmin: -3.470e-05  t[s]:   1826.02
	FillingsUpdate:  mu: +0.153941523  nElectrons: 341.000000  magneticMoment: [ Abs: 32.69646  Tot: -0.00000 ]
	SubspaceRotationAdjust: set factor to 0.267
ElecMinimize: Iter:  20  F: -1895.185318211103777  |grad|_K:  5.597e-05  alpha:  3.477e-01  linmin: -4.256e-06  t[s]:   1874.04
	FillingsUpdate:  mu: +0.137693836  nElectrons: 341.000000  magneticMoment: [ Abs: 33.08230  Tot: -0.00000 ]
	SubspaceRotationAdjust: set factor to 0.3
ElecMinimize: Iter:  21  F: -1895.287808618141298  |grad|_K:  5.030e-05  alpha:  1.313e-01  linmin: -4.716e-04  t[s]:   1921.91
	FillingsUpdate:  mu: +0.114677862  nElectrons: 341.000000  magneticMoment: [ Abs: 34.21346  Tot: -0.00000 ]
	SubspaceRotationAdjust: set factor to 0.28
ElecMinimize: Iter:  22  F: -1895.369778463746343  |grad|_K:  4.866e-05  alpha:  2.369e-01  linmin:  3.394e-03  t[s]:   1970.42
ElecMinimize: 	Bad step direction: g.d > 0.
ElecMinimize: 	Undoing step.
ElecMinimize: 	Step failed: resetting search direction.
	FillingsUpdate:  mu: +0.114677862  nElectrons: 341.000000  magneticMoment: [ Abs: 34.21346  Tot: -0.00000 ]
	SubspaceRotationAdjust: set factor to 0.395
ElecMinimize: Iter:  23  F: -1895.369778463746570  |grad|_K:  4.807e-05  alpha:  0.000e+00
	FillingsUpdate:  mu: +0.151979806  nElectrons: 341.000000  magneticMoment: [ Abs: 33.92336  Tot: -0.00000 ]
	SubspaceRotationAdjust: set factor to 0.278
ElecMinimize: Iter:  24  F: -1895.447417495306809  |grad|_K:  4.133e-05  alpha:  1.862e-01  linmin:  1.782e-03  t[s]:   2053.56
	FillingsUpdate:  mu: +0.151183432  nElectrons: 341.000000  magneticMoment: [ Abs: 34.29622  Tot: +0.00000 ]
	SubspaceRotationAdjust: set factor to 0.199
ElecMinimize: Iter:  25  F: -1895.494078937842005  |grad|_K:  4.011e-05  alpha:  1.570e-01  linmin:  1.192e-03  t[s]:   2101.72
	FillingsUpdate:  mu: +0.134744211  nElectrons: 341.000000  magneticMoment: [ Abs: 34.74711  Tot: +0.00000 ]
	SubspaceRotationAdjust: set factor to 0.153
ElecMinimize: Iter:  26  F: -1895.526698248902449  |grad|_K:  2.703e-05  alpha:  1.290e-01  linmin: -2.958e-03  t[s]:   2149.81
	FillingsUpdate:  mu: +0.125908538  nElectrons: 341.000000  magneticMoment: [ Abs: 34.96062  Tot: +0.00000 ]
	SubspaceRotationAdjust: set factor to 0.152
ElecMinimize: Iter:  27  F: -1895.571172230827415  |grad|_K:  1.935e-05  alpha:  3.170e-01  linmin:  6.610e-04  t[s]:   2198.22
	FillingsUpdate:  mu: +0.138929790  nElectrons: 341.000000  magneticMoment: [ Abs: 35.36150  Tot: +0.00000 ]
	SubspaceRotationAdjust: set factor to 0.179
ElecMinimize: Iter:  28  F: -1895.598551697236417  |grad|_K:  1.655e-05  alpha:  4.321e-01  linmin:  8.339e-04  t[s]:   2246.51
	FillingsUpdate:  mu: +0.134580753  nElectrons: 341.000000  magneticMoment: [ Abs: 35.72291  Tot: -0.00000 ]
	SubspaceRotationAdjust: set factor to 0.149
ElecMinimize: Iter:  29  F: -1895.610126996921281  |grad|_K:  1.478e-05  alpha:  2.708e-01  linmin:  1.206e-04  t[s]:   2294.68
	FillingsUpdate:  mu: +0.126214327  nElectrons: 341.000000  magneticMoment: [ Abs: 35.92651  Tot: +0.00000 ]
	SubspaceRotationAdjust: set factor to 0.114
ElecMinimize: Iter:  30  F: -1895.616394566075087  |grad|_K:  9.579e-06  alpha:  1.597e-01  linmin: -4.587e-04  t[s]:   2342.94
	FillingsUpdate:  mu: +0.127138934  nElectrons: 341.000000  magneticMoment: [ Abs: 36.14271  Tot: -0.00000 ]
	SubspaceRotationAdjust: set factor to 0.15
ElecMinimize: Iter:  31  F: -1895.622016216514112  |grad|_K:  8.336e-06  alpha:  3.390e-01  linmin: -6.862e-04  t[s]:   2391.63
	FillingsUpdate:  mu: +0.125936635  nElectrons: 341.000000  magneticMoment: [ Abs: 36.48882  Tot: -0.00000 ]
	SubspaceRotationAdjust: set factor to 0.154
ElecMinimize: Iter:  32  F: -1895.627847256222822  |grad|_K:  1.003e-05  alpha:  4.617e-01  linmin: -1.983e-04  t[s]:   2440.50
	FillingsUpdate:  mu: +0.129148258  nElectrons: 341.000000  magneticMoment: [ Abs: 36.86157  Tot: -0.00000 ]
	SubspaceRotationAdjust: set factor to 0.128
ElecMinimize: Iter:  33  F: -1895.632473176602161  |grad|_K:  1.052e-05  alpha:  2.389e-01  linmin: -4.952e-04  t[s]:   2489.32
	FillingsUpdate:  mu: +0.124475861  nElectrons: 341.000000  magneticMoment: [ Abs: 37.51390  Tot: -0.00000 ]
	SubspaceRotationAdjust: set factor to 0.142
ElecMinimize: Iter:  34  F: -1895.639111494542021  |grad|_K:  1.034e-05  alpha:  3.372e-01  linmin:  4.474e-04  t[s]:   2537.95
	FillingsUpdate:  mu: +0.123709207  nElectrons: 341.000000  magneticMoment: [ Abs: 38.15359  Tot: -0.00000 ]
	SubspaceRotationAdjust: set factor to 0.168
ElecMinimize: Iter:  35  F: -1895.645465891728463  |grad|_K:  9.627e-06  alpha:  3.550e-01  linmin: -2.371e-04  t[s]:   2586.49
	FillingsUpdate:  mu: +0.124581684  nElectrons: 341.000000  magneticMoment: [ Abs: 38.53517  Tot: +0.00000 ]
	SubspaceRotationAdjust: set factor to 0.158
ElecMinimize: Iter:  36  F: -1895.649824712376585  |grad|_K:  9.513e-06  alpha:  2.643e-01  linmin:  1.645e-06  t[s]:   2634.92
	FillingsUpdate:  mu: +0.125071811  nElectrons: 341.000000  magneticMoment: [ Abs: 38.80224  Tot: -0.00000 ]
	SubspaceRotationAdjust: set factor to 0.139
ElecMinimize: Iter:  37  F: -1895.653086757857182  |grad|_K:  8.226e-06  alpha:  2.059e-01  linmin:  2.389e-07  t[s]:   2683.05
	FillingsUpdate:  mu: +0.127170575  nElectrons: 341.000000  magneticMoment: [ Abs: 39.14253  Tot: -0.00000 ]
	SubspaceRotationAdjust: set factor to 0.169
ElecMinimize: Iter:  38  F: -1895.656719053988354  |grad|_K:  7.487e-06  alpha:  3.086e-01  linmin:  1.615e-04  t[s]:   2731.43
	FillingsUpdate:  mu: +0.129884009  nElectrons: 341.000000  magneticMoment: [ Abs: 39.43364  Tot: +0.00000 ]
	SubspaceRotationAdjust: set factor to 0.186
ElecMinimize: Iter:  39  F: -1895.659560714238523  |grad|_K:  7.666e-06  alpha:  2.956e-01  linmin: -2.212e-04  t[s]:   2779.71
	FillingsUpdate:  mu: +0.125186714  nElectrons: 341.000000  magneticMoment: [ Abs: 39.68446  Tot: -0.00000 ]
	SubspaceRotationAdjust: set factor to 0.175
ElecMinimize: Iter:  40  F: -1895.661906593162939  |grad|_K:  7.253e-06  alpha:  2.220e-01  linmin: -3.019e-05  t[s]:   2827.36
	FillingsUpdate:  mu: +0.123275360  nElectrons: 341.000000  magneticMoment: [ Abs: 39.97628  Tot: -0.00000 ]
	SubspaceRotationAdjust: set factor to 0.212
ElecMinimize: Iter:  41  F: -1895.664438761604515  |grad|_K:  6.262e-06  alpha:  2.713e-01  linmin: -3.597e-04  t[s]:   2875.29
	FillingsUpdate:  mu: +0.127068371  nElectrons: 341.000000  magneticMoment: [ Abs: 40.25463  Tot: +0.00000 ]
	SubspaceRotationAdjust: set factor to 0.241
ElecMinimize: Iter:  42  F: -1895.666812561992856  |grad|_K:  6.263e-06  alpha:  3.320e-01  linmin:  1.354e-05  t[s]:   2923.42
	FillingsUpdate:  mu: +0.127605099  nElectrons: 341.000000  magneticMoment: [ Abs: 40.53552  Tot: +0.00000 ]
	SubspaceRotationAdjust: set factor to 0.223
ElecMinimize: Iter:  43  F: -1895.668823591034197  |grad|_K:  8.083e-06  alpha:  2.909e-01  linmin:  1.560e-04  t[s]:   2971.50
	FillingsUpdate:  mu: +0.126411505  nElectrons: 341.000000  magneticMoment: [ Abs: 40.80378  Tot: +0.00000 ]
	SubspaceRotationAdjust: set factor to 0.252
ElecMinimize: Iter:  44  F: -1895.670807509220140  |grad|_K:  7.086e-06  alpha:  1.819e-01  linmin: -5.152e-05  t[s]:   3019.60
	FillingsUpdate:  mu: +0.127217447  nElectrons: 341.000000  magneticMoment: [ Abs: 41.11741  Tot: +0.00000 ]
	SubspaceRotationAdjust: set factor to 0.312
ElecMinimize: Iter:  45  F: -1895.673266004892866  |grad|_K:  7.536e-06  alpha:  2.836e-01  linmin:  3.530e-04  t[s]:   3067.77
	FillingsUpdate:  mu: +0.127738260  nElectrons: 341.000000  magneticMoment: [ Abs: 41.37100  Tot: +0.00000 ]
	SubspaceRotationAdjust: set factor to 0.293
ElecMinimize: Iter:  46  F: -1895.675075077149813  |grad|_K:  8.522e-06  alpha:  1.899e-01  linmin: -3.324e-06  t[s]:   3115.44
	FillingsUpdate:  mu: +0.126725575  nElectrons: 341.000000  magneticMoment: [ Abs: 41.58605  Tot: -0.00000 ]
	SubspaceRotationAdjust: set factor to 0.391
ElecMinimize: Iter:  47  F: -1895.677055700445180  |grad|_K:  7.317e-06  alpha:  1.570e-01  linmin: -6.316e-05  t[s]:   3163.15
	FillingsUpdate:  mu: +0.129075800  nElectrons: 341.000000  magneticMoment: [ Abs: 41.78561  Tot: +0.00000 ]
	SubspaceRotationAdjust: set factor to 0.399
ElecMinimize: Iter:  48  F: -1895.679043654266707  |grad|_K:  7.882e-06  alpha:  2.083e-01  linmin: -1.509e-04  t[s]:   3210.78
	FillingsUpdate:  mu: +0.128429639  nElectrons: 341.000000  magneticMoment: [ Abs: 41.95538  Tot: +0.00000 ]
	SubspaceRotationAdjust: set factor to 0.413
ElecMinimize: Iter:  49  F: -1895.680433570283185  |grad|_K:  7.881e-06  alpha:  1.184e-01  linmin: -1.155e-04  t[s]:   3258.77
	FillingsUpdate:  mu: +0.128201154  nElectrons: 341.000000  magneticMoment: [ Abs: 42.09706  Tot: +0.00000 ]
	SubspaceRotationAdjust: set factor to 0.514
ElecMinimize: Iter:  50  F: -1895.682154973545948  |grad|_K:  7.677e-06  alpha:  1.537e-01  linmin: -1.531e-04  t[s]:   3307.54
	FillingsUpdate:  mu: +0.132425079  nElectrons: 341.000000  magneticMoment: [ Abs: 42.14296  Tot: -0.00000 ]
	SubspaceRotationAdjust: set factor to 0.482
ElecMinimize: Iter:  51  F: -1895.683382824005776  |grad|_K:  8.453e-06  alpha:  1.172e-01  linmin: -4.704e-05  t[s]:   3355.24
	FillingsUpdate:  mu: +0.129110430  nElectrons: 341.000000  magneticMoment: [ Abs: 42.26366  Tot: -0.00000 ]
	SubspaceRotationAdjust: set factor to 0.459
ElecMinimize: Iter:  52  F: -1895.684752639096814  |grad|_K:  7.372e-06  alpha:  1.073e-01  linmin:  2.052e-04  t[s]:   3403.29
	FillingsUpdate:  mu: +0.130482363  nElectrons: 341.000000  magneticMoment: [ Abs: 42.30842  Tot: +0.00000 ]
	SubspaceRotationAdjust: set factor to 0.59
ElecMinimize: Iter:  53  F: -1895.686183816824496  |grad|_K:  7.210e-06  alpha:  1.577e-01  linmin: -9.617e-06  t[s]:   3451.51
	FillingsUpdate:  mu: +0.130878360  nElectrons: 341.000000  magneticMoment: [ Abs: 42.27871  Tot: -0.00000 ]
	SubspaceRotationAdjust: set factor to 0.529
ElecMinimize: Iter:  54  F: -1895.687395140796070  |grad|_K:  8.164e-06  alpha:  1.343e-01  linmin: -8.007e-05  t[s]:   3499.87
	FillingsUpdate:  mu: +0.129204667  nElectrons: 341.000000  magneticMoment: [ Abs: 42.30268  Tot: -0.00000 ]
	SubspaceRotationAdjust: set factor to 0.459
ElecMinimize: Iter:  55  F: -1895.688231258540782  |grad|_K:  7.150e-06  alpha:  6.863e-02  linmin: -2.178e-05  t[s]:   3548.60
	FillingsUpdate:  mu: +0.129158262  nElectrons: 341.000000  magneticMoment: [ Abs: 42.25923  Tot: +0.00000 ]
	SubspaceRotationAdjust: set factor to 0.638
ElecMinimize: Iter:  56  F: -1895.689455612093752  |grad|_K:  6.183e-06  alpha:  1.356e-01  linmin: -2.349e-05  t[s]:   3597.44
	FillingsUpdate:  mu: +0.131007475  nElectrons: 341.000000  magneticMoment: [ Abs: 42.20290  Tot: -0.00000 ]
	SubspaceRotationAdjust: set factor to 0.501
ElecMinimize: Iter:  57  F: -1895.690361687156610  |grad|_K:  7.974e-06  alpha:  1.346e-01  linmin:  4.580e-05  t[s]:   3645.65
	FillingsUpdate:  mu: +0.131955229  nElectrons: 341.000000  magneticMoment: [ Abs: 42.19899  Tot: -0.00000 ]
	SubspaceRotationAdjust: set factor to 0.5
ElecMinimize: Iter:  58  F: -1895.690995421447951  |grad|_K:  6.419e-06  alpha:  6.370e-02  linmin:  2.181e-04  t[s]:   3693.60
	FillingsUpdate:  mu: +0.130249199  nElectrons: 341.000000  magneticMoment: [ Abs: 42.10362  Tot: +0.00000 ]
	SubspaceRotationAdjust: set factor to 0.562
ElecMinimize: Iter:  59  F: -1895.691956083272316  |grad|_K:  6.011e-06  alpha:  1.420e-01  linmin:  1.755e-04  t[s]:   3742.48
	FillingsUpdate:  mu: +0.130597029  nElectrons: 341.000000  magneticMoment: [ Abs: 42.01706  Tot: -0.00000 ]
	SubspaceRotationAdjust: set factor to 0.412
ElecMinimize: Iter:  60  F: -1895.692732166425458  |grad|_K:  8.589e-06  alpha:  1.137e-01  linmin:  3.641e-04  t[s]:   3791.35
	FillingsUpdate:  mu: +0.130957912  nElectrons: 341.000000  magneticMoment: [ Abs: 41.99877  Tot: -0.00000 ]
	SubspaceRotationAdjust: set factor to 0.326
ElecMinimize: Iter:  61  F: -1895.692988556843602  |grad|_K:  7.887e-06  alpha:  1.352e-02  linmin: -2.381e-03  t[s]:   3839.73
ElecMinimize: 	Predicted alpha/alphaT>3.000000, increasing alphaT to 4.055550e-02.
	FillingsUpdate:  mu: +0.131826246  nElectrons: 341.000000  magneticMoment: [ Abs: 41.94041  Tot: +0.00000 ]
	SubspaceRotationAdjust: set factor to 0.261
ElecMinimize: Iter:  62  F: -1895.693783793157991  |grad|_K:  7.485e-06  alpha:  4.796e-02  linmin:  5.172e-04  t[s]:   3901.92
	FillingsUpdate:  mu: +0.132268131  nElectrons: 341.000000  magneticMoment: [ Abs: 41.91380  Tot: -0.00000 ]
	SubspaceRotationAdjust: set factor to 0.216
ElecMinimize: Iter:  63  F: -1895.693986819342854  |grad|_K:  7.264e-06  alpha:  2.238e-02  linmin: -1.398e-04  t[s]:   3949.83
	FillingsUpdate:  mu: +0.132597063  nElectrons: 341.000000  magneticMoment: [ Abs: 41.88644  Tot: -0.00000 ]
	SubspaceRotationAdjust: set factor to 0.181
ElecMinimize: Iter:  64  F: -1895.694254098335477  |grad|_K:  6.942e-06  alpha:  2.790e-02  linmin: -1.297e-04  t[s]:   3997.73
	FillingsUpdate:  mu: +0.133065297  nElectrons: 341.000000  magneticMoment: [ Abs: 41.85988  Tot: +0.00000 ]
	SubspaceRotationAdjust: set factor to 0.155
ElecMinimize: Iter:  65  F: -1895.694548708246884  |grad|_K:  6.566e-06  alpha:  3.365e-02  linmin: -2.101e-04  t[s]:   4045.79
	FillingsUpdate:  mu: +0.133482259  nElectrons: 341.000000  magneticMoment: [ Abs: 41.83199  Tot: -0.00000 ]
	SubspaceRotationAdjust: set factor to 0.14
ElecMinimize: Iter:  66  F: -1895.694899133028684  |grad|_K:  6.088e-06  alpha:  4.380e-02  linmin: -2.598e-04  t[s]:   4094.27
	FillingsUpdate:  mu: +0.134046487  nElectrons: 341.000000  magneticMoment: [ Abs: 41.80066  Tot: -0.00000 ]
	SubspaceRotationAdjust: set factor to 0.148
ElecMinimize: Iter:  67  F: -1895.695289099714728  |grad|_K:  5.615e-06  alpha:  5.652e-02  linmin: -1.505e-04  t[s]:   4142.77
	FillingsUpdate:  mu: +0.133269469  nElectrons: 341.000000  magneticMoment: [ Abs: 41.76482  Tot: -0.00000 ]
	SubspaceRotationAdjust: set factor to 0.179
ElecMinimize: Iter:  68  F: -1895.695646047745186  |grad|_K:  5.372e-06  alpha:  6.276e-02  linmin:  2.813e-05  t[s]:   4190.92
	FillingsUpdate:  mu: +0.132576559  nElectrons: 341.000000  magneticMoment: [ Abs: 41.72488  Tot: +0.00000 ]
	SubspaceRotationAdjust: set factor to 0.211
ElecMinimize: Iter:  69  F: -1895.695934995997504  |grad|_K:  5.324e-06  alpha:  5.753e-02  linmin:  2.928e-05  t[s]:   4239.59
	FillingsUpdate:  mu: +0.131511354  nElectrons: 341.000000  magneticMoment: [ Abs: 41.67927  Tot: +0.00000 ]
	SubspaceRotationAdjust: set factor to 0.25
ElecMinimize: Iter:  70  F: -1895.696192266289927  |grad|_K:  5.161e-06  alpha:  5.229e-02  linmin: -1.844e-05  t[s]:   4288.11
	FillingsUpdate:  mu: +0.130144040  nElectrons: 341.000000  magneticMoment: [ Abs: 41.63132  Tot: -0.00000 ]
	SubspaceRotationAdjust: set factor to 0.327
ElecMinimize: Iter:  71  F: -1895.696430685673249  |grad|_K:  4.916e-06  alpha:  5.102e-02  linmin: -5.597e-05  t[s]:   4336.44
	FillingsUpdate:  mu: +0.130076140  nElectrons: 341.000000  magneticMoment: [ Abs: 41.58675  Tot: -0.00000 ]
	SubspaceRotationAdjust: set factor to 0.406
ElecMinimize: Iter:  72  F: -1895.696659128125702  |grad|_K:  5.030e-06  alpha:  5.338e-02  linmin: -3.089e-05  t[s]:   4384.24
	FillingsUpdate:  mu: +0.132218024  nElectrons: 341.000000  magneticMoment: [ Abs: 41.55205  Tot: +0.00000 ]
	SubspaceRotationAdjust: set factor to 0.441
ElecMinimize: Iter:  73  F: -1895.696888616637352  |grad|_K:  5.351e-06  alpha:  5.148e-02  linmin:  3.512e-05  t[s]:   4431.84
	FillingsUpdate:  mu: +0.133149989  nElectrons: 341.000000  magneticMoment: [ Abs: 41.53502  Tot: -0.00000 ]
	SubspaceRotationAdjust: set factor to 0.518
ElecMinimize: Iter:  74  F: -1895.697093866720707  |grad|_K:  5.270e-06  alpha:  4.112e-02  linmin:  1.851e-05  t[s]:   4479.65
	FillingsUpdate:  mu: +0.134179300  nElectrons: 341.000000  magneticMoment: [ Abs: 41.53086  Tot: +0.00000 ]
	SubspaceRotationAdjust: set factor to 0.528
ElecMinimize: Iter:  75  F: -1895.697279779385326  |grad|_K:  5.643e-06  alpha:  3.843e-02  linmin:  2.371e-05  t[s]:   4527.89
	FillingsUpdate:  mu: +0.135257283  nElectrons: 341.000000  magneticMoment: [ Abs: 41.52869  Tot: +0.00000 ]
	SubspaceRotationAdjust: set factor to 0.443
ElecMinimize: Iter:  76  F: -1895.697501007690789  |grad|_K:  6.464e-06  alpha:  4.005e-02  linmin:  1.141e-05  t[s]:   4576.31
	FillingsUpdate:  mu: +0.133858863  nElectrons: 341.000000  magneticMoment: [ Abs: 41.51887  Tot: -0.00000 ]
	SubspaceRotationAdjust: set factor to 0.526
ElecMinimize: Iter:  77  F: -1895.697747253163243  |grad|_K:  5.700e-06  alpha:  3.389e-02  linmin: -7.385e-06  t[s]:   4624.21
	FillingsUpdate:  mu: +0.131378217  nElectrons: 341.000000  magneticMoment: [ Abs: 41.50534  Tot: +0.00000 ]
	SubspaceRotationAdjust: set factor to 0.644
ElecMinimize: Iter:  78  F: -1895.697934533809757  |grad|_K:  5.032e-06  alpha:  3.289e-02  linmin: -2.482e-05  t[s]:   4672.21
	FillingsUpdate:  mu: +0.130896712  nElectrons: 341.000000  magneticMoment: [ Abs: 41.49113  Tot: -0.00000 ]
	SubspaceRotationAdjust: set factor to 0.702
ElecMinimize: Iter:  79  F: -1895.698123584506448  |grad|_K:  5.881e-06  alpha:  4.198e-02  linmin: -4.732e-05  t[s]:   4720.02
	FillingsUpdate:  mu: +0.130433775  nElectrons: 341.000000  magneticMoment: [ Abs: 41.48080  Tot: +0.00000 ]
	SubspaceRotationAdjust: set factor to 0.624
ElecMinimize: Iter:  80  F: -1895.698416626084509  |grad|_K:  6.283e-06  alpha:  4.742e-02  linmin: -5.966e-06  t[s]:   4767.37
	FillingsUpdate:  mu: +0.129519089  nElectrons: 341.000000  magneticMoment: [ Abs: 41.48221  Tot: +0.00000 ]
	SubspaceRotationAdjust: set factor to 0.914
ElecMinimize: Iter:  81  F: -1895.698621383798354  |grad|_K:  4.919e-06  alpha:  2.910e-02  linmin: -8.812e-06  t[s]:   4815.18
	FillingsUpdate:  mu: +0.131146590  nElectrons: 341.000000  magneticMoment: [ Abs: 41.48557  Tot: -0.00000 ]
	SubspaceRotationAdjust: set factor to 1.02
	SubspaceRotationAdjust: resetting CG because factor has changed by 8.02853
ElecMinimize: 	State modified externally: resetting search direction.
ElecMinimize: Iter:  82  F: -1895.698768554043227  |grad|_K:  5.442e-06  alpha:  3.485e-02
	FillingsUpdate:  mu: +0.132977790  nElectrons: 341.000000  magneticMoment: [ Abs: 41.47905  Tot: -0.00000 ]
	SubspaceRotationAdjust: set factor to 0.683
ElecMinimize: Iter:  83  F: -1895.699063765105393  |grad|_K:  6.935e-06  alpha:  5.604e-02  linmin: -6.056e-04  t[s]:   4932.45
	FillingsUpdate:  mu: +0.131234038  nElectrons: 341.000000  magneticMoment: [ Abs: 41.55520  Tot: +0.00000 ]
	SubspaceRotationAdjust: set factor to 0.404
ElecMinimize: Iter:  84  F: -1895.700320733305034  |grad|_K:  3.733e-06  alpha:  1.447e-01  linmin:  1.751e-04  t[s]:   4980.54
	FillingsUpdate:  mu: +0.133537208  nElectrons: 341.000000  magneticMoment: [ Abs: 41.59422  Tot: -0.00000 ]
	SubspaceRotationAdjust: set factor to 0.28
ElecMinimize: Iter:  85  F: -1895.700712529969906  |grad|_K:  4.430e-06  alpha:  1.619e-01  linmin: -4.497e-04  t[s]:   5028.36
	FillingsUpdate:  mu: +0.131097140  nElectrons: 341.000000  magneticMoment: [ Abs: 41.67446  Tot: +0.00000 ]
	SubspaceRotationAdjust: set factor to 0.227
ElecMinimize: Iter:  86  F: -1895.701177474089945  |grad|_K:  2.467e-06  alpha:  1.304e-01  linmin:  3.658e-06  t[s]:   5076.39
	FillingsUpdate:  mu: +0.131399146  nElectrons: 341.000000  magneticMoment: [ Abs: 41.71426  Tot: -0.00000 ]
	SubspaceRotationAdjust: set factor to 0.224
ElecMinimize: Iter:  87  F: -1895.701536786052884  |grad|_K:  1.935e-06  alpha:  3.389e-01  linmin:  8.645e-05  t[s]:   5124.45
	FillingsUpdate:  mu: +0.131089185  nElectrons: 341.000000  magneticMoment: [ Abs: 41.74022  Tot: +0.00000 ]
	SubspaceRotationAdjust: set factor to 0.162
ElecMinimize: Iter:  88  F: -1895.701701542857336  |grad|_K:  1.775e-06  alpha:  2.576e-01  linmin: -2.110e-04  t[s]:   5172.55
	FillingsUpdate:  mu: +0.131034402  nElectrons: 341.000000  magneticMoment: [ Abs: 41.78642  Tot: -0.00000 ]
	SubspaceRotationAdjust: set factor to 0.15
ElecMinimize: Iter:  89  F: -1895.701819216435752  |grad|_K:  1.082e-06  alpha:  2.116e-01  linmin: -2.743e-05  t[s]:   5221.25
	FillingsUpdate:  mu: +0.131189865  nElectrons: 341.000000  magneticMoment: [ Abs: 41.81208  Tot: -0.00000 ]
	SubspaceRotationAdjust: set factor to 0.178
ElecMinimize: Iter:  90  F: -1895.701884975971097  |grad|_K:  8.277e-07  alpha:  3.203e-01  linmin: -5.573e-05  t[s]:   5269.23
	FillingsUpdate:  mu: +0.131195464  nElectrons: 341.000000  magneticMoment: [ Abs: 41.82590  Tot: -0.00000 ]
	SubspaceRotationAdjust: set factor to 0.167
ElecMinimize: Iter:  91  F: -1895.701927102660193  |grad|_K:  7.892e-07  alpha:  3.506e-01  linmin: -2.032e-04  t[s]:   5316.54
	FillingsUpdate:  mu: +0.131077015  nElectrons: 341.000000  magneticMoment: [ Abs: 41.84977  Tot: -0.00000 ]
	SubspaceRotationAdjust: set factor to 0.168
ElecMinimize: Iter:  92  F: -1895.701962133946836  |grad|_K:  6.239e-07  alpha:  3.190e-01  linmin:  2.506e-05  t[s]:   5364.10
	FillingsUpdate:  mu: +0.131054725  nElectrons: 341.000000  magneticMoment: [ Abs: 41.87032  Tot: -0.00000 ]
	SubspaceRotationAdjust: set factor to 0.203
ElecMinimize: Iter:  93  F: -1895.701991197369580  |grad|_K:  6.070e-07  alpha:  4.274e-01  linmin: -1.753e-06  t[s]:   5411.76
	FillingsUpdate:  mu: +0.131124796  nElectrons: 341.000000  magneticMoment: [ Abs: 41.88419  Tot: -0.00000 ]
	SubspaceRotationAdjust: set factor to 0.202
ElecMinimize: Iter:  94  F: -1895.702015678331918  |grad|_K:  6.349e-07  alpha:  3.806e-01  linmin: -7.412e-05  t[s]:   5459.53
	FillingsUpdate:  mu: +0.131259309  nElectrons: 341.000000  magneticMoment: [ Abs: 41.90711  Tot: -0.00000 ]
	SubspaceRotationAdjust: set factor to 0.194
ElecMinimize: Iter:  95  F: -1895.702042748364875  |grad|_K:  6.079e-07  alpha:  3.819e-01  linmin:  2.444e-05  t[s]:   5507.36
	FillingsUpdate:  mu: +0.131075999  nElectrons: 341.000000  magneticMoment: [ Abs: 41.92441  Tot: -0.00000 ]
	SubspaceRotationAdjust: set factor to 0.209
ElecMinimize: Iter:  96  F: -1895.702068452063713  |grad|_K:  5.847e-07  alpha:  3.986e-01  linmin: -2.464e-05  t[s]:   5555.32
	FillingsUpdate:  mu: +0.131061373  nElectrons: 341.000000  magneticMoment: [ Abs: 41.94166  Tot: -0.00000 ]
	SubspaceRotationAdjust: set factor to 0.23
ElecMinimize: Iter:  97  F: -1895.702093331047763  |grad|_K:  5.780e-07  alpha:  4.149e-01  linmin: -5.473e-06  t[s]:   5603.00
	FillingsUpdate:  mu: +0.131270652  nElectrons: 341.000000  magneticMoment: [ Abs: 41.95772  Tot: +0.00000 ]
	SubspaceRotationAdjust: set factor to 0.233
ElecMinimize: Iter:  98  F: -1895.702114645943539  |grad|_K:  5.404e-07  alpha:  3.644e-01  linmin:  9.736e-06  t[s]:   5650.68
	FillingsUpdate:  mu: +0.131186273  nElectrons: 341.000000  magneticMoment: [ Abs: 41.96397  Tot: +0.00000 ]
	SubspaceRotationAdjust: set factor to 0.219
ElecMinimize: Iter:  99  F: -1895.702131758486303  |grad|_K:  5.006e-07  alpha:  3.357e-01  linmin: -2.805e-05  t[s]:   5698.34
	FillingsUpdate:  mu: +0.131251118  nElectrons: 341.000000  magneticMoment: [ Abs: 41.97531  Tot: +0.00000 ]
	SubspaceRotationAdjust: set factor to 0.223
ElecMinimize: Iter: 100  F: -1895.702147701135345  |grad|_K:  4.828e-07  alpha:  3.626e-01  linmin: -2.329e-06  t[s]:   5746.66
	FillingsUpdate:  mu: +0.131272311  nElectrons: 341.000000  magneticMoment: [ Abs: 41.98129  Tot: +0.00000 ]
	SubspaceRotationAdjust: set factor to 0.26
ElecMinimize: Iter: 101  F: -1895.702163771232563  |grad|_K:  4.591e-07  alpha:  3.941e-01  linmin:  9.484e-07  t[s]:   5795.14
	FillingsUpdate:  mu: +0.131222242  nElectrons: 341.000000  magneticMoment: [ Abs: 41.98307  Tot: -0.00000 ]
	SubspaceRotationAdjust: set factor to 0.284
ElecMinimize: Iter: 102  F: -1895.702181409741797  |grad|_K:  5.294e-07  alpha:  4.786e-01  linmin:  7.610e-06  t[s]:   5843.40
	FillingsUpdate:  mu: +0.131379531  nElectrons: 341.000000  magneticMoment: [ Abs: 41.98834  Tot: +0.00000 ]
	SubspaceRotationAdjust: set factor to 0.265
ElecMinimize: Iter: 103  F: -1895.702200271715810  |grad|_K:  6.331e-07  alpha:  3.853e-01  linmin: -3.006e-06  t[s]:   5891.63
	FillingsUpdate:  mu: +0.131234437  nElectrons: 341.000000  magneticMoment: [ Abs: 41.98253  Tot: -0.00000 ]
	SubspaceRotationAdjust: set factor to 0.228
ElecMinimize: Iter: 104  F: -1895.702222217695180  |grad|_K:  6.413e-07  alpha:  3.127e-01  linmin:  8.960e-06  t[s]:   5939.55
	FillingsUpdate:  mu: +0.131159545  nElectrons: 341.000000  magneticMoment: [ Abs: 41.98217  Tot: +0.00000 ]
	SubspaceRotationAdjust: set factor to 0.239
ElecMinimize: Iter: 105  F: -1895.702252270999452  |grad|_K:  6.622e-07  alpha:  4.184e-01  linmin:  1.205e-06  t[s]:   5987.22
	FillingsUpdate:  mu: +0.131217789  nElectrons: 341.000000  magneticMoment: [ Abs: 41.97681  Tot: -0.00000 ]
	SubspaceRotationAdjust: set factor to 0.264
ElecMinimize: Iter: 106  F: -1895.702285574515145  |grad|_K:  6.728e-07  alpha:  4.344e-01  linmin:  8.249e-06  t[s]:   6035.63
	FillingsUpdate:  mu: +0.131147853  nElectrons: 341.000000  magneticMoment: [ Abs: 41.96275  Tot: -0.00000 ]
	SubspaceRotationAdjust: set factor to 0.261
ElecMinimize: Iter: 107  F: -1895.702315206436424  |grad|_K:  6.870e-07  alpha:  3.746e-01  linmin:  6.656e-06  t[s]:   6083.94
	FillingsUpdate:  mu: +0.131255516  nElectrons: 341.000000  magneticMoment: [ Abs: 41.95799  Tot: +0.00000 ]
	SubspaceRotationAdjust: set factor to 0.227
ElecMinimize: Iter: 108  F: -1895.702339741397964  |grad|_K:  6.885e-07  alpha:  2.968e-01  linmin:  1.644e-05  t[s]:   6131.69
	FillingsUpdate:  mu: +0.131174534  nElectrons: 341.000000  magneticMoment: [ Abs: 41.94404  Tot: -0.00000 ]
	SubspaceRotationAdjust: set factor to 0.225
ElecMinimize: Iter: 109  F: -1895.702367450096290  |grad|_K:  6.296e-07  alpha:  3.349e-01  linmin:  5.027e-06  t[s]:   6179.72
	FillingsUpdate:  mu: +0.131079432  nElectrons: 341.000000  magneticMoment: [ Abs: 41.93381  Tot: +0.00000 ]
	SubspaceRotationAdjust: set factor to 0.259
ElecMinimize: Iter: 110  F: -1895.702395551122436  |grad|_K:  5.926e-07  alpha:  4.057e-01  linmin:  6.850e-06  t[s]:   6227.74
	FillingsUpdate:  mu: +0.131174490  nElectrons: 341.000000  magneticMoment: [ Abs: 41.92527  Tot: +0.00000 ]
	SubspaceRotationAdjust: set factor to 0.27
ElecMinimize: Iter: 111  F: -1895.702418784686415  |grad|_K:  6.169e-07  alpha:  3.786e-01  linmin:  1.567e-05  t[s]:   6275.25
	FillingsUpdate:  mu: +0.131166478  nElectrons: 341.000000  magneticMoment: [ Abs: 41.91212  Tot: -0.00000 ]
	SubspaceRotationAdjust: set factor to 0.234
ElecMinimize: Iter: 112  F: -1895.702437858496069  |grad|_K:  6.180e-07  alpha:  2.871e-01  linmin:  1.898e-06  t[s]:   6322.89
	FillingsUpdate:  mu: +0.131200272  nElectrons: 341.000000  magneticMoment: [ Abs: 41.90898  Tot: +0.00000 ]
	SubspaceRotationAdjust: set factor to 0.227
ElecMinimize: Iter: 113  F: -1895.702458554475470  |grad|_K:  5.809e-07  alpha:  3.100e-01  linmin:  1.427e-05  t[s]:   6370.77
	FillingsUpdate:  mu: +0.131103365  nElectrons: 341.000000  magneticMoment: [ Abs: 41.90120  Tot: -0.00000 ]
	SubspaceRotationAdjust: set factor to 0.261
ElecMinimize: Iter: 114  F: -1895.702484082546107  |grad|_K:  6.041e-07  alpha:  4.338e-01  linmin:  3.281e-06  t[s]:   6418.97
	FillingsUpdate:  mu: +0.131077731  nElectrons: 341.000000  magneticMoment: [ Abs: 41.89043  Tot: +0.00000 ]
	SubspaceRotationAdjust: set factor to 0.279
ElecMinimize: Iter: 115  F: -1895.702512504161632  |grad|_K:  6.941e-07  alpha:  4.457e-01  linmin:  5.948e-06  t[s]:   6467.35
	FillingsUpdate:  mu: +0.131169415  nElectrons: 341.000000  magneticMoment: [ Abs: 41.89036  Tot: +0.00000 ]
	SubspaceRotationAdjust: set factor to 0.246
ElecMinimize: Iter: 116  F: -1895.702540836342450  |grad|_K:  8.322e-07  alpha:  3.360e-01  linmin:  4.301e-06  t[s]:   6515.10
	FillingsUpdate:  mu: +0.131011190  nElectrons: 341.000000  magneticMoment: [ Abs: 41.88216  Tot: -0.00000 ]
	SubspaceRotationAdjust: set factor to 0.216
ElecMinimize: Iter: 117  F: -1895.702576009390896  |grad|_K:  8.029e-07  alpha:  2.905e-01  linmin:  5.137e-06  t[s]:   6562.61
	FillingsUpdate:  mu: +0.131006600  nElectrons: 341.000000  magneticMoment: [ Abs: 41.88108  Tot: +0.00000 ]
	SubspaceRotationAdjust: set factor to 0.243
ElecMinimize: Iter: 118  F: -1895.702625908799519  |grad|_K:  8.404e-07  alpha:  4.440e-01  linmin:  1.937e-05  t[s]:   6610.10
	FillingsUpdate:  mu: +0.131109869  nElectrons: 341.000000  magneticMoment: [ Abs: 41.88139  Tot: +0.00000 ]
	SubspaceRotationAdjust: set factor to 0.256
ElecMinimize: Iter: 119  F: -1895.702678288332208  |grad|_K:  9.226e-07  alpha:  4.260e-01  linmin:  8.622e-06  t[s]:   6657.79
	FillingsUpdate:  mu: +0.131074942  nElectrons: 341.000000  magneticMoment: [ Abs: 41.87551  Tot: +0.00000 ]
	SubspaceRotationAdjust: set factor to 0.229
ElecMinimize: Iter: 120  F: -1895.702724474919023  |grad|_K:  9.689e-07  alpha:  3.097e-01  linmin:  4.106e-06  t[s]:   6705.70
	FillingsUpdate:  mu: +0.131077975  nElectrons: 341.000000  magneticMoment: [ Abs: 41.88445  Tot: +0.00000 ]
	SubspaceRotationAdjust: set factor to 0.221
ElecMinimize: Iter: 121  F: -1895.702772435260158  |grad|_K:  8.745e-07  alpha:  2.924e-01  linmin: -6.516e-06  t[s]:   6754.46
	FillingsUpdate:  mu: +0.131068355  nElectrons: 341.000000  magneticMoment: [ Abs: 41.88936  Tot: +0.00000 ]
	SubspaceRotationAdjust: set factor to 0.264
ElecMinimize: Iter: 122  F: -1895.702821849145494  |grad|_K:  8.183e-07  alpha:  3.697e-01  linmin:  3.354e-05  t[s]:   6802.28
	FillingsUpdate:  mu: +0.130999276  nElectrons: 341.000000  magneticMoment: [ Abs: 41.89254  Tot: -0.00000 ]
	SubspaceRotationAdjust: set factor to 0.292
ElecMinimize: Iter: 123  F: -1895.702864144617706  |grad|_K:  8.487e-07  alpha:  3.634e-01  linmin:  2.610e-05  t[s]:   6850.86
	FillingsUpdate:  mu: +0.131077378  nElectrons: 341.000000  magneticMoment: [ Abs: 41.90574  Tot: +0.00000 ]
	SubspaceRotationAdjust: set factor to 0.277
ElecMinimize: Iter: 124  F: -1895.702898993042254  |grad|_K:  8.860e-07  alpha:  2.784e-01  linmin: -5.228e-06  t[s]:   6898.95
	FillingsUpdate:  mu: +0.131050785  nElectrons: 341.000000  magneticMoment: [ Abs: 41.91096  Tot: -0.00000 ]
	SubspaceRotationAdjust: set factor to 0.293
ElecMinimize: Iter: 125  F: -1895.702939312650415  |grad|_K:  8.185e-07  alpha:  2.934e-01  linmin:  8.634e-06  t[s]:   6947.24
	FillingsUpdate:  mu: +0.131083228  nElectrons: 341.000000  magneticMoment: [ Abs: 41.92296  Tot: +0.00000 ]
	SubspaceRotationAdjust: set factor to 0.355
ElecMinimize: Iter: 126  F: -1895.702984567598605  |grad|_K:  8.013e-07  alpha:  3.873e-01  linmin:  6.100e-06  t[s]:   6995.94
	FillingsUpdate:  mu: +0.131086079  nElectrons: 341.000000  magneticMoment: [ Abs: 41.93518  Tot: +0.00000 ]
	SubspaceRotationAdjust: set factor to 0.415
ElecMinimize: Iter: 127  F: -1895.703029138233887  |grad|_K:  8.398e-07  alpha:  3.976e-01  linmin:  1.684e-06  t[s]:   7044.14
	FillingsUpdate:  mu: +0.131113789  nElectrons: 341.000000  magneticMoment: [ Abs: 41.93806  Tot: -0.00000 ]
	SubspaceRotationAdjust: set factor to 0.378
ElecMinimize: Iter: 128  F: -1895.703065652213581  |grad|_K:  9.846e-07  alpha:  2.959e-01  linmin:  1.081e-06  t[s]:   7091.99
	FillingsUpdate:  mu: +0.131137394  nElectrons: 341.000000  magneticMoment: [ Abs: 41.95087  Tot: -0.00000 ]
	SubspaceRotationAdjust: set factor to 0.315
ElecMinimize: Iter: 129  F: -1895.703094789944316  |grad|_K:  8.507e-07  alpha:  1.733e-01  linmin:  9.341e-06  t[s]:   7139.34
	FillingsUpdate:  mu: +0.131080494  nElectrons: 341.000000  magneticMoment: [ Abs: 41.95460  Tot: +0.00000 ]
	SubspaceRotationAdjust: set factor to 0.365
ElecMinimize: Iter: 130  F: -1895.703131098426638  |grad|_K:  7.063e-07  alpha:  2.880e-01  linmin:  1.552e-05  t[s]:   7187.30
	FillingsUpdate:  mu: +0.131117312  nElectrons: 341.000000  magneticMoment: [ Abs: 41.96039  Tot: +0.00000 ]
	SubspaceRotationAdjust: set factor to 0.442
ElecMinimize: Iter: 131  F: -1895.703160794608721  |grad|_K:  6.454e-07  alpha:  3.416e-01  linmin:  5.934e-06  t[s]:   7235.53
	FillingsUpdate:  mu: +0.131168290  nElectrons: 341.000000  magneticMoment: [ Abs: 41.96798  Tot: -0.00000 ]
	SubspaceRotationAdjust: set factor to 0.383
ElecMinimize: Iter: 132  F: -1895.703181893386954  |grad|_K:  7.308e-07  alpha:  2.903e-01  linmin: -1.257e-05  t[s]:   7284.06
	FillingsUpdate:  mu: +0.131159577  nElectrons: 341.000000  magneticMoment: [ Abs: 41.96419  Tot: +0.00000 ]
	SubspaceRotationAdjust: set factor to 0.321
ElecMinimize: Iter: 133  F: -1895.703196645798016  |grad|_K:  6.164e-07  alpha:  1.574e-01  linmin: -3.268e-06  t[s]:   7332.72
	FillingsUpdate:  mu: +0.131202590  nElectrons: 341.000000  magneticMoment: [ Abs: 41.96658  Tot: +0.00000 ]
	SubspaceRotationAdjust: set factor to 0.409
ElecMinimize: Iter: 134  F: -1895.703215143991883  |grad|_K:  5.030e-07  alpha:  2.778e-01  linmin: -1.265e-05  t[s]:   7381.33
	FillingsUpdate:  mu: +0.131096351  nElectrons: 341.000000  magneticMoment: [ Abs: 41.96918  Tot: +0.00000 ]
	SubspaceRotationAdjust: set factor to 0.443
ElecMinimize: Iter: 135  F: -1895.703229259975842  |grad|_K:  5.116e-07  alpha:  3.179e-01  linmin: -7.356e-06  t[s]:   7429.24
	FillingsUpdate:  mu: +0.131124121  nElectrons: 341.000000  magneticMoment: [ Abs: 41.96543  Tot: +0.00000 ]
	SubspaceRotationAdjust: set factor to 0.391
ElecMinimize: Iter: 136  F: -1895.703237627252975  |grad|_K:  5.276e-07  alpha:  1.818e-01  linmin: -5.214e-06  t[s]:   7477.20
	FillingsUpdate:  mu: +0.131182134  nElectrons: 341.000000  magneticMoment: [ Abs: 41.96681  Tot: +0.00000 ]
	SubspaceRotationAdjust: set factor to 0.43
ElecMinimize: Iter: 137  F: -1895.703247897878782  |grad|_K:  4.149e-07  alpha:  2.106e-01  linmin: -6.655e-06  t[s]:   7525.21
	FillingsUpdate:  mu: +0.131047640  nElectrons: 341.000000  magneticMoment: [ Abs: 41.96442  Tot: -0.00000 ]
	SubspaceRotationAdjust: set factor to 0.519
ElecMinimize: Iter: 138  F: -1895.703258028820755  |grad|_K:  4.025e-07  alpha:  3.359e-01  linmin:  9.924e-07  t[s]:   7573.14
	FillingsUpdate:  mu: +0.131209032  nElectrons: 341.000000  magneticMoment: [ Abs: 41.96154  Tot: -0.00000 ]
	SubspaceRotationAdjust: set factor to 0.427
ElecMinimize: Iter: 139  F: -1895.703265308111668  |grad|_K:  4.723e-07  alpha:  2.565e-01  linmin:  5.979e-06  t[s]:   7621.03
	FillingsUpdate:  mu: +0.131132219  nElectrons: 341.000000  magneticMoment: [ Abs: 41.96254  Tot: +0.00000 ]
	SubspaceRotationAdjust: set factor to 0.37
ElecMinimize: Iter: 140  F: -1895.703271106348893  |grad|_K:  4.094e-07  alpha:  1.489e-01  linmin:  6.440e-07  t[s]:   7668.94
	FillingsUpdate:  mu: +0.130974322  nElectrons: 341.000000  magneticMoment: [ Abs: 41.95754  Tot: -0.00000 ]
	SubspaceRotationAdjust: set factor to 0.388
ElecMinimize: Iter: 141  F: -1895.703277889935862  |grad|_K:  3.739e-07  alpha:  2.315e-01  linmin:  3.821e-06  t[s]:   7716.42
	FillingsUpdate:  mu: +0.131204365  nElectrons: 341.000000  magneticMoment: [ Abs: 41.95543  Tot: +0.00000 ]
	SubspaceRotationAdjust: set factor to 0.397
ElecMinimize: Iter: 142  F: -1895.703284015865165  |grad|_K:  3.482e-07  alpha:  2.508e-01  linmin:  1.252e-05  t[s]:   7764.37
	FillingsUpdate:  mu: +0.131122900  nElectrons: 341.000000  magneticMoment: [ Abs: 41.95515  Tot: +0.00000 ]
	SubspaceRotationAdjust: set factor to 0.381
ElecMinimize: Iter: 143  F: -1895.703289325985452  |grad|_K:  3.670e-07  alpha:  2.510e-01  linmin: -1.718e-06  t[s]:   7812.54
	FillingsUpdate:  mu: +0.131007052  nElectrons: 341.000000  magneticMoment: [ Abs: 41.95081  Tot: +0.00000 ]
	SubspaceRotationAdjust: set factor to 0.337
ElecMinimize: Iter: 144  F: -1895.703293460862142  |grad|_K:  3.332e-07  alpha:  1.755e-01  linmin:  9.379e-08  t[s]:   7860.16
	FillingsUpdate:  mu: +0.131130462  nElectrons: 341.000000  magneticMoment: [ Abs: 41.94927  Tot: -0.00000 ]
	SubspaceRotationAdjust: set factor to 0.413
ElecMinimize: Iter: 145  F: -1895.703298618690724  |grad|_K:  2.869e-07  alpha:  2.659e-01  linmin:  8.091e-06  t[s]:   7907.62
	FillingsUpdate:  mu: +0.131127404  nElectrons: 341.000000  magneticMoment: [ Abs: 41.94911  Tot: +0.00000 ]
	SubspaceRotationAdjust: set factor to 0.376
ElecMinimize: Iter: 146  F: -1895.703303043405185  |grad|_K:  3.251e-07  alpha:  3.082e-01  linmin:  3.070e-06  t[s]:   7955.61
	FillingsUpdate:  mu: +0.131070736  nElectrons: 341.000000  magneticMoment: [ Abs: 41.94589  Tot: -0.00000 ]
	SubspaceRotationAdjust: set factor to 0.319
ElecMinimize: Iter: 147  F: -1895.703305864000413  |grad|_K:  2.891e-07  alpha:  1.529e-01  linmin:  3.195e-06  t[s]:   8002.99
	FillingsUpdate:  mu: +0.131107888  nElectrons: 341.000000  magneticMoment: [ Abs: 41.94493  Tot: +0.00000 ]
	SubspaceRotationAdjust: set factor to 0.431
ElecMinimize: Iter: 148  F: -1895.703309977391427  |grad|_K:  2.444e-07  alpha:  2.817e-01  linmin:  4.382e-06  t[s]:   8051.12
	FillingsUpdate:  mu: +0.131166489  nElectrons: 341.000000  magneticMoment: [ Abs: 41.94541  Tot: -0.00000 ]
	SubspaceRotationAdjust: set factor to 0.359
ElecMinimize: Iter: 149  F: -1895.703312987019672  |grad|_K:  2.913e-07  alpha:  2.885e-01  linmin:  3.197e-06  t[s]:   8099.26
	FillingsUpdate:  mu: +0.131126565  nElectrons: 341.000000  magneticMoment: [ Abs: 41.94310  Tot: -0.00000 ]
	SubspaceRotationAdjust: set factor to 0.307
ElecMinimize: Iter: 150  F: -1895.703315113442159  |grad|_K:  2.371e-07  alpha:  1.437e-01  linmin:  5.494e-06  t[s]:   8146.77
	FillingsUpdate:  mu: +0.131087317  nElectrons: 341.000000  magneticMoment: [ Abs: 41.94302  Tot: +0.00000 ]
	SubspaceRotationAdjust: set factor to 0.419
ElecMinimize: Iter: 151  F: -1895.703318058413515  |grad|_K:  2.148e-07  alpha:  2.997e-01  linmin: -1.917e-06  t[s]:   8194.15
	FillingsUpdate:  mu: +0.131170104  nElectrons: 341.000000  magneticMoment: [ Abs: 41.94417  Tot: -0.00000 ]
	SubspaceRotationAdjust: set factor to 0.352
ElecMinimize: Iter: 152  F: -1895.703320046201043  |grad|_K:  2.461e-07  alpha:  2.461e-01  linmin:  2.585e-06  t[s]:   8242.34
	FillingsUpdate:  mu: +0.131171318  nElectrons: 341.000000  magneticMoment: [ Abs: 41.94233  Tot: +0.00000 ]
	SubspaceRotationAdjust: set factor to 0.331
ElecMinimize: Iter: 153  F: -1895.703321798956722  |grad|_K:  1.973e-07  alpha:  1.656e-01  linmin: -1.214e-07  t[s]:   8290.00
	FillingsUpdate:  mu: +0.131105557  nElectrons: 341.000000  magneticMoment: [ Abs: 41.94239  Tot: +0.00000 ]
	SubspaceRotationAdjust: set factor to 0.399
ElecMinimize: Iter: 154  F: -1895.703323855970666  |grad|_K:  1.877e-07  alpha:  3.022e-01  linmin: -1.402e-06  t[s]:   8337.50
	FillingsUpdate:  mu: +0.131204194  nElectrons: 341.000000  magneticMoment: [ Abs: 41.94383  Tot: -0.00000 ]
	SubspaceRotationAdjust: set factor to 0.375
ElecMinimize: Iter: 155  F: -1895.703325441996185  |grad|_K:  2.029e-07  alpha:  2.573e-01  linmin:  3.440e-07  t[s]:   8385.26
	FillingsUpdate:  mu: +0.131208715  nElectrons: 341.000000  magneticMoment: [ Abs: 41.94267  Tot: -0.00000 ]
	SubspaceRotationAdjust: set factor to 0.351
ElecMinimize: Iter: 156  F: -1895.703326764592930  |grad|_K:  1.877e-07  alpha:  1.837e-01  linmin:  1.254e-08  t[s]:   8432.49
	FillingsUpdate:  mu: +0.131123830  nElectrons: 341.000000  magneticMoment: [ Abs: 41.94316  Tot: +0.00000 ]
	SubspaceRotationAdjust: set factor to 0.385
ElecMinimize: Iter: 157  F: -1895.703328360658134  |grad|_K:  1.763e-07  alpha:  2.590e-01  linmin: -1.194e-06  t[s]:   8480.84
	FillingsUpdate:  mu: +0.131217351  nElectrons: 341.000000  magneticMoment: [ Abs: 41.94446  Tot: -0.00000 ]
	SubspaceRotationAdjust: set factor to 0.425
ElecMinimize: Iter: 158  F: -1895.703329981480920  |grad|_K:  1.895e-07  alpha:  2.980e-01  linmin: -1.538e-06  t[s]:   8529.33
	FillingsUpdate:  mu: +0.131211876  nElectrons: 341.000000  magneticMoment: [ Abs: 41.94355  Tot: -0.00000 ]
	SubspaceRotationAdjust: set factor to 0.373
ElecMinimize: Iter: 159  F: -1895.703331289415246  |grad|_K:  2.129e-07  alpha:  2.081e-01  linmin:  2.755e-07  t[s]:   8578.07
	FillingsUpdate:  mu: +0.131145454  nElectrons: 341.000000  magneticMoment: [ Abs: 41.94488  Tot: -0.00000 ]
	SubspaceRotationAdjust: set factor to 0.385
ElecMinimize: Iter: 160  F: -1895.703333019759839  |grad|_K:  1.912e-07  alpha:  2.182e-01  linmin: -3.452e-06  t[s]:   8626.21
	FillingsUpdate:  mu: +0.131236173  nElectrons: 341.000000  magneticMoment: [ Abs: 41.94574  Tot: +0.00000 ]
	SubspaceRotationAdjust: set factor to 0.447
ElecMinimize: Iter: 161  F: -1895.703335302162031  |grad|_K:  2.144e-07  alpha:  3.567e-01  linmin:  8.234e-07  t[s]:   8674.41
	FillingsUpdate:  mu: +0.131188175  nElectrons: 341.000000  magneticMoment: [ Abs: 41.94467  Tot: +0.00000 ]
	SubspaceRotationAdjust: set factor to 0.376
ElecMinimize: Iter: 162  F: -1895.703337299280975  |grad|_K:  2.681e-07  alpha:  2.483e-01  linmin:  1.700e-07  t[s]:   8722.72
	FillingsUpdate:  mu: +0.131149288  nElectrons: 341.000000  magneticMoment: [ Abs: 41.94684  Tot: +0.00000 ]
	SubspaceRotationAdjust: set factor to 0.35
ElecMinimize: Iter: 163  F: -1895.703339599803485  |grad|_K:  2.388e-07  alpha:  1.833e-01  linmin: -2.531e-06  t[s]:   8770.34
	FillingsUpdate:  mu: +0.131257418  nElectrons: 341.000000  magneticMoment: [ Abs: 41.94708  Tot: +0.00000 ]
	SubspaceRotationAdjust: set factor to 0.415
ElecMinimize: Iter: 164  F: -1895.703343088621978  |grad|_K:  2.540e-07  alpha:  3.500e-01  linmin:  9.706e-06  t[s]:   8817.78
	FillingsUpdate:  mu: +0.131162279  nElectrons: 341.000000  magneticMoment: [ Abs: 41.94528  Tot: +0.00000 ]
	SubspaceRotationAdjust: set factor to 0.377
ElecMinimize: Iter: 165  F: -1895.703346428375880  |grad|_K:  3.153e-07  alpha:  2.966e-01  linmin:  3.584e-06  t[s]:   8866.53
	FillingsUpdate:  mu: +0.131139422  nElectrons: 341.000000  magneticMoment: [ Abs: 41.94746  Tot: +0.00000 ]
	SubspaceRotationAdjust: set factor to 0.341
ElecMinimize: Iter: 166  F: -1895.703349615332172  |grad|_K:  2.995e-07  alpha:  1.837e-01  linmin: -5.995e-07  t[s]:   8915.24
	FillingsUpdate:  mu: +0.131238282  nElectrons: 341.000000  magneticMoment: [ Abs: 41.94678  Tot: +0.00000 ]
	SubspaceRotationAdjust: set factor to 0.394
ElecMinimize: Iter: 167  F: -1895.703354435106803  |grad|_K:  3.010e-07  alpha:  3.074e-01  linmin:  4.938e-06  t[s]:   8963.63
	FillingsUpdate:  mu: +0.131103750  nElectrons: 341.000000  magneticMoment: [ Abs: 41.94359  Tot: -0.00000 ]
	SubspaceRotationAdjust: set factor to 0.4
ElecMinimize: Iter: 168  F: -1895.703359403474224  |grad|_K:  3.549e-07  alpha:  3.142e-01  linmin:  9.751e-06  t[s]:   9011.62
	FillingsUpdate:  mu: +0.131132504  nElectrons: 341.000000  magneticMoment: [ Abs: 41.94456  Tot: +0.00000 ]
	SubspaceRotationAdjust: set factor to 0.371
ElecMinimize: Iter: 169  F: -1895.703363755613282  |grad|_K:  3.700e-07  alpha:  1.977e-01  linmin: -1.995e-06  t[s]:   9060.02
	FillingsUpdate:  mu: +0.131247243  nElectrons: 341.000000  magneticMoment: [ Abs: 41.94159  Tot: +0.00000 ]
	SubspaceRotationAdjust: set factor to 0.398
ElecMinimize: Iter: 170  F: -1895.703369651571847  |grad|_K:  3.527e-07  alpha:  2.461e-01  linmin:  9.312e-07  t[s]:   9108.16
	FillingsUpdate:  mu: +0.131041514  nElectrons: 341.000000  magneticMoment: [ Abs: 41.93802  Tot: +0.00000 ]
	SubspaceRotationAdjust: set factor to 0.44
ElecMinimize: Iter: 171  F: -1895.703376385804404  |grad|_K:  3.841e-07  alpha:  3.101e-01  linmin:  1.212e-05  t[s]:   9156.51
	FillingsUpdate:  mu: +0.131158047  nElectrons: 341.000000  magneticMoment: [ Abs: 41.93776  Tot: -0.00000 ]
	SubspaceRotationAdjust: set factor to 0.394
ElecMinimize: Iter: 172  F: -1895.703382156178350  |grad|_K:  4.406e-07  alpha:  2.241e-01  linmin:  5.373e-08  t[s]:   9204.32
	FillingsUpdate:  mu: +0.131246004  nElectrons: 341.000000  magneticMoment: [ Abs: 41.93232  Tot: +0.00000 ]
	SubspaceRotationAdjust: set factor to 0.374
ElecMinimize: Iter: 173  F: -1895.703388318937641  |grad|_K:  3.972e-07  alpha:  1.813e-01  linmin:  1.073e-06  t[s]:   9252.26
	FillingsUpdate:  mu: +0.131023882  nElectrons: 341.000000  magneticMoment: [ Abs: 41.92926  Tot: +0.00000 ]
	SubspaceRotationAdjust: set factor to 0.435
ElecMinimize: Iter: 174  F: -1895.703395902859256  |grad|_K:  3.777e-07  alpha:  2.756e-01  linmin:  1.175e-05  t[s]:   9300.41
	FillingsUpdate:  mu: +0.131157067  nElectrons: 341.000000  magneticMoment: [ Abs: 41.92895  Tot: +0.00000 ]
	SubspaceRotationAdjust: set factor to 0.397
ElecMinimize: Iter: 175  F: -1895.703402501730579  |grad|_K:  4.301e-07  alpha:  2.658e-01  linmin: -1.368e-06  t[s]:   9348.73
	FillingsUpdate:  mu: +0.131183884  nElectrons: 341.000000  magneticMoment: [ Abs: 41.92439  Tot: -0.00000 ]
	SubspaceRotationAdjust: set factor to 0.355
ElecMinimize: Iter: 176  F: -1895.703407483333194  |grad|_K:  3.823e-07  alpha:  1.537e-01  linmin: -3.274e-06  t[s]:   9397.29
	FillingsUpdate:  mu: +0.131082969  nElectrons: 341.000000  magneticMoment: [ Abs: 41.92299  Tot: +0.00000 ]
	SubspaceRotationAdjust: set factor to 0.447
ElecMinimize: Iter: 177  F: -1895.703414041348196  |grad|_K:  3.379e-07  alpha:  2.569e-01  linmin:  1.093e-05  t[s]:   9445.25
	FillingsUpdate:  mu: +0.131190878  nElectrons: 341.000000  magneticMoment: [ Abs: 41.92443  Tot: +0.00000 ]
	SubspaceRotationAdjust: set factor to 0.395
ElecMinimize: Iter: 178  F: -1895.703419343371934  |grad|_K:  3.833e-07  alpha:  2.669e-01  linmin: -6.161e-07  t[s]:   9493.06
	FillingsUpdate:  mu: +0.131171724  nElectrons: 341.000000  magneticMoment: [ Abs: 41.92198  Tot: -0.00000 ]
	SubspaceRotationAdjust: set factor to 0.361
ElecMinimize: Iter: 179  F: -1895.703423068640632  |grad|_K:  3.371e-07  alpha:  1.452e-01  linmin:  7.162e-07  t[s]:   9540.48
	FillingsUpdate:  mu: +0.131088265  nElectrons: 341.000000  magneticMoment: [ Abs: 41.92260  Tot: -0.00000 ]
	SubspaceRotationAdjust: set factor to 0.48
ElecMinimize: Iter: 180  F: -1895.703428156015661  |grad|_K:  2.972e-07  alpha:  2.564e-01  linmin:  6.734e-06  t[s]:   9587.96
	FillingsUpdate:  mu: +0.131212398  nElectrons: 341.000000  magneticMoment: [ Abs: 41.92542  Tot: -0.00000 ]
	SubspaceRotationAdjust: set factor to 0.383
ElecMinimize: Iter: 181  F: -1895.703431973071247  |grad|_K:  3.527e-07  alpha:  2.478e-01  linmin:  1.296e-06  t[s]:   9635.45
	FillingsUpdate:  mu: +0.131206000  nElectrons: 341.000000  magneticMoment: [ Abs: 41.92468  Tot: -0.00000 ]
	SubspaceRotationAdjust: set factor to 0.37
ElecMinimize: Iter: 182  F: -1895.703434927030912  |grad|_K:  2.902e-07  alpha:  1.361e-01  linmin:  1.561e-06  t[s]:   9683.54
	FillingsUpdate:  mu: +0.131110017  nElectrons: 341.000000  magneticMoment: [ Abs: 41.92713  Tot: +0.00000 ]
	SubspaceRotationAdjust: set factor to 0.486
ElecMinimize: Iter: 183  F: -1895.703438956126092  |grad|_K:  2.790e-07  alpha:  2.737e-01  linmin: -1.048e-06  t[s]:   9730.89
	FillingsUpdate:  mu: +0.131222908  nElectrons: 341.000000  magneticMoment: [ Abs: 41.93073  Tot: -0.00000 ]
	SubspaceRotationAdjust: set factor to 0.395
ElecMinimize: Iter: 184  F: -1895.703441767358981  |grad|_K:  3.213e-07  alpha:  2.065e-01  linmin: -9.462e-07  t[s]:   9778.20
	FillingsUpdate:  mu: +0.131258697  nElectrons: 341.000000  magneticMoment: [ Abs: 41.93094  Tot: +0.00000 ]
	SubspaceRotationAdjust: set factor to 0.414
ElecMinimize: Iter: 185  F: -1895.703444547418485  |grad|_K:  2.661e-07  alpha:  1.537e-01  linmin:  5.150e-07  t[s]:   9825.75
	FillingsUpdate:  mu: +0.131140091  nElectrons: 341.000000  magneticMoment: [ Abs: 41.93384  Tot: -0.00000 ]
	SubspaceRotationAdjust: set factor to 0.486
ElecMinimize: Iter: 186  F: -1895.703447782673948  |grad|_K:  2.642e-07  alpha:  2.612e-01  linmin: -5.020e-06  t[s]:   9873.38
	FillingsUpdate:  mu: +0.131236905  nElectrons: 341.000000  magneticMoment: [ Abs: 41.93799  Tot: -0.00000 ]
	SubspaceRotationAdjust: set factor to 0.414
ElecMinimize: Iter: 187  F: -1895.703450217197769  |grad|_K:  2.939e-07  alpha:  1.993e-01  linmin: -2.213e-06  t[s]:   9921.25
	FillingsUpdate:  mu: +0.131279942  nElectrons: 341.000000  magneticMoment: [ Abs: 41.93846  Tot: -0.00000 ]
	SubspaceRotationAdjust: set factor to 0.419
ElecMinimize: Iter: 188  F: -1895.703452587586071  |grad|_K:  2.536e-07  alpha:  1.564e-01  linmin:  3.463e-06  t[s]:   9968.85
	FillingsUpdate:  mu: +0.131166538  nElectrons: 341.000000  magneticMoment: [ Abs: 41.94077  Tot: -0.00000 ]
	SubspaceRotationAdjust: set factor to 0.501
ElecMinimize: Iter: 189  F: -1895.703455294699552  |grad|_K:  2.433e-07  alpha:  2.409e-01  linmin: -3.949e-06  t[s]:  10016.71
	FillingsUpdate:  mu: +0.131246489  nElectrons: 341.000000  magneticMoment: [ Abs: 41.94461  Tot: -0.00000 ]
	SubspaceRotationAdjust: set factor to 0.412
ElecMinimize: Iter: 190  F: -1895.703457394675524  |grad|_K:  2.750e-07  alpha:  2.027e-01  linmin: -4.186e-06  t[s]:  10064.17
	FillingsUpdate:  mu: +0.131288297  nElectrons: 341.000000  magneticMoment: [ Abs: 41.94491  Tot: -0.00000 ]
	SubspaceRotationAdjust: set factor to 0.415
ElecMinimize: Iter: 191  F: -1895.703459328951794  |grad|_K:  2.326e-07  alpha:  1.456e-01  linmin:  1.539e-06  t[s]:  10111.85
	FillingsUpdate:  mu: +0.131192936  nElectrons: 341.000000  magneticMoment: [ Abs: 41.94619  Tot: +0.00000 ]
[...]
	FillingsUpdate:  mu: +0.132991337  nElectrons: 341.000000  magneticMoment: [ Abs: 40.98444  Tot: -0.00000 ]
	SubspaceRotationAdjust: set factor to 0.218
ElecMinimize: Iter:  12  F: -1895.747609112848295  |grad|_K:  1.642e-07  alpha:  2.592e-01  linmin:  1.663e-06  t[s]:  45751.95
	FillingsUpdate:  mu: +0.133013623  nElectrons: 341.000000  magneticMoment: [ Abs: 40.98529  Tot: -0.00000 ]
	SubspaceRotationAdjust: set factor to 0.199
ElecMinimize: Iter:  13  F: -1895.747610396050050  |grad|_K:  1.161e-07  alpha:  2.723e-01  linmin: -1.450e-06  t[s]:  45800.43
	FillingsUpdate:  mu: +0.133004009  nElectrons: 341.000000  magneticMoment: [ Abs: 40.98540  Tot: -0.00000 ]
	SubspaceRotationAdjust: set factor to 0.222
ElecMinimize: Iter:  14  F: -1895.747611161667464  |grad|_K:  8.607e-08  alpha:  3.247e-01  linmin:  1.555e-08  t[s]:  45848.60
	FillingsUpdate:  mu: +0.132990352  nElectrons: 341.000000  magneticMoment: [ Abs: 40.98513  Tot: +0.00000 ]
	SubspaceRotationAdjust: set factor to 0.216
ElecMinimize: Iter:  15  F: -1895.747611562565453  |grad|_K:  6.543e-08  alpha:  3.093e-01  linmin: -2.531e-06  t[s]:  45896.97
	FillingsUpdate:  mu: +0.133009176  nElectrons: 341.000000  magneticMoment: [ Abs: 40.98557  Tot: -0.00000 ]
	SubspaceRotationAdjust: set factor to 0.216
ElecMinimize: Iter:  16  F: -1895.747611801390121  |grad|_K:  5.133e-08  alpha:  3.192e-01  linmin: -3.707e-06  t[s]:  45944.76
	FillingsUpdate:  mu: +0.133006461  nElectrons: 341.000000  magneticMoment: [ Abs: 40.98554  Tot: -0.00000 ]
	SubspaceRotationAdjust: set factor to 0.261
ElecMinimize: Iter:  17  F: -1895.747611963735608  |grad|_K:  4.570e-08  alpha:  3.522e-01  linmin:  1.578e-05  t[s]:  45992.33
	FillingsUpdate:  mu: +0.133000764  nElectrons: 341.000000  magneticMoment: [ Abs: 40.98553  Tot: +0.00000 ]
	SubspaceRotationAdjust: set factor to 0.311
ElecMinimize: Iter:  18  F: -1895.747612108374142  |grad|_K:  4.508e-08  alpha:  3.959e-01  linmin: -2.977e-05  t[s]:  46039.89
ElecMinimize: Converged (|Delta F|<1.000000e-06 for 5 iters).
Setting wave functions to eigenvectors of Hamiltonian

# Ionic positions in lattice coordinates:
ion Ni   0.000029905136826  -0.006860638936161   0.166835758649535 1
ion Ni   0.500346658774703  -0.004249026575366   0.157546307867144 1
ion Ni  -0.008354876267568   0.504304911961833   0.156030823365787 1
ion Ni   0.000000000000000   0.500000000000000  -0.050000000000000 0
ion Co   0.494317351491098   0.498829538812746   0.162645368399410 1
ion Co   0.226453266678099   0.751485501847571   0.062512592071348 1
ion Cr   0.239495992785904   0.251696592677355   0.056922063826537 1
ion Cr  -0.258128949973392   0.250740563368708   0.056558869140383 1
ion V  -0.260664429605519   0.749524670990503   0.057600723396840 1
ion V   0.000000000000000   0.000000000000000  -0.050000000000000 0
ion V   0.500000000000000   0.000000000000000  -0.050000000000000 0
ion V   0.500000000000000   0.500000000000000  -0.050000000000000 0
ion V   0.250000000000000   0.250000000000000  -0.150000000000000 0
ion V   0.250000000000000   0.750000000000000  -0.150000000000000 0
ion V  -0.250000000000000   0.250000000000000  -0.150000000000000 0
ion V  -0.250000000000000   0.750000000000000  -0.150000000000000 0
ion O   0.241090922124632   0.255608752561275   0.148842639192306 1
ion O   0.257903294288971   0.745145239222566   0.155388771533918 1
ion O  -0.262973401779416   0.255720622093456   0.148052292246659 1
ion O  -0.254989167213832   0.742615752231527   0.155391396109266 1
ion O  -0.008546451536571   0.019280034685021   0.051923858801341 1
ion O   0.489136306258235   0.021382134694323   0.050379214609467 1
ion O  -0.007616909762942   0.481371324742939   0.050977794365591 1
ion O   0.489845733468989   0.480115634473264   0.050599979740761 1
ion O   0.250000000000000   0.250000000000000  -0.050000000000000 0
ion O   0.250000000000000   0.750000000000000  -0.050000000000000 0
ion O  -0.250000000000000   0.250000000000000  -0.050000000000000 0
ion O  -0.250000000000000   0.750000000000000  -0.050000000000000 0
ion O   0.000000000000000   0.000000000000000  -0.150000000000000 0
ion O   0.500000000000000   0.000000000000000  -0.150000000000000 0
ion O   0.000000000000000   0.500000000000000  -0.150000000000000 0
ion O   0.500000000000000   0.500000000000000  -0.150000000000000 0
ion O  -0.013420320695465   0.005641221061688   0.254431047961026 1
ion H   0.102980739540548   0.100211417486519   0.269565572686322 1

# Forces in Lattice coordinates:
force Ni  -0.005244910553328  -0.002424289355983   0.044375332682414 1
force Ni   0.003051804607168   0.001437258289122   0.002964084637745 1
force Ni   0.003940748289800   0.000646609487431   0.012974925218945 1
force Ni   0.021321333207265   0.024396284904760   0.041593477979793 0
force Co   0.000648296513195   0.000131848985107  -0.025376438992235 1
force Co   0.009837440403898   0.001126717459226   0.030228862052462 1
force Cr   0.000586473599048   0.000039670038951   0.040706453116170 1
force Cr   0.002758662142808   0.000743950910847   0.050909905278451 1
force V   0.000051126518420  -0.000474564983872   0.034720876416125 1
force V  -0.017410077835017  -0.020456873227008   0.368586944021642 0
force V  -0.062021379901986  -0.033213624382529   0.337638707775506 0
force V  -0.081908535036208   0.035926982707140   0.331261807313000 0
force V  -0.022668937163932   0.052362422057206  -0.271178931056285 0
force V  -0.024494121820326  -0.053081022283625  -0.198668996793208 0
force V   0.086677223817943   0.036751566239595  -0.436479776194161 0
force V   0.083112690694305  -0.035547487263677  -0.373229240316872 0
force O   0.015612710745333   0.000701631647205  -0.015256667613826 1
force O  -0.005355773545911   0.002617770876637  -0.037410209038740 1
force O   0.001237334183489   0.003064570724921  -0.000421510266943 1
force O   0.000378133949061   0.001660693649226  -0.046845143306063 1
force O  -0.000901746000085   0.001150667567092  -0.000717714360096 1
force O   0.002502255453649   0.004868024796488   0.005134535776140 1
force O   0.002947475274178   0.000595119817502   0.012130305661908 1
force O  -0.001777541490474  -0.002934138690641  -0.004278891752637 1
force O   0.010933005572905   0.057386048576217   0.422445826585813 0
force O   0.039137534948279  -0.053987878795210   0.227480407581715 0
force O  -0.071613682314498   0.053174073508480   0.337521857913185 0
force O  -0.044280567587093  -0.068321354980707   0.107658417569195 0
force O   0.027538795826551  -0.000072548753764  -0.293416810087440 0
force O   0.038903285247277  -0.000920501567286  -0.228887434141878 0
force O  -0.030354041544961   0.003905091416948  -0.219971775091409 0
force O   0.041510947042638   0.000103751202240  -0.178988927132109 0
force O  -0.006224751521589   0.010295322958513  -0.010002939152433 1
force H  -0.000757861096292  -0.005019415819646  -0.018829171207237 1

# Energy components:
   Eewald =     5047.2031958868265065
       EH =     6756.1403960024163098
     Eloc =   -13874.7297478660802881
      Enl =     -465.0602360759561975
   Epulay =       -0.0004831230919240
      Exc =     -237.2696491347419112
       KE =      876.7361458470854814
        U =        1.2336148220938739
-------------------------------------
     Etot =    -1895.7467636414480694
       TS =        0.0008484669260383
-------------------------------------
        F =    -1895.7476121083741418

IonicMinimize: Iter:  17  F: -1895.747612108374142  |grad|_K:  4.981e-04  alpha:  3.191e-01  linmin: -1.760e-02  t[s]:  46056.73

#--- Lowdin population analysis ---
# oxidation-state Ni +3.776 +3.700 +3.679 +3.420
# magnetic-moments Ni +1.026 -0.888 +0.869 -0.868
# oxidation-state Co +1.233 +1.200
# magnetic-moments Co -2.696 +2.673
# oxidation-state Cr +2.980 +2.949
# magnetic-moments Cr +3.138 -3.178
# oxidation-state V +0.994 +0.960 +1.003 +1.028 +1.063 +1.056 +1.066 +1.066
# magnetic-moments V -2.943 -2.881 +2.735 +2.737 -2.912 -2.907 +2.916 +2.910
# oxidation-state O -0.733 -0.845 -0.736 -0.808 -0.851 -0.853 -0.818 -0.876 -0.862 -0.888 -0.860 -0.880 -0.955 -0.955 -0.918 -0.953 -0.741
# magnetic-moments O -0.096 +0.147 +0.116 +0.079 +0.077 -0.013 +0.017 -0.003 -0.082 -0.062 -0.073 -0.083 +0.008 -0.008 -0.099 -0.009 +0.315
# oxidation-state H +0.373
# magnetic-moments H -0.006


-------- Electronic minimization -----------
	FillingsUpdate:  mu: +0.133149964  nElectrons: 341.000000  magneticMoment: [ Abs: 40.98889  Tot: +0.00000 ]
ElecMinimize: Iter:   0  F: -1895.741749435219617  |grad|_K:  1.294e-05  alpha:  1.000e+00
	FillingsUpdate:  mu: +0.133599700  nElectrons: 341.000000  magneticMoment: [ Abs: 40.97536  Tot: -0.00000 ]
	SubspaceRotationAdjust: set factor to 0.282
ElecMinimize: Iter:   1  F: -1895.747323308516798  |grad|_K:  2.474e-06  alpha:  1.902e-01  linmin: -4.429e-04  t[s]:  46140.00
	FillingsUpdate:  mu: +0.133979873  nElectrons: 341.000000  magneticMoment: [ Abs: 40.98710  Tot: +0.00000 ]
	SubspaceRotationAdjust: set factor to 0.205
ElecMinimize: Iter:   2  F: -1895.747526332961115  |grad|_K:  1.377e-06  alpha:  1.895e-01  linmin: -3.337e-04  t[s]:  46187.38
	FillingsUpdate:  mu: +0.132961559  nElectrons: 341.000000  magneticMoment: [ Abs: 40.97732  Tot: +0.00000 ]
	SubspaceRotationAdjust: set factor to 0.133
ElecMinimize: Iter:   3  F: -1895.747600262139713  |grad|_K:  7.856e-07  alpha:  2.220e-01  linmin:  1.725e-04  t[s]:  46235.79
	FillingsUpdate:  mu: +0.132925762  nElectrons: 341.000000  magneticMoment: [ Abs: 40.97910  Tot: -0.00000 ]
	SubspaceRotationAdjust: set factor to 0.154
ElecMinimize: Iter:   4  F: -1895.747629602786219  |grad|_K:  5.408e-07  alpha:  2.731e-01  linmin: -7.780e-06  t[s]:  46283.01
	FillingsUpdate:  mu: +0.133097587  nElectrons: 341.000000  magneticMoment: [ Abs: 40.98017  Tot: +0.00000 ]
	SubspaceRotationAdjust: set factor to 0.167
ElecMinimize: Iter:   5  F: -1895.747643956783122  |grad|_K:  3.862e-07  alpha:  2.805e-01  linmin: -2.239e-06  t[s]:  46330.51
	FillingsUpdate:  mu: +0.133012214  nElectrons: 341.000000  magneticMoment: [ Abs: 40.97790  Tot: -0.00000 ]
	SubspaceRotationAdjust: set factor to 0.183
ElecMinimize: Iter:   6  F: -1895.747653000384844  |grad|_K:  2.948e-07  alpha:  3.467e-01  linmin:  3.353e-06  t[s]:  46378.09
	FillingsUpdate:  mu: +0.132985134  nElectrons: 341.000000  magneticMoment: [ Abs: 40.97717  Tot: -0.00000 ]
	SubspaceRotationAdjust: set factor to 0.222
ElecMinimize: Iter:   7  F: -1895.747658891898709  |grad|_K:  2.637e-07  alpha:  3.878e-01  linmin: -4.033e-08  t[s]:  46426.10
	FillingsUpdate:  mu: +0.133025863  nElectrons: 341.000000  magneticMoment: [ Abs: 40.97720  Tot: +0.00000 ]
	SubspaceRotationAdjust: set factor to 0.252
ElecMinimize: Iter:   8  F: -1895.747662897273131  |grad|_K:  2.339e-07  alpha:  3.294e-01  linmin: -7.123e-08  t[s]:  46474.43
	FillingsUpdate:  mu: +0.133012691  nElectrons: 341.000000  magneticMoment: [ Abs: 40.97516  Tot: +0.00000 ]
	SubspaceRotationAdjust: set factor to 0.274
ElecMinimize: Iter:   9  F: -1895.747666535846975  |grad|_K:  2.138e-07  alpha:  3.802e-01  linmin: -6.818e-07  t[s]:  46522.17
	FillingsUpdate:  mu: +0.133027868  nElectrons: 341.000000  magneticMoment: [ Abs: 40.97443  Tot: +0.00000 ]
	SubspaceRotationAdjust: set factor to 0.299
ElecMinimize: Iter:  10  F: -1895.747669325734705  |grad|_K:  1.824e-07  alpha:  3.490e-01  linmin:  1.254e-07  t[s]:  46570.38
	FillingsUpdate:  mu: +0.133007964  nElectrons: 341.000000  magneticMoment: [ Abs: 40.97330  Tot: -0.00000 ]
	SubspaceRotationAdjust: set factor to 0.327
ElecMinimize: Iter:  11  F: -1895.747671291635243  |grad|_K:  1.411e-07  alpha:  3.379e-01  linmin:  2.526e-07  t[s]:  46618.71
	FillingsUpdate:  mu: +0.133001787  nElectrons: 341.000000  magneticMoment: [ Abs: 40.97231  Tot: +0.00000 ]
	SubspaceRotationAdjust: set factor to 0.338
ElecMinimize: Iter:  12  F: -1895.747672326526526  |grad|_K:  1.093e-07  alpha:  2.973e-01  linmin: -7.784e-07  t[s]:  46666.62
	FillingsUpdate:  mu: +0.133028696  nElectrons: 341.000000  magneticMoment: [ Abs: 40.97226  Tot: +0.00000 ]
	SubspaceRotationAdjust: set factor to 0.304
ElecMinimize: Iter:  13  F: -1895.747672911746804  |grad|_K:  8.967e-08  alpha:  2.801e-01  linmin:  1.034e-06  t[s]:  46714.03
	FillingsUpdate:  mu: +0.132998839  nElectrons: 341.000000  magneticMoment: [ Abs: 40.97120  Tot: +0.00000 ]
	SubspaceRotationAdjust: set factor to 0.245
ElecMinimize: Iter:  14  F: -1895.747673253517632  |grad|_K:  7.565e-08  alpha:  2.432e-01  linmin:  2.499e-06  t[s]:  46761.95
	FillingsUpdate:  mu: +0.133004185  nElectrons: 341.000000  magneticMoment: [ Abs: 40.97106  Tot: -0.00000 ]
	SubspaceRotationAdjust: set factor to 0.265
ElecMinimize: Iter:  15  F: -1895.747673522607556  |grad|_K:  5.528e-08  alpha:  2.689e-01  linmin:  3.514e-06  t[s]:  46809.46
	FillingsUpdate:  mu: +0.133010283  nElectrons: 341.000000  magneticMoment: [ Abs: 40.97073  Tot: -0.00000 ]
	SubspaceRotationAdjust: set factor to 0.321
ElecMinimize: Iter:  16  F: -1895.747673710637855  |grad|_K:  4.972e-08  alpha:  3.525e-01  linmin:  1.504e-05  t[s]:  46857.82
	FillingsUpdate:  mu: +0.133002917  nElectrons: 341.000000  magneticMoment: [ Abs: 40.97005  Tot: +0.00000 ]
	SubspaceRotationAdjust: set factor to 0.333
ElecMinimize: Iter:  17  F: -1895.747673853709330  |grad|_K:  5.152e-08  alpha:  3.313e-01  linmin:  2.755e-05  t[s]:  46905.57
ElecMinimize: Converged (|Delta F|<1.000000e-06 for 5 iters).
Setting wave functions to eigenvectors of Hamiltonian

# Ionic positions in lattice coordinates:
ion Ni  -0.000360108126831  -0.007029769688069   0.166821285112779 1
ion Ni   0.500598852236701  -0.004222332577273   0.157369012558595 1
ion Ni  -0.007958634337568   0.504419726216192   0.155904796761694 1
ion Ni   0.000000000000000   0.500000000000000  -0.050000000000000 0
ion Co   0.494345954557165   0.498803686270551   0.162506845441994 1
ion Co   0.226998075755006   0.751542615511967   0.062654431983657 1
ion Cr   0.239371572975109   0.251766841601195   0.057034407347917 1
ion Cr  -0.257900918042607   0.250857470509925   0.056716813820219 1
ion V  -0.260454271694309   0.749329157444152   0.057633289045042 1
ion V   0.000000000000000   0.000000000000000  -0.050000000000000 0
ion V   0.500000000000000   0.000000000000000  -0.050000000000000 0
ion V   0.500000000000000   0.500000000000000  -0.050000000000000 0
ion V   0.250000000000000   0.250000000000000  -0.150000000000000 0
ion V   0.250000000000000   0.750000000000000  -0.150000000000000 0
ion V  -0.250000000000000   0.250000000000000  -0.150000000000000 0
ion V  -0.250000000000000   0.750000000000000  -0.150000000000000 0
ion O   0.242349231282918   0.255737368061314   0.148818755427991 1
ion O   0.257669868686680   0.745251954370260   0.155111843409247 1
ion O  -0.262826364889418   0.255981712586855   0.148062529069261 1
ion O  -0.254937111270829   0.742641666238676   0.155190153065669 1
ion O  -0.008723315140405   0.019458525896550   0.051951616276562 1
ion O   0.489443817470306   0.021817880575265   0.050446221248740 1
ion O  -0.007398275028557   0.481386859243848   0.050979888343092 1
ion O   0.489910543817828   0.479848637960192   0.050593665214633 1
ion O   0.250000000000000   0.250000000000000  -0.050000000000000 0
ion O   0.250000000000000   0.750000000000000  -0.050000000000000 0
ion O  -0.250000000000000   0.250000000000000  -0.050000000000000 0
ion O  -0.250000000000000   0.750000000000000  -0.050000000000000 0
ion O   0.000000000000000   0.000000000000000  -0.150000000000000 0
ion O   0.500000000000000   0.000000000000000  -0.150000000000000 0
ion O   0.000000000000000   0.500000000000000  -0.150000000000000 0
ion O   0.500000000000000   0.500000000000000  -0.150000000000000 0
ion O  -0.014080863740450   0.006045891412453   0.254379823168151 1
ion H   0.103090110440853   0.100108403099078   0.269232055044422 1

# Forces in Lattice coordinates:
force Ni  -0.005766541305486  -0.001515568821885   0.009896485963598 1
force Ni   0.003763568556500   0.000870154114476  -0.011399523101992 1
force Ni   0.002665007126240   0.000894159080930  -0.000362144777961 1
force Ni   0.021704603748826   0.023880575162329   0.051872447552219 0
force Co   0.001198543467410   0.002212510942397  -0.035725639958258 1
force Co   0.005544806376697   0.002285900557235  -0.033244621355607 1
force Cr   0.006426806156395  -0.001583402661110   0.015175145012827 1
force Cr   0.001562316370177  -0.000643108615706   0.019803571160455 1
force V  -0.000085153485771   0.003447030319164   0.007080638160634 1
force V  -0.017841620275621  -0.019568466425678   0.379070856807260 0
force V  -0.061681685062629  -0.031861997615976   0.349741380367099 0
force V  -0.081824963713247   0.034675385494907   0.338611678104247 0
force V  -0.022741303668504   0.052407347834172  -0.266943127990583 0
force V  -0.024430157084880  -0.053139974621712  -0.194866240264258 0
force V   0.086629515728446   0.036732540572959  -0.432437492425811 0
force V   0.083117135618309  -0.035564303086332  -0.370665079844253 0
force O   0.006251143332954  -0.000892410755573  -0.000555732852064 1
force O  -0.001491167102359   0.002230408666234   0.019298421711362 1
force O   0.004043943732164   0.001292209149210   0.011998097420237 1
force O  -0.000840051482515   0.002320276287974  -0.019341022736498 1
force O   0.001680521891177  -0.000191891832332   0.000299152112871 1
force O   0.001577232186627   0.001605237755748  -0.004568521028282 1
force O   0.000399464736756   0.000946308557977   0.007357324258137 1
force O  -0.000370901666277  -0.000743974599568  -0.006270862791358 1
force O   0.010997842744894   0.057275866943687   0.421193572621725 0
force O   0.039633849393669  -0.053946348575270   0.229321193949402 0
force O  -0.071928210088239   0.053469353640853   0.337057714735120 0
force O  -0.044516901630693  -0.068483821926030   0.108668974393947 0
force O   0.028112701138314  -0.000259828923541  -0.293761536211800 0
force O   0.038306152104762  -0.001122327248139  -0.228322607339862 0
force O  -0.029766092118899   0.004030452177439  -0.222475086683533 0
force O   0.040984777337666   0.000287205472790  -0.178836413511369 0
force O  -0.008072288044229   0.007887166426504  -0.024095397506973 1
force H   0.002258555198786  -0.002516432085596  -0.004873567962398 1

# Energy components:
   Eewald =     5049.9021455893971506
       EH =     6758.8296426199394773
     Eloc =   -13880.1255451721499412
      Enl =     -465.0624241523780142
   Epulay =       -0.0004831230919240
      Exc =     -237.2734829671662737
       KE =      876.7493953153621078
        U =        1.2339299823886190
-------------------------------------
     Etot =    -1895.7468219076974947
       TS =        0.0008519460118678
-------------------------------------
        F =    -1895.7476738537093297

IonicMinimize: Iter:  18  F: -1895.747673853709330  |grad|_K:  3.281e-04  alpha:  1.000e+00  linmin: -2.838e-02  t[s]:  46922.22
IonicMinimize: Converged (|Delta F|<1.000000e-04 for 3 iters).

#--- Lowdin population analysis ---
# oxidation-state Ni +3.776 +3.698 +3.675 +3.420
# magnetic-moments Ni +1.027 -0.887 +0.866 -0.868
# oxidation-state Co +1.234 +1.200
# magnetic-moments Co -2.695 +2.672
# oxidation-state Cr +2.979 +2.949
# magnetic-moments Cr +3.136 -3.173
# oxidation-state V +0.994 +0.960 +1.004 +1.029 +1.063 +1.056 +1.065 +1.066
# magnetic-moments V -2.942 -2.881 +2.734 +2.736 -2.912 -2.906 +2.916 +2.910
# oxidation-state O -0.734 -0.845 -0.735 -0.808 -0.851 -0.852 -0.817 -0.876 -0.862 -0.888 -0.860 -0.880 -0.955 -0.955 -0.919 -0.953 -0.741
# magnetic-moments O -0.098 +0.148 +0.114 +0.081 +0.077 -0.013 +0.017 -0.004 -0.082 -0.062 -0.074 -0.083 +0.008 -0.008 -0.098 -0.009 +0.314
# oxidation-state H +0.373
# magnetic-moments H -0.006


Dumping 'run.ionpos' ... done
Dumping 'run.lattice' ... done
Dumping 'run.Ecomponents' ... done
End date and time: Sat May 17 06:20:36 2025  (Duration: 0-13:02:06.59)
Done!
