/var/spool/slurmd/job44078/slurm_script: line 9: module: command not found
/var/spool/slurmd/job44078/slurm_script: line 10: module: command not found

*************** JDFTx 1.7.0  ***************

Start date and time: Tue May  6 14:49:18 2025
Executable /data2/jt577/jdftx_eat_withLibXC/build/jdftx with command-line: -i /data2/jt577/May_2025/Relax_Mag/rel2+1_6/OH/runs/calc_/run.in
Running on hosts (process indices):  node3304 (0-8)
Divided in process groups (process indices):  0 (0)  1 (1)  2 (2)  3 (3)  4 (4)  5 (5)  6 (6)  7 (7)  8 (8)
Resource initialization completed at t[s]:      0.00
Run totals: 9 processes, 63 threads, 0 GPUs


Input parsed successfully to the following command list (including defaults):

add-mix 
add-U 	Ni d 0.22 \
	Co d 0.2 \
	Cr d 0.16 \
	V d 0.12
basis kpoint-dependent
coords-type Lattice
core-overlap-check vector
coulomb-interaction Periodic
davidson-band-ratio 1.1
dump End IonicPositions Lattice Ecomponents
dump-name run.$VAR
elec-cutoff 30
elec-eigen-algo Davidson
elec-ex-corr gga-x-rpbe gga-c-pbe
elec-smearing Fermi 0.001
electronic-minimize  \
	dirUpdateScheme      FletcherReeves \
	linminMethod         DirUpdateRecommended \
	nIterations          1000 \
	history              15 \
	knormThreshold       0 \
	energyDiffThreshold  1e-06 \
	nEnergyDiff          5 \
	alphaTstart          1 \
	alphaTmin            1e-10 \
	updateTestStepSize   yes \
	alphaTreduceFactor   0.1 \
	alphaTincreaseFactor 3 \
	nAlphaAdjustMax      3 \
	wolfeEnergy          0.0001 \
	wolfeGradient        0.9 \
	fdTest               no
exchange-regularization WignerSeitzTruncated
fluid None
fluid-ex-corr (null) lda-PZ
fluid-gummel-loop 10 1.000000e-05
fluid-minimize  \
	dirUpdateScheme      PolakRibiere \
	linminMethod         DirUpdateRecommended \
	nIterations          100 \
	history              15 \
	knormThreshold       0 \
	energyDiffThreshold  0 \
	nEnergyDiff          2 \
	alphaTstart          1 \
	alphaTmin            1e-10 \
	updateTestStepSize   yes \
	alphaTreduceFactor   0.1 \
	alphaTincreaseFactor 3 \
	nAlphaAdjustMax      3 \
	wolfeEnergy          0.0001 \
	wolfeGradient        0.9 \
	fdTest               no
fluid-solvent H2O 55.338 ScalarEOS \
	epsBulk 78.4 \
	pMol 0.92466 \
	epsInf 1.77 \
	Pvap 1.06736e-10 \
	sigmaBulk 4.62e-05 \
	Rvdw 2.61727 \
	Res 1.42 \
	tauNuc 343133 \
	poleEl 15 7 1
forces-output-coords Positions
initial-magnetic-moments  \
	Ni 1 -1 1 -1 \
	Co -1 1 \
	Cr 1 -1 \
	V -1 -1 1 1 -1 -1 1 1
initial-state run.$VAR
ion Ni  0.000000000000000   0.000000000000000   0.150000000000000 1
ion Ni  0.500000000000000   0.000000000000000   0.150000000000000 1
ion Ni  0.000000000000000   0.500000000000000   0.150000000000000 1
ion Ni  0.000000000000000   0.500000000000000  -0.050000000000000 0
ion Co  0.500000000000000   0.500000000000000   0.150000000000000 1
ion Co  0.250000000000000   0.750000000000000   0.050000000000000 1
ion Cr  0.250000000000000   0.250000000000000   0.050000000000000 1
ion Cr -0.250000000000000   0.250000000000000   0.050000000000000 1
ion V -0.250000000000000   0.750000000000000   0.050000000000000 1
ion V  0.000000000000000   0.000000000000000  -0.050000000000000 0
ion V  0.500000000000000   0.000000000000000  -0.050000000000000 0
ion V  0.500000000000000   0.500000000000000  -0.050000000000000 0
ion V  0.250000000000000   0.250000000000000  -0.150000000000000 0
ion V  0.250000000000000   0.750000000000000  -0.150000000000000 0
ion V -0.250000000000000   0.250000000000000  -0.150000000000000 0
ion V -0.250000000000000   0.750000000000000  -0.150000000000000 0
ion O  0.250000000000000   0.250000000000000   0.150000000000000 1
ion O  0.250000000000000   0.750000000000000   0.150000000000000 1
ion O -0.250000000000000   0.250000000000000   0.150000000000000 1
ion O -0.250000000000000   0.750000000000000   0.150000000000000 1
ion O  0.000000000000000   0.000000000000000   0.050000000000000 1
ion O  0.500000000000000   0.000000000000000   0.050000000000000 1
ion O  0.000000000000000   0.500000000000000   0.050000000000000 1
ion O  0.500000000000000   0.500000000000000   0.050000000000000 1
ion O  0.250000000000000   0.250000000000000  -0.050000000000000 0
ion O  0.250000000000000   0.750000000000000  -0.050000000000000 0
ion O -0.250000000000000   0.250000000000000  -0.050000000000000 0
ion O -0.250000000000000   0.750000000000000  -0.050000000000000 0
ion O  0.000000000000000   0.000000000000000  -0.150000000000000 0
ion O  0.500000000000000   0.000000000000000  -0.150000000000000 0
ion O  0.000000000000000   0.500000000000000  -0.150000000000000 0
ion O  0.500000000000000   0.500000000000000  -0.150000000000000 0
ion O -0.008040138212305  -0.008269777577920   0.235000196603227 1
ion H  0.095742872057713   0.094897636790041   0.252810710255288 1
ion-species SG15/$ID_ONCV_PBE.upf
ion-width 0
ionic-minimize  \
	dirUpdateScheme      L-BFGS \
	linminMethod         DirUpdateRecommended \
	nIterations          1000 \
	history              15 \
	knormThreshold       0.0001 \
	energyDiffThreshold  0.0001 \
	nEnergyDiff          3 \
	alphaTstart          1 \
	alphaTmin            1e-10 \
	updateTestStepSize   yes \
	alphaTreduceFactor   0.1 \
	alphaTincreaseFactor 3 \
	nAlphaAdjustMax      3 \
	wolfeEnergy          0.0001 \
	wolfeGradient        0.9 \
	fdTest               no
kpoint   0.500000000000   0.500000000000   0.500000000000  1.00000000000000
kpoint-folding 3 3 1 
latt-move-scale 1 1 1
latt-scale 1 1 1 
lattice  \
	   8.140000000000001    8.140000000000001    0.000000000000000  \
	   8.140000000000001   -8.140000000000001    0.000000000000000  \
	   0.000000000000000    0.000000000000000   40.700000000000003 
lattice-minimize  \
	dirUpdateScheme      L-BFGS \
	linminMethod         DirUpdateRecommended \
	nIterations          0 \
	history              15 \
	knormThreshold       0 \
	energyDiffThreshold  1e-06 \
	nEnergyDiff          2 \
	alphaTstart          1 \
	alphaTmin            1e-10 \
	updateTestStepSize   yes \
	alphaTreduceFactor   0.1 \
	alphaTincreaseFactor 3 \
	nAlphaAdjustMax      3 \
	wolfeEnergy          0.0001 \
	wolfeGradient        0.9 \
	fdTest               no
lcao-params -1 1e-06 0.001
pcm-variant GLSSA13
spintype z-spin
subspace-rotation-factor 1 yes
symmetries none
symmetry-threshold 0.0001


Applied RMS atom displacement 0 bohrs to make symmetries exact.

---------- Initializing the Grid ----------
R = 
[         8.14         8.14            0  ]
[         8.14        -8.14            0  ]
[            0            0         40.7  ]
unit cell volume = 5393.53
G =
[   0.385945   0.385945         -0  ]
[   0.385945  -0.385945         -0  ]
[         -0         -0   0.154378  ]
Minimum fftbox size, Smin = [  60  60  204  ]
Chosen fftbox size, S = [  60  60  210  ]

---------- Exchange Correlation functional ----------
Initialized LibXC exchange functional 'Hammer, Hansen, and Norskov'
Initialized LibXC correlation functional 'Perdew, Burke & Ernzerhof'

---------- Setting up pseudopotentials ----------
Width of ionic core gaussian charges (only for fluid interactions / plotting) set to 0

Reading pseudopotential file '/data2/jt577/jdftx_eat_withLibXC/build/pseudopotentials/SG15/Ni_ONCV_PBE.upf':
  'Ni' pseudopotential, 'PBE' functional
  Generated using ONCVPSP code by D. R. Hamann
  Author: Martin Schlipf and Francois Gygi  Date: 150915.
  18 valence electrons, 4 orbitals, 6 projectors, 1292 radial grid points, with lMax = 2
  Transforming local potential to a uniform radial grid of dG=0.02 with 1419 points.
  Transforming nonlocal projectors to a uniform radial grid of dG=0.02 with 528 points.
    3S    l: 0   occupation:  2.0   eigenvalue: -4.081355
    3P    l: 1   occupation:  6.0   eigenvalue: -2.623460
    4S    l: 0   occupation:  2.0   eigenvalue: -0.207378
    3D    l: 2   occupation:  8.0   eigenvalue: -0.326118
  Transforming atomic orbitals to a uniform radial grid of dG=0.02 with 528 points.
  WARNING: large normalization error in atomic orbital 1s (integral: 0.000006).
  Core radius for overlap checks: 1.99 bohrs.
  Reading pulay file /data2/jt577/jdftx_eat_withLibXC/build/pseudopotentials/SG15/Ni_ONCV_PBE.pulay ... using dE_dnG = -7.250568e-04 computed for Ecut = 30.

Reading pseudopotential file '/data2/jt577/jdftx_eat_withLibXC/build/pseudopotentials/SG15/Co_ONCV_PBE.upf':
  'Co' pseudopotential, 'PBE' functional
  Generated using ONCVPSP code by D. R. Hamann
  Author: Martin Schlipf and Francois Gygi  Date: 150915.
  17 valence electrons, 4 orbitals, 6 projectors, 1388 radial grid points, with lMax = 2
  Transforming local potential to a uniform radial grid of dG=0.02 with 1419 points.
  Transforming nonlocal projectors to a uniform radial grid of dG=0.02 with 528 points.
    3S    l: 0   occupation:  2.0   eigenvalue: -3.763303
    3P    l: 1   occupation:  6.0   eigenvalue: -2.412101
    4S    l: 0   occupation:  2.0   eigenvalue: -0.201022
    3D    l: 2   occupation:  7.0   eigenvalue: -0.301498
  Transforming atomic orbitals to a uniform radial grid of dG=0.02 with 528 points.
  Core radius for overlap checks: 1.94 bohrs.
  Reading pulay file /data2/jt577/jdftx_eat_withLibXC/build/pseudopotentials/SG15/Co_ONCV_PBE.pulay ... using dE_dnG = -9.787391e-05 computed for Ecut = 30.

Reading pseudopotential file '/data2/jt577/jdftx_eat_withLibXC/build/pseudopotentials/SG15/Cr_ONCV_PBE.upf':
  'Cr' pseudopotential, 'PBE' functional
  Generated using ONCVPSP code by D. R. Hamann
  Author: Martin Schlipf and Francois Gygi  Date: 150915.
  14 valence electrons, 4 orbitals, 6 projectors, 1160 radial grid points, with lMax = 2
  Transforming local potential to a uniform radial grid of dG=0.02 with 1419 points.
  Transforming nonlocal projectors to a uniform radial grid of dG=0.02 with 528 points.
    3S    l: 0   occupation:  2.0   eigenvalue: -2.865131
    3P    l: 1   occupation:  6.0   eigenvalue: -1.810600
    4S    l: 0   occupation:  2.0   eigenvalue: -0.180525
    3D    l: 2   occupation:  4.0   eigenvalue: -0.220312
  Transforming atomic orbitals to a uniform radial grid of dG=0.02 with 528 points.
  WARNING: large normalization error in atomic orbital 1s (integral: 0.000001).
  Core radius for overlap checks: 2.10 bohrs.
  Reading pulay file /data2/jt577/jdftx_eat_withLibXC/build/pseudopotentials/SG15/Cr_ONCV_PBE.pulay ... using dE_dnG = -9.817895e-06 computed for Ecut = 30.

Reading pseudopotential file '/data2/jt577/jdftx_eat_withLibXC/build/pseudopotentials/SG15/V_ONCV_PBE.upf':
  'V' pseudopotential, 'PBE' functional
  Generated using ONCVPSP code by D. R. Hamann
  Author: Martin Schlipf and Francois Gygi  Date: 150915.
  13 valence electrons, 4 orbitals, 6 projectors, 1536 radial grid points, with lMax = 2
  Transforming local potential to a uniform radial grid of dG=0.02 with 1419 points.
  Transforming nonlocal projectors to a uniform radial grid of dG=0.02 with 528 points.
    3S    l: 0   occupation:  2.0   eigenvalue: -2.581105
    3P    l: 1   occupation:  6.0   eigenvalue: -1.618486
    4S    l: 0   occupation:  2.0   eigenvalue: -0.172804
    3D    l: 2   occupation:  3.0   eigenvalue: -0.189795
  Transforming atomic orbitals to a uniform radial grid of dG=0.02 with 528 points.
  Core radius for overlap checks: 1.80 bohrs.
  Reading pulay file /data2/jt577/jdftx_eat_withLibXC/build/pseudopotentials/SG15/V_ONCV_PBE.pulay ... using dE_dnG = -1.698632e-04 computed for Ecut = 30.

Reading pseudopotential file '/data2/jt577/jdftx_eat_withLibXC/build/pseudopotentials/SG15/O_ONCV_PBE.upf':
  'O' pseudopotential, 'PBE' functional
  Generated using ONCVPSP code by D. R. Hamann
  Author: Martin Schlipf and Francois Gygi  Date: 150915.
  6 valence electrons, 2 orbitals, 4 projectors, 936 radial grid points, with lMax = 1
  Transforming local potential to a uniform radial grid of dG=0.02 with 1419 points.
  Transforming nonlocal projectors to a uniform radial grid of dG=0.02 with 528 points.
    2S    l: 0   occupation:  2.0   eigenvalue: -0.880572
    2P    l: 1   occupation:  4.0   eigenvalue: -0.331869
  Transforming atomic orbitals to a uniform radial grid of dG=0.02 with 528 points.
  Core radius for overlap checks: 1.29 bohrs.
  Reading pulay file /data2/jt577/jdftx_eat_withLibXC/build/pseudopotentials/SG15/O_ONCV_PBE.pulay ... using dE_dnG = -8.209514e-03 computed for Ecut = 30.

Reading pseudopotential file '/data2/jt577/jdftx_eat_withLibXC/build/pseudopotentials/SG15/H_ONCV_PBE.upf':
  'H' pseudopotential, 'PBE' functional
  Generated using ONCVPSP code by D. R. Hamann
  Author: Martin Schlipf and Francois Gygi  Date: 150915.
  1 valence electrons, 1 orbitals, 2 projectors, 1166 radial grid points, with lMax = 0
  Transforming local potential to a uniform radial grid of dG=0.02 with 1419 points.
  Transforming nonlocal projectors to a uniform radial grid of dG=0.02 with 528 points.
    1S    l: 0   occupation:  1.0   eigenvalue: -0.238602
  Transforming atomic orbitals to a uniform radial grid of dG=0.02 with 528 points.
  Core radius for overlap checks: 1.01 bohrs.
  Reading pulay file /data2/jt577/jdftx_eat_withLibXC/build/pseudopotentials/SG15/H_ONCV_PBE.pulay ... using dE_dnG = -8.245991e-05 computed for Ecut = 30.

Initialized 6 species with 34 total atoms.

Folded 1 k-points by 3x3x1 to 9 k-points.

---------- Setting up k-points, bands, fillings ----------
No reducable k-points. 
Computing the number of bands and number of electrons
Calculating initial fillings.
nElectrons: 341.000000   nBands: 229   nStates: 18

----- Setting up reduced wavefunction bases (one per k-point) -----
average nbasis = 42312.000 , ideal nbasis = 42330.081

---------- Setting up ewald sum ----------
Optimum gaussian width for ewald sums = 3.887061 bohr.
Real space sum over 605 unit cells with max indices [  5  5  2  ]
Reciprocal space sum over 5915 terms with max indices [  6  6  17  ]

---------- Allocating electronic variables ----------
Initializing wave functions:  linear combination of atomic orbitals
Ni (M=1) pseudo-atom majority spin occupations:   s ( 1 0.5 )  p ( 3 )  d ( 5 )
Ni (M=1) pseudo-atom minority spin occupations:   s ( 1 0 )  p ( 3 )  d ( 4.5 )
Co (M=1) pseudo-atom majority spin occupations:   s ( 1 0 )  p ( 3 )  d ( 5 )
Co (M=1) pseudo-atom minority spin occupations:   s ( 1 0 )  p ( 3 )  d ( 4 )
Cr (M=1) pseudo-atom majority spin occupations:   s ( 1 0 )  p ( 3 )  d ( 3.5 )
Cr (M=1) pseudo-atom minority spin occupations:   s ( 1 0 )  p ( 3 )  d ( 2.5 )
V (M=1) pseudo-atom majority spin occupations:   s ( 1 0 )  p ( 3 )  d ( 3 )
V (M=1) pseudo-atom minority spin occupations:   s ( 1 0 )  p ( 3 )  d ( 2 )
O pseudo-atom occupations:   s ( 2 )  p ( 4 )
H pseudo-atom occupations:   s ( 1 )
	FillingsUpdate:  mu: +0.897368848  nElectrons: 341.000000  magneticMoment: [ Abs: 0.66895  Tot: +0.00000 ]
LCAOMinimize: Iter:   0  F: -1756.9822404296839977  |grad|_K:  1.227e-02  alpha:  1.000e+00
	FillingsUpdate:  mu: +0.250865916  nElectrons: 341.000000  magneticMoment: [ Abs: 2.81595  Tot: +0.00000 ]
LCAOMinimize: Iter:   1  F: -1774.4997914933103402  |grad|_K:  1.009e-02  alpha:  5.972e-02  linmin: -4.487e-02  cgtest:  3.523e-01  t[s]:     63.78
LCAOMinimize: 	Predicted alpha/alphaT>3.000000, increasing alphaT to 1.791542e-01.
	FillingsUpdate:  mu: +0.220045610  nElectrons: 341.000000  magneticMoment: [ Abs: 2.98249  Tot: -0.00000 ]
LCAOMinimize: Iter:   2  F: -1775.3356872238177857  |grad|_K:  1.033e-02  alpha:  5.260e-03  linmin: -5.228e-02  cgtest:  9.308e-01  t[s]:     91.78
LCAOMinimize: 	Wrong curvature in test step, increasing alphaT to 1.577892e-02.
	FillingsUpdate:  mu: +0.220835096  nElectrons: 341.000000  magneticMoment: [ Abs: 3.11103  Tot: +0.00000 ]
LCAOMinimize: Iter:   3  F: -1776.0743685443230788  |grad|_K:  1.284e-02  alpha: -1.295e-02  linmin: -5.077e-02  cgtest:  7.918e-01  t[s]:    112.77
	FillingsUpdate:  mu: +0.821508135  nElectrons: 341.000000  magneticMoment: [ Abs: 6.37359  Tot: -0.00000 ]
LCAOMinimize: Iter:   4  F: -1805.0830875938272584  |grad|_K:  1.820e-02  alpha:  9.925e-02  linmin:  1.470e-02  cgtest: -2.985e-01  t[s]:    135.41
LCAOMinimize: 	Step increased F by 1.099313e-01, reducing alpha to 4.029346e-05.
	FillingsUpdate:  mu: +0.822565970  nElectrons: 341.000000  magneticMoment: [ Abs: 6.39256  Tot: -0.00000 ]
LCAOMinimize: Iter:   5  F: -1805.0837957562912379  |grad|_K:  1.842e-02  alpha:  4.029e-05  linmin:  6.024e-04  cgtest:  9.893e-01  t[s]:    172.27
LCAOMinimize: 	Predicted alpha/alphaT>3.000000, increasing alphaT to 1.208804e-04.
LCAOMinimize: 	Predicted alpha/alphaT>3.000000, increasing alphaT to 3.626411e-04.
LCAOMinimize: 	Predicted alpha/alphaT>3.000000, increasing alphaT to 1.087923e-03.
	FillingsUpdate:  mu: +0.649811746  nElectrons: 341.000000  magneticMoment: [ Abs: 6.68890  Tot: +0.00000 ]
LCAOMinimize: Iter:   6  F: -1808.0945398673520685  |grad|_K:  1.759e-02  alpha:  9.751e-03  linmin: -1.177e-01  cgtest:  8.763e-01  t[s]:    204.80
	FillingsUpdate:  mu: +0.204128422  nElectrons: 341.000000  magneticMoment: [ Abs: 6.92035  Tot: +0.00000 ]
LCAOMinimize: Iter:   7  F: -1813.8014701288527704  |grad|_K:  1.168e-02  alpha:  2.623e-02  linmin: -1.216e-01  cgtest:  6.209e-01  t[s]:    225.95
LCAOMinimize: 	Predicted alpha/alphaT>3.000000, increasing alphaT to 7.869311e-02.
	FillingsUpdate:  mu: +0.175469570  nElectrons: 341.000000  magneticMoment: [ Abs: 7.92918  Tot: -0.00000 ]
LCAOMinimize: Iter:   8  F: -1816.5602515371206209  |grad|_K:  1.031e-02  alpha:  2.090e-02  linmin: -1.229e-01  cgtest:  6.754e-01  t[s]:    252.71
LCAOMinimize: 	Wrong curvature in test step, increasing alphaT to 6.271216e-02.
	FillingsUpdate:  mu: +0.068132579  nElectrons: 341.000000  magneticMoment: [ Abs: 8.72083  Tot: +0.00000 ]
LCAOMinimize: Iter:   9  F: -1819.1481301442938729  |grad|_K:  8.223e-03  alpha: -1.466e+01  linmin: -1.556e-01  cgtest:  7.766e-01  t[s]:    272.58
LCAOMinimize: 	Step increased F by 2.780537e+01, reducing alpha to 1.389683e-02.
	FillingsUpdate:  mu: +0.060555915  nElectrons: 341.000000  magneticMoment: [ Abs: 9.18315  Tot: +0.00000 ]
LCAOMinimize: Iter:  10  F: -1820.0649247993301287  |grad|_K:  7.569e-03  alpha:  1.390e-02  linmin: -1.394e-01  cgtest:  8.961e-01  t[s]:    308.56
LCAOMinimize: 	Wrong curvature in test step, increasing alphaT to 4.169049e-02.
	FillingsUpdate:  mu: +0.052676174  nElectrons: 341.000000  magneticMoment: [ Abs: 9.71721  Tot: -0.00000 ]
LCAOMinimize: Iter:  11  F: -1820.8674264365372437  |grad|_K:  7.159e-03  alpha: -2.283e-01  linmin: -1.342e-01  cgtest:  8.802e-01  t[s]:    327.77
LCAOMinimize: 	Step increased F by 2.703003e+01, reducing alpha to 1.700777e-02.
	FillingsUpdate:  mu: +0.066710572  nElectrons: 341.000000  magneticMoment: [ Abs: 10.42919  Tot: -0.00000 ]
LCAOMinimize: Iter:  12  F: -1821.7719758705898130  |grad|_K:  6.354e-03  alpha:  1.701e-02  linmin: -1.383e-01  cgtest:  8.553e-01  t[s]:    363.02
LCAOMinimize: 	Predicted alpha/alphaT>3.000000, increasing alphaT to 5.102332e-02.
LCAOMinimize: 	Step increased F by 2.455132e+00, reducing alpha to 1.059295e-02.
	FillingsUpdate:  mu: +0.064766081  nElectrons: 341.000000  magneticMoment: [ Abs: 10.75393  Tot: +0.00000 ]
LCAOMinimize: Iter:  13  F: -1822.1887648005099436  |grad|_K:  5.896e-03  alpha:  1.059e-02  linmin: -1.361e-01  cgtest:  9.363e-01  t[s]:    404.65
LCAOMinimize: Encountered beta<0, resetting CG.
LCAOMinimize: 	Wrong curvature in test step, increasing alphaT to 3.177884e-02.
	FillingsUpdate:  mu: +0.071080122  nElectrons: 341.000000  magneticMoment: [ Abs: 11.04935  Tot: -0.00000 ]
LCAOMinimize: Iter:  14  F: -1822.5397812601684109  |grad|_K:  5.630e-03  alpha: -4.367e+00  linmin: -1.416e-01  cgtest:  9.396e-01  t[s]:    424.25
LCAOMinimize: 	Step increased F by 9.026743e+00, reducing alpha to 1.350891e-02.
	FillingsUpdate:  mu: +0.071826043  nElectrons: 341.000000  magneticMoment: [ Abs: 11.37077  Tot: -0.00000 ]
LCAOMinimize: Iter:  15  F: -1822.9589509097600057  |grad|_K:  5.388e-03  alpha:  1.351e-02  linmin: -1.465e-01  cgtest:  9.240e-01  t[s]:    460.73
LCAOMinimize: 	Wrong curvature in test step, increasing alphaT to 4.052672e-02.
	FillingsUpdate:  mu: +0.071723939  nElectrons: 341.000000  magneticMoment: [ Abs: 11.64572  Tot: +0.00000 ]
LCAOMinimize: Iter:  16  F: -1823.3492942971647608  |grad|_K:  5.114e-03  alpha: -7.239e-01  linmin: -1.522e-01  cgtest:  9.353e-01  t[s]:    481.20
LCAOMinimize: 	Step increased F by 7.813487e+00, reducing alpha to 1.348184e-02.
	FillingsUpdate:  mu: +0.074837426  nElectrons: 341.000000  magneticMoment: [ Abs: 11.90350  Tot: +0.00000 ]
LCAOMinimize: Iter:  17  F: -1823.6860558684475109  |grad|_K:  4.746e-03  alpha:  1.348e-02  linmin: -1.633e-01  cgtest:  9.545e-01  t[s]:    518.05
LCAOMinimize: Encountered beta<0, resetting CG.
LCAOMinimize: 	Predicted alpha/alphaT>3.000000, increasing alphaT to 4.044551e-02.
LCAOMinimize: 	Predicted alpha/alphaT>3.000000, increasing alphaT to 1.213365e-01.
	FillingsUpdate:  mu: +0.078777920  nElectrons: 341.000000  magneticMoment: [ Abs: 12.32311  Tot: -0.00000 ]
LCAOMinimize: Iter:  18  F: -1824.1251460333821797  |grad|_K:  4.112e-03  alpha:  2.125e-02  linmin: -1.680e-01  cgtest:  9.362e-01  t[s]:    551.05
LCAOMinimize: Encountered beta<0, resetting CG.
LCAOMinimize: 	Predicted alpha/alphaT>3.000000, increasing alphaT to 6.375894e-02.
	FillingsUpdate:  mu: +0.073310957  nElectrons: 341.000000  magneticMoment: [ Abs: 15.11029  Tot: +0.00000 ]
LCAOMinimize: Iter:  19  F: -1824.2813831771954938  |grad|_K:  1.037e-02  alpha:  8.595e-02  linmin:  8.199e-02  cgtest: -1.504e-01  t[s]:    577.84
LCAOMinimize: 	Bad step direction: g.d > 0.
LCAOMinimize: 	Undoing step.
LCAOMinimize: 	Step failed: resetting search direction.
	FillingsUpdate:  mu: +0.073310957  nElectrons: 341.000000  magneticMoment: [ Abs: 15.11029  Tot: +0.00000 ]
LCAOMinimize: Iter:  20  F: -1824.2813831771954938  |grad|_K:  1.037e-02  alpha:  0.000e+00
	FillingsUpdate:  mu: +0.218301878  nElectrons: 341.000000  magneticMoment: [ Abs: 13.58837  Tot: -0.00000 ]
LCAOMinimize: Iter:  21  F: -1824.7149823257027492  |grad|_K:  7.006e-03  alpha:  3.359e-02  linmin:  6.831e-02  cgtest: -8.645e-01  t[s]:    614.02
	FillingsUpdate:  mu: +0.176918192  nElectrons: 341.000000  magneticMoment: [ Abs: 14.77604  Tot: -0.00000 ]
LCAOMinimize: Iter:  22  F: -1824.8989777610665897  |grad|_K:  5.046e-03  alpha:  1.808e-02  linmin:  2.854e-04  cgtest:  6.664e-01  t[s]:    635.52
	FillingsUpdate:  mu: +0.058135089  nElectrons: 341.000000  magneticMoment: [ Abs: 15.28028  Tot: -0.00000 ]
LCAOMinimize: Iter:  23  F: -1825.2029478864840257  |grad|_K:  3.819e-03  alpha:  2.650e-02  linmin:  1.345e-02  cgtest: -1.154e-01  t[s]:    656.46
	FillingsUpdate:  mu: +0.048369353  nElectrons: 341.000000  magneticMoment: [ Abs: 15.88613  Tot: +0.00000 ]
LCAOMinimize: Iter:  24  F: -1825.2839980614510296  |grad|_K:  2.671e-03  alpha:  1.046e-02  linmin: -1.741e-02  cgtest:  6.398e-01  t[s]:    677.28
	FillingsUpdate:  mu: +0.118891333  nElectrons: 341.000000  magneticMoment: [ Abs: 16.08003  Tot: -0.00000 ]
LCAOMinimize: Iter:  25  F: -1825.3636541268640485  |grad|_K:  2.007e-03  alpha:  2.484e-02  linmin:  1.027e-02  cgtest: -7.985e-02  t[s]:    698.63
	FillingsUpdate:  mu: +0.123089658  nElectrons: 341.000000  magneticMoment: [ Abs: 16.47633  Tot: +0.00000 ]
LCAOMinimize: Iter:  26  F: -1825.4221116672663356  |grad|_K:  2.559e-03  alpha:  3.312e-02  linmin: -2.152e-03  cgtest:  1.089e-01  t[s]:    720.30
	FillingsUpdate:  mu: +0.116902678  nElectrons: 341.000000  magneticMoment: [ Abs: 18.49825  Tot: +0.00000 ]
LCAOMinimize: Iter:  27  F: -1825.5568989024859547  |grad|_K:  1.699e-03  alpha:  3.970e-02  linmin: -3.915e-03  cgtest: -3.178e-01  t[s]:    741.51
	FillingsUpdate:  mu: +0.096513630  nElectrons: 341.000000  magneticMoment: [ Abs: 19.42154  Tot: -0.00000 ]
LCAOMinimize: Iter:  28  F: -1825.6265093201263880  |grad|_K:  1.108e-03  alpha:  4.400e-02  linmin: -5.476e-03  cgtest:  4.302e-01  t[s]:    762.44
	FillingsUpdate:  mu: +0.124181150  nElectrons: 341.000000  magneticMoment: [ Abs: 19.95349  Tot: -0.00000 ]
LCAOMinimize: Iter:  29  F: -1825.6571857678443394  |grad|_K:  1.074e-03  alpha:  4.930e-02  linmin: -4.561e-03  cgtest:  8.205e-02  t[s]:    783.15
	FillingsUpdate:  mu: +0.138747928  nElectrons: 341.000000  magneticMoment: [ Abs: 20.28992  Tot: +0.00000 ]
LCAOMinimize: Iter:  30  F: -1825.6822313584284529  |grad|_K:  1.244e-03  alpha:  4.322e-02  linmin: -2.166e-03  cgtest: -1.773e-01  t[s]:    803.97
LCAOMinimize: None of the convergence criteria satisfied after 30 iterations.


---- Citations for features of the code used in this run ----

   Software package:
      R. Sundararaman, K. Letchworth-Weaver, K.A. Schwarz, D. Gunceler, Y. Ozhabes and T.A. Arias, 'JDFTx: software for joint density-functional theory', SoftwareX 6, 278 (2017)

   Simplified rotationally-invariant DFT+U:
      S. L. Dudarev et al., Phys. Rev. B 57, 1505 (1998)

   LibXC library of exchange-correlation functions:
      M. A. L. Marques, M. J. T. Oliveira and T. Burnus, Comput. Phys. Commun. 183, 2272 (2012)

   Hammer, Hansen, and Norskov exchange functional:
      B. Hammer, L. B. Hansen, and J. K. Nørskov, Phys. Rev. B 59, 7413 (1999)

   Perdew, Burke & Ernzerhof correlation functional:
      J. P. Perdew, K. Burke, and M. Ernzerhof, Phys. Rev. Lett. 77, 3865 (1996)

   Pseudopotentials:
      M Schlipf and F Gygi, Comput. Phys. Commun. 196, 36 (2015)

   Total energy minimization with Auxiliary Hamiltonian:
      C. Freysoldt, S. Boeck, and J. Neugebauer, Phys. Rev. B 79, 241103(R) (2009)

This list may not be complete. Please suggest additional citations or
report any other bugs at https://github.com/shankar1729/jdftx/issues

Initialization completed successfully at t[s]:    811.52


-------- Electronic minimization -----------
	FillingsUpdate:  mu: +0.138747949  nElectrons: 341.000000  magneticMoment: [ Abs: 20.28992  Tot: +0.00000 ]
ElecMinimize: Iter:   0  F: -1825.682231358435274  |grad|_K:  8.616e-04  alpha:  1.000e+00
	FillingsUpdate:  mu: +0.756623935  nElectrons: 341.000000  magneticMoment: [ Abs: 25.22552  Tot: +0.00000 ]
	SubspaceRotationAdjust: set factor to 0.988
ElecMinimize: Iter:   1  F: -1860.895895616341022  |grad|_K:  1.279e-03  alpha:  4.668e-01  linmin:  8.526e-03  t[s]:    879.43
ElecMinimize: 	Step increased F by 1.214038e+01, reducing alpha to 7.721308e-03.
	FillingsUpdate:  mu: +0.459585197  nElectrons: 341.000000  magneticMoment: [ Abs: 24.63326  Tot: +0.00000 ]
	SubspaceRotationAdjust: set factor to 1.09
ElecMinimize: Iter:   2  F: -1864.071974570108750  |grad|_K:  8.831e-04  alpha:  7.721e-03  linmin: -5.447e-03  t[s]:    956.95
	FillingsUpdate:  mu: +0.165901947  nElectrons: 341.000000  magneticMoment: [ Abs: 22.80407  Tot: +0.00000 ]
	SubspaceRotationAdjust: set factor to 1.04
ElecMinimize: Iter:   3  F: -1867.416514548886198  |grad|_K:  6.966e-04  alpha:  1.552e-02  linmin: -2.195e-03  t[s]:   1004.08
	FillingsUpdate:  mu: +0.397226909  nElectrons: 341.000000  magneticMoment: [ Abs: 21.68069  Tot: -0.00000 ]
	SubspaceRotationAdjust: set factor to 0.729
ElecMinimize: Iter:   4  F: -1872.037556700906407  |grad|_K:  9.966e-04  alpha:  3.091e-02  linmin: -1.441e-03  t[s]:   1051.25
	FillingsUpdate:  mu: +0.535677069  nElectrons: 341.000000  magneticMoment: [ Abs: 24.05655  Tot: -0.00000 ]
	SubspaceRotationAdjust: set factor to 0.405
ElecMinimize: Iter:   5  F: -1880.075997227183734  |grad|_K:  1.198e-03  alpha:  3.200e-02  linmin:  1.335e-04  t[s]:   1097.80
	FillingsUpdate:  mu: +0.451597003  nElectrons: 341.000000  magneticMoment: [ Abs: 24.71540  Tot: +0.00000 ]
	SubspaceRotationAdjust: set factor to 0.254
ElecMinimize: Iter:   6  F: -1882.271663504766821  |grad|_K:  8.049e-04  alpha:  8.679e-03  linmin: -2.853e-05  t[s]:   1144.22
	FillingsUpdate:  mu: +0.400391863  nElectrons: 341.000000  magneticMoment: [ Abs: 25.44643  Tot: -0.00000 ]
	SubspaceRotationAdjust: set factor to 0.224
ElecMinimize: Iter:   7  F: -1883.699353668536560  |grad|_K:  5.573e-04  alpha:  1.175e-02  linmin: -4.586e-04  t[s]:   1190.89
ElecMinimize: 	Predicted alpha/alphaT>3.000000, increasing alphaT to 3.525772e-02.
	FillingsUpdate:  mu: +0.602380773  nElectrons: 341.000000  magneticMoment: [ Abs: 28.34551  Tot: -0.00000 ]
	SubspaceRotationAdjust: set factor to 0.248
ElecMinimize: Iter:   8  F: -1885.836064726536279  |grad|_K:  5.111e-04  alpha:  4.049e-02  linmin:  2.245e-03  t[s]:   1250.78
	FillingsUpdate:  mu: +0.611193917  nElectrons: 341.000000  magneticMoment: [ Abs: 28.41841  Tot: +0.00000 ]
	SubspaceRotationAdjust: set factor to 0.26
ElecMinimize: Iter:   9  F: -1885.840892392880960  |grad|_K:  5.209e-04  alpha:  7.968e-04  linmin: -1.050e-04  t[s]:   1297.48
ElecMinimize: 	Predicted alpha/alphaT>3.000000, increasing alphaT to 2.390323e-03.
ElecMinimize: 	Predicted alpha/alphaT>3.000000, increasing alphaT to 7.170970e-03.
ElecMinimize: 	Predicted alpha/alphaT>3.000000, increasing alphaT to 2.151291e-02.
ElecMinimize: 	Step increased F by 2.393986e-01, reducing alpha to 3.128765e-03.
	FillingsUpdate:  mu: +0.626142019  nElectrons: 341.000000  magneticMoment: [ Abs: 28.69319  Tot: -0.00000 ]
	SubspaceRotationAdjust: set factor to 0.281
ElecMinimize: Iter:  10  F: -1886.137826618888539  |grad|_K:  5.046e-04  alpha:  3.129e-03  linmin: -2.047e-03  t[s]:   1402.14
ElecMinimize: 	Predicted alpha/alphaT>3.000000, increasing alphaT to 9.386295e-03.
	FillingsUpdate:  mu: +0.643616500  nElectrons: 341.000000  magneticMoment: [ Abs: 28.84988  Tot: -0.00000 ]
	SubspaceRotationAdjust: set factor to 0.206
ElecMinimize: Iter:  11  F: -1887.952798885331276  |grad|_K:  5.284e-04  alpha:  2.785e-02  linmin:  3.190e-03  t[s]:   1462.65
ElecMinimize: 	Bad step direction: g.d > 0.
ElecMinimize: 	Undoing step.
ElecMinimize: 	Step failed: resetting search direction.
	FillingsUpdate:  mu: +0.643616500  nElectrons: 341.000000  magneticMoment: [ Abs: 28.84988  Tot: -0.00000 ]
	SubspaceRotationAdjust: set factor to 0.168
ElecMinimize: Iter:  12  F: -1887.952798885331276  |grad|_K:  4.772e-04  alpha:  0.000e+00
ElecMinimize: 	Predicted alpha/alphaT>3.000000, increasing alphaT to 8.355799e-02.
	FillingsUpdate:  mu: +0.265042555  nElectrons: 341.000000  magneticMoment: [ Abs: 27.38564  Tot: +0.00000 ]
	SubspaceRotationAdjust: set factor to 0.0788
	SubspaceRotationAdjust: resetting CG because factor has changed by 0.0787527
ElecMinimize: 	State modified externally: resetting search direction.
ElecMinimize: Iter:  13  F: -1892.506491694884062  |grad|_K:  1.659e-04  alpha:  1.232e-01
	FillingsUpdate:  mu: +0.236473572  nElectrons: 341.000000  magneticMoment: [ Abs: 29.20599  Tot: +0.00000 ]
	SubspaceRotationAdjust: set factor to 0.0731
ElecMinimize: Iter:  14  F: -1893.370616210056369  |grad|_K:  1.030e-04  alpha:  2.699e-01  linmin:  1.152e-02  t[s]:   1626.35
	FillingsUpdate:  mu: +0.190459017  nElectrons: 341.000000  magneticMoment: [ Abs: 28.53535  Tot: +0.00000 ]
	SubspaceRotationAdjust: set factor to 0.0429
ElecMinimize: Iter:  15  F: -1893.849402897197479  |grad|_K:  8.389e-05  alpha:  4.223e-01  linmin:  4.831e-03  t[s]:   1673.85
	FillingsUpdate:  mu: +0.140340248  nElectrons: 341.000000  magneticMoment: [ Abs: 29.13796  Tot: +0.00000 ]
	SubspaceRotationAdjust: set factor to 0.0583
ElecMinimize: Iter:  16  F: -1894.168237864539378  |grad|_K:  4.741e-05  alpha:  3.917e-01  linmin: -1.889e-04  t[s]:   1720.89
	FillingsUpdate:  mu: +0.128782308  nElectrons: 341.000000  magneticMoment: [ Abs: 29.48271  Tot: -0.00000 ]
	SubspaceRotationAdjust: set factor to 0.0664
ElecMinimize: Iter:  17  F: -1894.320436986903132  |grad|_K:  3.628e-05  alpha:  3.809e-01  linmin:  4.613e-06  t[s]:   1767.81
	FillingsUpdate:  mu: +0.144130231  nElectrons: 341.000000  magneticMoment: [ Abs: 29.82881  Tot: -0.00000 ]
	SubspaceRotationAdjust: set factor to 0.0847
ElecMinimize: Iter:  18  F: -1894.434028349366145  |grad|_K:  3.214e-05  alpha:  4.919e-01  linmin: -3.935e-04  t[s]:   1814.14
	FillingsUpdate:  mu: +0.147740288  nElectrons: 341.000000  magneticMoment: [ Abs: 30.23019  Tot: +0.00000 ]
	SubspaceRotationAdjust: set factor to 0.101
ElecMinimize: Iter:  19  F: -1894.534114937828235  |grad|_K:  3.647e-05  alpha:  5.106e-01  linmin: -2.549e-04  t[s]:   1860.36
	FillingsUpdate:  mu: +0.124714387  nElectrons: 341.000000  magneticMoment: [ Abs: 31.08147  Tot: -0.00000 ]
	SubspaceRotationAdjust: set factor to 0.115
ElecMinimize: Iter:  20  F: -1894.676945192210724  |grad|_K:  4.051e-05  alpha:  5.547e-01  linmin: -1.742e-04  t[s]:   1906.70
	FillingsUpdate:  mu: +0.120076510  nElectrons: 341.000000  magneticMoment: [ Abs: 31.99090  Tot: +0.00000 ]
	SubspaceRotationAdjust: set factor to 0.129
ElecMinimize: Iter:  21  F: -1894.860658607960204  |grad|_K:  4.679e-05  alpha:  5.693e-01  linmin: -1.276e-04  t[s]:   1953.39
	FillingsUpdate:  mu: +0.147840516  nElectrons: 341.000000  magneticMoment: [ Abs: 33.21927  Tot: +0.00000 ]
	SubspaceRotationAdjust: set factor to 0.132
ElecMinimize: Iter:  22  F: -1895.084878592017276  |grad|_K:  6.440e-05  alpha:  4.920e-01  linmin:  5.815e-05  t[s]:   2000.13
ElecMinimize: 	Step increased F by 1.125014e-01, reducing alpha to 1.496342e-03.
ElecMinimize: 	Step increased F by 1.348325e-01, reducing alpha to 1.496342e-04.
ElecMinimize: 	Step increased F by 1.371151e-01, reducing alpha to 1.496342e-05.
ElecMinimize: 	Step failed to reduce F after 3 attempts. Quitting step.
ElecMinimize: 	Undoing step.
ElecMinimize: 	Step failed: resetting search direction.
	FillingsUpdate:  mu: +0.140186125  nElectrons: 341.000000  magneticMoment: [ Abs: 33.21004  Tot: +0.00000 ]
	SubspaceRotationAdjust: set factor to 0.136
ElecMinimize: Iter:  23  F: -1894.947738088957522  |grad|_K:  6.480e-05  alpha:  1.496e-05
	FillingsUpdate:  mu: +0.147067146  nElectrons: 341.000000  magneticMoment: [ Abs: 33.15121  Tot: -0.00000 ]
	SubspaceRotationAdjust: set factor to 0.0956
ElecMinimize: Iter:  24  F: -1895.061039639191904  |grad|_K:  4.718e-05  alpha:  2.064e-01  linmin:  8.306e-03  t[s]:   2182.47
	FillingsUpdate:  mu: +0.133672836  nElectrons: 341.000000  magneticMoment: [ Abs: 33.23655  Tot: -0.00000 ]
	SubspaceRotationAdjust: set factor to 0.083
ElecMinimize: Iter:  25  F: -1895.150358863636257  |grad|_K:  3.058e-05  alpha:  2.695e-01  linmin: -1.528e-04  t[s]:   2228.95
	FillingsUpdate:  mu: +0.124226098  nElectrons: 341.000000  magneticMoment: [ Abs: 33.56655  Tot: +0.00000 ]
	SubspaceRotationAdjust: set factor to 0.103
ElecMinimize: Iter:  26  F: -1895.224241769899663  |grad|_K:  2.912e-05  alpha:  4.495e-01  linmin: -1.330e-04  t[s]:   2275.59
	FillingsUpdate:  mu: +0.138286374  nElectrons: 341.000000  magneticMoment: [ Abs: 33.82667  Tot: +0.00000 ]
	SubspaceRotationAdjust: set factor to 0.106
ElecMinimize: Iter:  27  F: -1895.280660915498629  |grad|_K:  2.704e-05  alpha:  3.756e-01  linmin: -1.348e-04  t[s]:   2321.94
	FillingsUpdate:  mu: +0.129829193  nElectrons: 341.000000  magneticMoment: [ Abs: 34.05667  Tot: -0.00000 ]
	SubspaceRotationAdjust: set factor to 0.115
ElecMinimize: Iter:  28  F: -1895.332526158441851  |grad|_K:  2.368e-05  alpha:  3.988e-01  linmin: -2.011e-04  t[s]:   2368.62
	FillingsUpdate:  mu: +0.127710061  nElectrons: 341.000000  magneticMoment: [ Abs: 34.34095  Tot: +0.00000 ]
	SubspaceRotationAdjust: set factor to 0.139
ElecMinimize: Iter:  29  F: -1895.378445673242823  |grad|_K:  2.232e-05  alpha:  4.523e-01  linmin: -8.072e-05  t[s]:   2415.29
	FillingsUpdate:  mu: +0.136209224  nElectrons: 341.000000  magneticMoment: [ Abs: 34.82983  Tot: -0.00000 ]
	SubspaceRotationAdjust: set factor to 0.143
ElecMinimize: Iter:  30  F: -1895.425384455264748  |grad|_K:  2.682e-05  alpha:  5.270e-01  linmin: -1.523e-04  t[s]:   2462.35
	FillingsUpdate:  mu: +0.144996717  nElectrons: 341.000000  magneticMoment: [ Abs: 35.13293  Tot: -0.00000 ]
	SubspaceRotationAdjust: set factor to 0.124
ElecMinimize: Iter:  31  F: -1895.464338574019848  |grad|_K:  2.302e-05  alpha:  2.494e-01  linmin: -6.536e-04  t[s]:   2509.09
	FillingsUpdate:  mu: +0.127779819  nElectrons: 341.000000  magneticMoment: [ Abs: 35.56514  Tot: -0.00000 ]
	SubspaceRotationAdjust: set factor to 0.132
ElecMinimize: Iter:  32  F: -1895.499833013385796  |grad|_K:  2.194e-05  alpha:  3.274e-01  linmin: -9.177e-05  t[s]:   2556.04
	FillingsUpdate:  mu: +0.127748305  nElectrons: 341.000000  magneticMoment: [ Abs: 35.92068  Tot: -0.00000 ]
	SubspaceRotationAdjust: set factor to 0.145
ElecMinimize: Iter:  33  F: -1895.525316102057786  |grad|_K:  1.663e-05  alpha:  2.901e-01  linmin:  1.606e-04  t[s]:   2603.24
	FillingsUpdate:  mu: +0.130746503  nElectrons: 341.000000  magneticMoment: [ Abs: 36.08025  Tot: +0.00000 ]
	SubspaceRotationAdjust: set factor to 0.151
ElecMinimize: Iter:  34  F: -1895.534951585692625  |grad|_K:  1.213e-05  alpha:  2.008e-01  linmin:  6.887e-07  t[s]:   2650.15
	FillingsUpdate:  mu: +0.130026904  nElectrons: 341.000000  magneticMoment: [ Abs: 36.21574  Tot: -0.00000 ]
	SubspaceRotationAdjust: set factor to 0.195
ElecMinimize: Iter:  35  F: -1895.540215716491275  |grad|_K:  9.364e-06  alpha:  2.048e-01  linmin:  5.869e-05  t[s]:   2696.93
	FillingsUpdate:  mu: +0.126801055  nElectrons: 341.000000  magneticMoment: [ Abs: 36.35047  Tot: -0.00000 ]
	SubspaceRotationAdjust: set factor to 0.23
ElecMinimize: Iter:  36  F: -1895.543500689505436  |grad|_K:  8.653e-06  alpha:  2.156e-01  linmin: -1.252e-04  t[s]:   2743.83
	FillingsUpdate:  mu: +0.126707119  nElectrons: 341.000000  magneticMoment: [ Abs: 36.51944  Tot: -0.00000 ]
	SubspaceRotationAdjust: set factor to 0.28
ElecMinimize: Iter:  37  F: -1895.546475281230869  |grad|_K:  8.449e-06  alpha:  2.248e-01  linmin:  1.379e-04  t[s]:   2790.37
	FillingsUpdate:  mu: +0.127078176  nElectrons: 341.000000  magneticMoment: [ Abs: 36.77880  Tot: -0.00000 ]
	SubspaceRotationAdjust: set factor to 0.267
ElecMinimize: Iter:  38  F: -1895.549530195263060  |grad|_K:  9.274e-06  alpha:  2.479e-01  linmin:  4.904e-05  t[s]:   2837.27
	FillingsUpdate:  mu: +0.125324861  nElectrons: 341.000000  magneticMoment: [ Abs: 37.08775  Tot: +0.00000 ]
	SubspaceRotationAdjust: set factor to 0.294
ElecMinimize: Iter:  39  F: -1895.552300954235761  |grad|_K:  9.615e-06  alpha:  1.867e-01  linmin: -1.191e-04  t[s]:   2884.67
	FillingsUpdate:  mu: +0.126420506  nElectrons: 341.000000  magneticMoment: [ Abs: 37.52896  Tot: -0.00000 ]
	SubspaceRotationAdjust: set factor to 0.382
ElecMinimize: Iter:  40  F: -1895.555815853887680  |grad|_K:  9.675e-06  alpha:  2.152e-01  linmin: -2.999e-05  t[s]:   2931.48
	FillingsUpdate:  mu: +0.126528161  nElectrons: 341.000000  magneticMoment: [ Abs: 38.10153  Tot: -0.00000 ]
	SubspaceRotationAdjust: set factor to 0.484
ElecMinimize: Iter:  41  F: -1895.559669517560224  |grad|_K:  1.079e-05  alpha:  2.352e-01  linmin:  8.976e-05  t[s]:   2978.41
	FillingsUpdate:  mu: +0.125842305  nElectrons: 341.000000  magneticMoment: [ Abs: 38.85498  Tot: -0.00000 ]
	SubspaceRotationAdjust: set factor to 0.524
ElecMinimize: Iter:  42  F: -1895.563839398015261  |grad|_K:  1.363e-05  alpha:  2.080e-01  linmin: -4.886e-05  t[s]:   3025.45
	FillingsUpdate:  mu: +0.127174136  nElectrons: 341.000000  magneticMoment: [ Abs: 39.41784  Tot: -0.00000 ]
	SubspaceRotationAdjust: set factor to 0.464
ElecMinimize: Iter:  43  F: -1895.566959225603341  |grad|_K:  1.630e-05  alpha:  9.766e-02  linmin:  2.536e-04  t[s]:   3072.13
	FillingsUpdate:  mu: +0.123221154  nElectrons: 341.000000  magneticMoment: [ Abs: 40.07829  Tot: +0.00000 ]
	SubspaceRotationAdjust: set factor to 0.502
ElecMinimize: Iter:  44  F: -1895.570929307284132  |grad|_K:  1.345e-05  alpha:  8.786e-02  linmin:  3.583e-04  t[s]:   3119.35
	FillingsUpdate:  mu: +0.126424370  nElectrons: 341.000000  magneticMoment: [ Abs: 40.35204  Tot: +0.00000 ]
	SubspaceRotationAdjust: set factor to 0.484
ElecMinimize: Iter:  45  F: -1895.572761209188002  |grad|_K:  1.650e-05  alpha:  6.175e-02  linmin:  4.928e-05  t[s]:   3166.06
	FillingsUpdate:  mu: +0.125355343  nElectrons: 341.000000  magneticMoment: [ Abs: 40.62761  Tot: +0.00000 ]
	SubspaceRotationAdjust: set factor to 0.501
ElecMinimize: Iter:  46  F: -1895.575069335828630  |grad|_K:  1.526e-05  alpha:  5.005e-02  linmin: -6.725e-05  t[s]:   3212.69
	FillingsUpdate:  mu: +0.129462630  nElectrons: 341.000000  magneticMoment: [ Abs: 40.79601  Tot: +0.00000 ]
	SubspaceRotationAdjust: set factor to 0.597
	SubspaceRotationAdjust: resetting CG because factor has changed by 7.58178
ElecMinimize: 	State modified externally: resetting search direction.
ElecMinimize: Iter:  47  F: -1895.576934860078836  |grad|_K:  1.488e-05  alpha:  4.461e-02
ElecMinimize: 	Predicted alpha/alphaT>3.000000, increasing alphaT to 1.338330e-01.
	FillingsUpdate:  mu: +0.130509053  nElectrons: 341.000000  magneticMoment: [ Abs: 40.87882  Tot: -0.00000 ]
	SubspaceRotationAdjust: set factor to 0.352
ElecMinimize: Iter:  48  F: -1895.582131161236248  |grad|_K:  2.332e-05  alpha:  1.341e-01  linmin:  1.831e-04  t[s]:   3339.52
	FillingsUpdate:  mu: +0.123209263  nElectrons: 341.000000  magneticMoment: [ Abs: 40.88388  Tot: -0.00000 ]
	SubspaceRotationAdjust: set factor to 0.239
ElecMinimize: Iter:  49  F: -1895.590262648613361  |grad|_K:  1.491e-05  alpha:  8.687e-02  linmin:  3.921e-05  t[s]:   3386.11
ElecMinimize: 	Predicted alpha/alphaT>3.000000, increasing alphaT to 2.605964e-01.
	FillingsUpdate:  mu: +0.130974898  nElectrons: 341.000000  magneticMoment: [ Abs: 41.06878  Tot: -0.00000 ]
	SubspaceRotationAdjust: set factor to 0.175
ElecMinimize: Iter:  50  F: -1895.604182067522743  |grad|_K:  1.222e-05  alpha:  3.548e-01  linmin: -2.669e-04  t[s]:   3445.56
	FillingsUpdate:  mu: +0.138974369  nElectrons: 341.000000  magneticMoment: [ Abs: 41.07168  Tot: -0.00000 ]
	SubspaceRotationAdjust: set factor to 0.123
ElecMinimize: Iter:  51  F: -1895.610696935211763  |grad|_K:  1.254e-05  alpha:  2.427e-01  linmin: -1.149e-04  t[s]:   3492.10
	FillingsUpdate:  mu: +0.128006497  nElectrons: 341.000000  magneticMoment: [ Abs: 41.16623  Tot: -0.00000 ]
	SubspaceRotationAdjust: set factor to 0.0881
ElecMinimize: Iter:  52  F: -1895.614914945025248  |grad|_K:  7.046e-06  alpha:  1.483e-01  linmin: -5.382e-05  t[s]:   3538.71
	FillingsUpdate:  mu: +0.126935808  nElectrons: 341.000000  magneticMoment: [ Abs: 41.18682  Tot: +0.00000 ]
	SubspaceRotationAdjust: set factor to 0.12
ElecMinimize: Iter:  53  F: -1895.617507200403224  |grad|_K:  4.824e-06  alpha:  2.968e-01  linmin: -1.332e-04  t[s]:   3585.37
	FillingsUpdate:  mu: +0.127857910  nElectrons: 341.000000  magneticMoment: [ Abs: 41.17179  Tot: +0.00000 ]
	SubspaceRotationAdjust: set factor to 0.11
ElecMinimize: Iter:  54  F: -1895.618589953400260  |grad|_K:  4.103e-06  alpha:  2.645e-01  linmin:  9.877e-05  t[s]:   3631.75
	FillingsUpdate:  mu: +0.126557136  nElectrons: 341.000000  magneticMoment: [ Abs: 41.20094  Tot: +0.00000 ]
	SubspaceRotationAdjust: set factor to 0.098
ElecMinimize: Iter:  55  F: -1895.619301770196216  |grad|_K:  3.234e-06  alpha:  2.423e-01  linmin:  8.174e-05  t[s]:   3678.12
	FillingsUpdate:  mu: +0.126018470  nElectrons: 341.000000  magneticMoment: [ Abs: 41.21201  Tot: -0.00000 ]
	SubspaceRotationAdjust: set factor to 0.117
ElecMinimize: Iter:  56  F: -1895.620015609860729  |grad|_K:  3.063e-06  alpha:  3.910e-01  linmin: -4.996e-05  t[s]:   3724.67
	FillingsUpdate:  mu: +0.127276509  nElectrons: 341.000000  magneticMoment: [ Abs: 41.22968  Tot: -0.00000 ]
	SubspaceRotationAdjust: set factor to 0.126
ElecMinimize: Iter:  57  F: -1895.620752429729691  |grad|_K:  3.536e-06  alpha:  4.481e-01  linmin:  1.835e-05  t[s]:   3771.36
	FillingsUpdate:  mu: +0.127918642  nElectrons: 341.000000  magneticMoment: [ Abs: 41.28787  Tot: -0.00000 ]
	SubspaceRotationAdjust: set factor to 0.106
ElecMinimize: Iter:  58  F: -1895.621455209968190  |grad|_K:  3.829e-06  alpha:  3.213e-01  linmin:  9.294e-06  t[s]:   3818.48
	FillingsUpdate:  mu: +0.126471403  nElectrons: 341.000000  magneticMoment: [ Abs: 41.31293  Tot: +0.00000 ]
	SubspaceRotationAdjust: set factor to 0.0923
ElecMinimize: Iter:  59  F: -1895.622124444619658  |grad|_K:  3.278e-06  alpha:  2.601e-01  linmin:  6.832e-05  t[s]:   3865.36
	FillingsUpdate:  mu: +0.125789650  nElectrons: 341.000000  magneticMoment: [ Abs: 41.37911  Tot: -0.00000 ]
	SubspaceRotationAdjust: set factor to 0.108
ElecMinimize: Iter:  60  F: -1895.622928155582258  |grad|_K:  3.248e-06  alpha:  4.287e-01  linmin: -6.276e-05  t[s]:   3912.43
	FillingsUpdate:  mu: +0.127185268  nElectrons: 341.000000  magneticMoment: [ Abs: 41.46218  Tot: -0.00000 ]
	SubspaceRotationAdjust: set factor to 0.105
ElecMinimize: Iter:  61  F: -1895.623684047169945  |grad|_K:  3.439e-06  alpha:  4.082e-01  linmin: -1.550e-04  t[s]:   3959.40
	FillingsUpdate:  mu: +0.127203596  nElectrons: 341.000000  magneticMoment: [ Abs: 41.50614  Tot: +0.00000 ]
	SubspaceRotationAdjust: set factor to 0.0875
ElecMinimize: Iter:  62  F: -1895.624318702104347  |grad|_K:  3.401e-06  alpha:  2.990e-01  linmin:  6.166e-05  t[s]:   4006.15
	FillingsUpdate:  mu: +0.126109055  nElectrons: 341.000000  magneticMoment: [ Abs: 41.58970  Tot: -0.00000 ]
	SubspaceRotationAdjust: set factor to 0.0981
ElecMinimize: Iter:  63  F: -1895.625017797508235  |grad|_K:  3.070e-06  alpha:  3.460e-01  linmin: -1.825e-04  t[s]:   4053.02
	FillingsUpdate:  mu: +0.127196355  nElectrons: 341.000000  magneticMoment: [ Abs: 41.66342  Tot: +0.00000 ]
	SubspaceRotationAdjust: set factor to 0.107
ElecMinimize: Iter:  64  F: -1895.625663869421260  |grad|_K:  3.018e-06  alpha:  3.847e-01  linmin: -1.308e-04  t[s]:   4099.38
	FillingsUpdate:  mu: +0.127252472  nElectrons: 341.000000  magneticMoment: [ Abs: 41.70467  Tot: -0.00000 ]
	SubspaceRotationAdjust: set factor to 0.0981
ElecMinimize: Iter:  65  F: -1895.626165586782236  |grad|_K:  2.888e-06  alpha:  3.087e-01  linmin:  1.174e-04  t[s]:   4146.52
	FillingsUpdate:  mu: +0.126696517  nElectrons: 341.000000  magneticMoment: [ Abs: 41.76352  Tot: -0.00000 ]
	SubspaceRotationAdjust: set factor to 0.103
ElecMinimize: Iter:  66  F: -1895.626583459930089  |grad|_K:  2.524e-06  alpha:  2.897e-01  linmin: -1.027e-04  t[s]:   4193.71
	FillingsUpdate:  mu: +0.127522917  nElectrons: 341.000000  magneticMoment: [ Abs: 41.81854  Tot: +0.00000 ]
	SubspaceRotationAdjust: set factor to 0.123
ElecMinimize: Iter:  67  F: -1895.627036759324938  |grad|_K:  2.518e-06  alpha:  4.034e-01  linmin:  3.644e-05  t[s]:   4240.20
	FillingsUpdate:  mu: +0.128475859  nElectrons: 341.000000  magneticMoment: [ Abs: 41.84710  Tot: +0.00000 ]
	SubspaceRotationAdjust: set factor to 0.116
ElecMinimize: Iter:  68  F: -1895.627423459588044  |grad|_K:  2.981e-06  alpha:  3.490e-01  linmin:  7.531e-05  t[s]:   4287.28
	FillingsUpdate:  mu: +0.127737829  nElectrons: 341.000000  magneticMoment: [ Abs: 41.89014  Tot: +0.00000 ]
	SubspaceRotationAdjust: set factor to 0.112
ElecMinimize: Iter:  69  F: -1895.627822914455464  |grad|_K:  2.551e-06  alpha:  2.611e-01  linmin: -3.508e-05  t[s]:   4334.63
	FillingsUpdate:  mu: +0.127978033  nElectrons: 341.000000  magneticMoment: [ Abs: 41.91595  Tot: +0.00000 ]
	SubspaceRotationAdjust: set factor to 0.133
ElecMinimize: Iter:  70  F: -1895.628279298991174  |grad|_K:  2.419e-06  alpha:  3.981e-01  linmin: -5.413e-05  t[s]:   4381.89
	FillingsUpdate:  mu: +0.128798549  nElectrons: 341.000000  magneticMoment: [ Abs: 41.92773  Tot: +0.00000 ]
	SubspaceRotationAdjust: set factor to 0.131
ElecMinimize: Iter:  71  F: -1895.628638388255467  |grad|_K:  2.651e-06  alpha:  3.483e-01  linmin:  2.119e-05  t[s]:   4429.11
	FillingsUpdate:  mu: +0.129137133  nElectrons: 341.000000  magneticMoment: [ Abs: 41.95245  Tot: +0.00000 ]
	SubspaceRotationAdjust: set factor to 0.109
ElecMinimize: Iter:  72  F: -1895.628931550726975  |grad|_K:  2.519e-06  alpha:  2.384e-01  linmin: -8.639e-08  t[s]:   4476.36
	FillingsUpdate:  mu: +0.127952318  nElectrons: 341.000000  magneticMoment: [ Abs: 41.96096  Tot: -0.00000 ]
	SubspaceRotationAdjust: set factor to 0.121
ElecMinimize: Iter:  73  F: -1895.629308211547595  |grad|_K:  2.248e-06  alpha:  3.394e-01  linmin:  4.204e-06  t[s]:   4523.51
	FillingsUpdate:  mu: +0.128111491  nElectrons: 341.000000  magneticMoment: [ Abs: 41.96349  Tot: +0.00000 ]
	SubspaceRotationAdjust: set factor to 0.138
ElecMinimize: Iter:  74  F: -1895.629667648941677  |grad|_K:  2.321e-06  alpha:  4.065e-01  linmin: -1.847e-05  t[s]:   4571.03
	FillingsUpdate:  mu: +0.129784841  nElectrons: 341.000000  magneticMoment: [ Abs: 41.97000  Tot: +0.00000 ]
	SubspaceRotationAdjust: set factor to 0.125
ElecMinimize: Iter:  75  F: -1895.629972037857897  |grad|_K:  2.699e-06  alpha:  3.211e-01  linmin:  3.603e-05  t[s]:   4617.89
	FillingsUpdate:  mu: +0.128576539  nElectrons: 341.000000  magneticMoment: [ Abs: 41.95708  Tot: +0.00000 ]
	SubspaceRotationAdjust: set factor to 0.112
ElecMinimize: Iter:  76  F: -1895.630276199408399  |grad|_K:  2.303e-06  alpha:  2.412e-01  linmin: -3.464e-05  t[s]:   4664.99
	FillingsUpdate:  mu: +0.128824667  nElectrons: 341.000000  magneticMoment: [ Abs: 41.94403  Tot: +0.00000 ]
	SubspaceRotationAdjust: set factor to 0.13
ElecMinimize: Iter:  77  F: -1895.630657099206246  |grad|_K:  2.171e-06  alpha:  4.104e-01  linmin:  6.060e-05  t[s]:   4712.15
	FillingsUpdate:  mu: +0.129584365  nElectrons: 341.000000  magneticMoment: [ Abs: 41.92717  Tot: -0.00000 ]
	SubspaceRotationAdjust: set factor to 0.143
ElecMinimize: Iter:  78  F: -1895.631009461494386  |grad|_K:  2.428e-06  alpha:  4.308e-01  linmin:  8.197e-05  t[s]:   4758.98
	FillingsUpdate:  mu: +0.129748220  nElectrons: 341.000000  magneticMoment: [ Abs: 41.90166  Tot: -0.00000 ]
	SubspaceRotationAdjust: set factor to 0.125
ElecMinimize: Iter:  79  F: -1895.631324798312335  |grad|_K:  2.692e-06  alpha:  3.159e-01  linmin: -7.175e-05  t[s]:   4805.63
	FillingsUpdate:  mu: +0.129716480  nElectrons: 341.000000  magneticMoment: [ Abs: 41.88458  Tot: -0.00000 ]
	SubspaceRotationAdjust: set factor to 0.101
ElecMinimize: Iter:  80  F: -1895.631643122925880  |grad|_K:  2.396e-06  alpha:  2.449e-01  linmin:  9.393e-05  t[s]:   4852.79
	FillingsUpdate:  mu: +0.129395564  nElectrons: 341.000000  magneticMoment: [ Abs: 41.85366  Tot: -0.00000 ]
	SubspaceRotationAdjust: set factor to 0.121
ElecMinimize: Iter:  81  F: -1895.632004339608557  |grad|_K:  2.166e-06  alpha:  3.615e-01  linmin: -1.145e-04  t[s]:   4900.05
	FillingsUpdate:  mu: +0.129659451  nElectrons: 341.000000  magneticMoment: [ Abs: 41.82329  Tot: +0.00000 ]
	SubspaceRotationAdjust: set factor to 0.128
ElecMinimize: Iter:  82  F: -1895.632326472880777  |grad|_K:  2.070e-06  alpha:  3.855e-01  linmin: -1.439e-04  t[s]:   4947.15
	FillingsUpdate:  mu: +0.130085467  nElectrons: 341.000000  magneticMoment: [ Abs: 41.80327  Tot: -0.00000 ]
	SubspaceRotationAdjust: set factor to 0.119
ElecMinimize: Iter:  83  F: -1895.632551586998261  |grad|_K:  2.056e-06  alpha:  2.898e-01  linmin:  7.373e-05  t[s]:   4993.88
	FillingsUpdate:  mu: +0.129706972  nElectrons: 341.000000  magneticMoment: [ Abs: 41.77824  Tot: +0.00000 ]
	SubspaceRotationAdjust: set factor to 0.133
ElecMinimize: Iter:  84  F: -1895.632763992691935  |grad|_K:  1.786e-06  alpha:  2.899e-01  linmin: -2.002e-04  t[s]:   5040.68
	FillingsUpdate:  mu: +0.129957779  nElectrons: 341.000000  magneticMoment: [ Abs: 41.75398  Tot: +0.00000 ]
	SubspaceRotationAdjust: set factor to 0.159
ElecMinimize: Iter:  85  F: -1895.632975298174415  |grad|_K:  1.718e-06  alpha:  3.686e-01  linmin: -2.497e-05  t[s]:   5087.64
	FillingsUpdate:  mu: +0.130454310  nElectrons: 341.000000  magneticMoment: [ Abs: 41.73736  Tot: -0.00000 ]
	SubspaceRotationAdjust: set factor to 0.147
ElecMinimize: Iter:  86  F: -1895.633147657191557  |grad|_K:  1.972e-06  alpha:  3.309e-01  linmin:  1.714e-04  t[s]:   5134.56
	FillingsUpdate:  mu: +0.130350053  nElectrons: 341.000000  magneticMoment: [ Abs: 41.72726  Tot: +0.00000 ]
	SubspaceRotationAdjust: set factor to 0.153
ElecMinimize: Iter:  87  F: -1895.633305405791816  |grad|_K:  1.755e-06  alpha:  2.426e-01  linmin: -8.244e-05  t[s]:   5181.26
	FillingsUpdate:  mu: +0.130447180  nElectrons: 341.000000  magneticMoment: [ Abs: 41.72653  Tot: +0.00000 ]
	SubspaceRotationAdjust: set factor to 0.185
ElecMinimize: Iter:  88  F: -1895.633509178994700  |grad|_K:  1.701e-06  alpha:  3.766e-01  linmin:  1.443e-04  t[s]:   5227.93
	FillingsUpdate:  mu: +0.130860285  nElectrons: 341.000000  magneticMoment: [ Abs: 41.73606  Tot: -0.00000 ]
	SubspaceRotationAdjust: set factor to 0.189
ElecMinimize: Iter:  89  F: -1895.633695235619143  |grad|_K:  2.074e-06  alpha:  3.750e-01  linmin:  2.626e-04  t[s]:   5274.91
	FillingsUpdate:  mu: +0.130737748  nElectrons: 341.000000  magneticMoment: [ Abs: 41.74738  Tot: -0.00000 ]
	SubspaceRotationAdjust: set factor to 0.173
ElecMinimize: Iter:  90  F: -1895.633848536164578  |grad|_K:  1.987e-06  alpha:  2.211e-01  linmin:  4.734e-05  t[s]:   5322.60
	FillingsUpdate:  mu: +0.130758824  nElectrons: 341.000000  magneticMoment: [ Abs: 41.77100  Tot: -0.00000 ]
	SubspaceRotationAdjust: set factor to 0.19
ElecMinimize: Iter:  91  F: -1895.634064894676158  |grad|_K:  1.916e-06  alpha:  3.184e-01  linmin:  1.309e-04  t[s]:   5369.88
	FillingsUpdate:  mu: +0.130744334  nElectrons: 341.000000  magneticMoment: [ Abs: 41.78095  Tot: -0.00000 ]
	SubspaceRotationAdjust: set factor to 0.206
ElecMinimize: Iter:  92  F: -1895.634299999755967  |grad|_K:  1.947e-06  alpha:  3.757e-01  linmin:  1.004e-04  t[s]:   5416.80
	FillingsUpdate:  mu: +0.130209451  nElectrons: 341.000000  magneticMoment: [ Abs: 41.78675  Tot: +0.00000 ]
	SubspaceRotationAdjust: set factor to 0.227
ElecMinimize: Iter:  93  F: -1895.634543473302529  |grad|_K:  2.072e-06  alpha:  3.739e-01  linmin:  6.247e-06  t[s]:   5463.39
	FillingsUpdate:  mu: +0.130231269  nElectrons: 341.000000  magneticMoment: [ Abs: 41.79730  Tot: -0.00000 ]
	SubspaceRotationAdjust: set factor to 0.245
ElecMinimize: Iter:  94  F: -1895.634804141404629  |grad|_K:  2.388e-06  alpha:  3.466e-01  linmin:  8.318e-05  t[s]:   5510.42
	FillingsUpdate:  mu: +0.130214459  nElectrons: 341.000000  magneticMoment: [ Abs: 41.81872  Tot: -0.00000 ]
	SubspaceRotationAdjust: set factor to 0.217
ElecMinimize: Iter:  95  F: -1895.635006671177280  |grad|_K:  2.551e-06  alpha:  2.114e-01  linmin:  2.197e-05  t[s]:   5557.64
	FillingsUpdate:  mu: +0.130701924  nElectrons: 341.000000  magneticMoment: [ Abs: 41.82180  Tot: -0.00000 ]
	SubspaceRotationAdjust: set factor to 0.198
ElecMinimize: Iter:  96  F: -1895.635203680070845  |grad|_K:  2.137e-06  alpha:  1.710e-01  linmin:  9.342e-05  t[s]:   5604.74
	FillingsUpdate:  mu: +0.130256290  nElectrons: 341.000000  magneticMoment: [ Abs: 41.82815  Tot: +0.00000 ]
	SubspaceRotationAdjust: set factor to 0.256
ElecMinimize: Iter:  97  F: -1895.635395947600955  |grad|_K:  2.000e-06  alpha:  2.482e-01  linmin:  2.581e-04  t[s]:   5651.11
	FillingsUpdate:  mu: +0.129829929  nElectrons: 341.000000  magneticMoment: [ Abs: 41.84418  Tot: +0.00000 ]
	SubspaceRotationAdjust: set factor to 0.271
ElecMinimize: Iter:  98  F: -1895.635555123800259  |grad|_K:  2.068e-06  alpha:  2.376e-01  linmin:  1.894e-05  t[s]:   5697.67
	FillingsUpdate:  mu: +0.130133879  nElectrons: 341.000000  magneticMoment: [ Abs: 41.86911  Tot: -0.00000 ]
	SubspaceRotationAdjust: set factor to 0.259
ElecMinimize: Iter:  99  F: -1895.635685581667531  |grad|_K:  2.174e-06  alpha:  1.726e-01  linmin:  5.794e-06  t[s]:   5744.86
	FillingsUpdate:  mu: +0.130743666  nElectrons: 341.000000  magneticMoment: [ Abs: 41.90190  Tot: +0.00000 ]
	SubspaceRotationAdjust: set factor to 0.319
ElecMinimize: Iter: 100  F: -1895.635825352890151  |grad|_K:  1.858e-06  alpha:  1.695e-01  linmin: -2.742e-04  t[s]:   5791.99
	FillingsUpdate:  mu: +0.130959769  nElectrons: 341.000000  magneticMoment: [ Abs: 41.92641  Tot: +0.00000 ]
	SubspaceRotationAdjust: set factor to 0.399
ElecMinimize: Iter: 101  F: -1895.635988808734737  |grad|_K:  1.773e-06  alpha:  2.593e-01  linmin:  1.302e-05  t[s]:   5838.57
	FillingsUpdate:  mu: +0.131090458  nElectrons: 341.000000  magneticMoment: [ Abs: 41.94994  Tot: +0.00000 ]
	SubspaceRotationAdjust: set factor to 0.359
ElecMinimize: Iter: 102  F: -1895.636124448541068  |grad|_K:  2.178e-06  alpha:  2.467e-01  linmin:  9.769e-05  t[s]:   5884.89
	FillingsUpdate:  mu: +0.131304967  nElectrons: 341.000000  magneticMoment: [ Abs: 41.96810  Tot: +0.00000 ]
	SubspaceRotationAdjust: set factor to 0.354
ElecMinimize: Iter: 103  F: -1895.636199682367533  |grad|_K:  1.939e-06  alpha:  8.509e-02  linmin: -3.908e-04  t[s]:   5931.49
	FillingsUpdate:  mu: +0.131786372  nElectrons: 341.000000  magneticMoment: [ Abs: 42.00844  Tot: +0.00000 ]
	SubspaceRotationAdjust: set factor to 0.419
ElecMinimize: Iter: 104  F: -1895.636320344954811  |grad|_K:  1.827e-06  alpha:  1.726e-01  linmin:  1.834e-04  t[s]:   5978.77
	FillingsUpdate:  mu: +0.131488933  nElectrons: 341.000000  magneticMoment: [ Abs: 42.03826  Tot: +0.00000 ]
	SubspaceRotationAdjust: set factor to 0.381
ElecMinimize: Iter: 105  F: -1895.636393741776828  |grad|_K:  2.018e-06  alpha:  1.323e-01  linmin: -5.994e-05  t[s]:   6025.57
	FillingsUpdate:  mu: +0.131442649  nElectrons: 341.000000  magneticMoment: [ Abs: 42.06359  Tot: +0.00000 ]
	SubspaceRotationAdjust: set factor to 0.416
ElecMinimize: Iter: 106  F: -1895.636455515360922  |grad|_K:  1.698e-06  alpha:  8.014e-02  linmin: -1.668e-04  t[s]:   6072.51
	FillingsUpdate:  mu: +0.131516735  nElectrons: 341.000000  magneticMoment: [ Abs: 42.10512  Tot: -0.00000 ]
	SubspaceRotationAdjust: set factor to 0.338
ElecMinimize: Iter: 107  F: -1895.636528813421819  |grad|_K:  1.899e-06  alpha:  1.433e-01  linmin:  2.879e-04  t[s]:   6119.18
	FillingsUpdate:  mu: +0.131370205  nElectrons: 341.000000  magneticMoment: [ Abs: 42.13765  Tot: +0.00000 ]
	SubspaceRotationAdjust: set factor to 0.388
ElecMinimize: Iter: 108  F: -1895.636571546133837  |grad|_K:  1.632e-06  alpha:  7.539e-02  linmin:  8.809e-05  t[s]:   6166.06
	FillingsUpdate:  mu: +0.131128343  nElectrons: 341.000000  magneticMoment: [ Abs: 42.18537  Tot: +0.00000 ]
	SubspaceRotationAdjust: set factor to 0.411
ElecMinimize: Iter: 109  F: -1895.636638274918141  |grad|_K:  1.525e-06  alpha:  1.431e-01  linmin: -1.411e-04  t[s]:   6212.54
	FillingsUpdate:  mu: +0.131035455  nElectrons: 341.000000  magneticMoment: [ Abs: 42.21140  Tot: -0.00000 ]
	SubspaceRotationAdjust: set factor to 0.329
ElecMinimize: Iter: 110  F: -1895.636683104757822  |grad|_K:  1.668e-06  alpha:  1.069e-01  linmin:  1.451e-06  t[s]:   6259.17
	FillingsUpdate:  mu: +0.130650384  nElectrons: 341.000000  magneticMoment: [ Abs: 42.23463  Tot: -0.00000 ]
	SubspaceRotationAdjust: set factor to 0.422
ElecMinimize: Iter: 111  F: -1895.636728023766182  |grad|_K:  1.274e-06  alpha:  9.341e-02  linmin: -1.712e-04  t[s]:   6305.59
	FillingsUpdate:  mu: +0.131289426  nElectrons: 341.000000  magneticMoment: [ Abs: 42.26164  Tot: +0.00000 ]
	SubspaceRotationAdjust: set factor to 0.429
ElecMinimize: Iter: 112  F: -1895.636777134963950  |grad|_K:  1.341e-06  alpha:  1.676e-01  linmin: -2.642e-05  t[s]:   6352.87
	FillingsUpdate:  mu: +0.131653631  nElectrons: 341.000000  magneticMoment: [ Abs: 42.27994  Tot: +0.00000 ]
	SubspaceRotationAdjust: set factor to 0.335
ElecMinimize: Iter: 113  F: -1895.636810193487463  |grad|_K:  1.530e-06  alpha:  1.006e-01  linmin: -6.867e-05  t[s]:   6399.76
	FillingsUpdate:  mu: +0.130886931  nElectrons: 341.000000  magneticMoment: [ Abs: 42.30116  Tot: +0.00000 ]
	SubspaceRotationAdjust: set factor to 0.498
ElecMinimize: Iter: 114  F: -1895.636852258142653  |grad|_K:  1.203e-06  alpha:  1.015e-01  linmin: -1.501e-04  t[s]:   6447.00
	FillingsUpdate:  mu: +0.130733851  nElectrons: 341.000000  magneticMoment: [ Abs: 42.32032  Tot: +0.00000 ]
	SubspaceRotationAdjust: set factor to 0.4
ElecMinimize: Iter: 115  F: -1895.636890974583139  |grad|_K:  1.496e-06  alpha:  1.451e-01  linmin: -3.777e-04  t[s]:   6493.69
	FillingsUpdate:  mu: +0.131332164  nElectrons: 341.000000  magneticMoment: [ Abs: 42.33502  Tot: +0.00000 ]
	SubspaceRotationAdjust: set factor to 0.371
ElecMinimize: Iter: 116  F: -1895.636921977030624  |grad|_K:  1.169e-06  alpha:  6.938e-02  linmin: -2.215e-04  t[s]:   6540.76
	FillingsUpdate:  mu: +0.131764597  nElectrons: 341.000000  magneticMoment: [ Abs: 42.34838  Tot: -0.00000 ]
	SubspaceRotationAdjust: set factor to 0.373
ElecMinimize: Iter: 117  F: -1895.636965468739163  |grad|_K:  1.331e-06  alpha:  1.772e-01  linmin:  1.281e-04  t[s]:   6587.41
	FillingsUpdate:  mu: +0.131312229  nElectrons: 341.000000  magneticMoment: [ Abs: 42.35409  Tot: -0.00000 ]
	SubspaceRotationAdjust: set factor to 0.36
ElecMinimize: Iter: 118  F: -1895.636992153920801  |grad|_K:  1.210e-06  alpha:  9.510e-02  linmin:  1.061e-04  t[s]:   6634.42
	FillingsUpdate:  mu: +0.131196193  nElectrons: 341.000000  magneticMoment: [ Abs: 42.36598  Tot: +0.00000 ]
	SubspaceRotationAdjust: set factor to 0.458
ElecMinimize: Iter: 119  F: -1895.637032972482757  |grad|_K:  1.065e-06  alpha:  1.648e-01  linmin:  8.035e-05  t[s]:   6681.41
	FillingsUpdate:  mu: +0.131701476  nElectrons: 341.000000  magneticMoment: [ Abs: 42.37624  Tot: +0.00000 ]
	SubspaceRotationAdjust: set factor to 0.41
ElecMinimize: Iter: 120  F: -1895.637065007835645  |grad|_K:  1.306e-06  alpha:  1.643e-01  linmin:  8.511e-05  t[s]:   6728.71
	FillingsUpdate:  mu: +0.131248740  nElectrons: 341.000000  magneticMoment: [ Abs: 42.37805  Tot: +0.00000 ]
	SubspaceRotationAdjust: set factor to 0.452
ElecMinimize: Iter: 121  F: -1895.637093545256448  |grad|_K:  1.118e-06  alpha:  1.015e-01  linmin:  2.334e-05  t[s]:   6775.67
	FillingsUpdate:  mu: +0.131230429  nElectrons: 341.000000  magneticMoment: [ Abs: 42.37485  Tot: -0.00000 ]
	SubspaceRotationAdjust: set factor to 0.508
ElecMinimize: Iter: 122  F: -1895.637128091187151  |grad|_K:  1.126e-06  alpha:  1.609e-01  linmin:  1.263e-04  t[s]:   6823.06
	FillingsUpdate:  mu: +0.131789423  nElectrons: 341.000000  magneticMoment: [ Abs: 42.37708  Tot: -0.00000 ]
	SubspaceRotationAdjust: set factor to 0.576
ElecMinimize: Iter: 123  F: -1895.637163232398052  |grad|_K:  1.240e-06  alpha:  1.632e-01  linmin:  5.578e-05  t[s]:   6870.07
	FillingsUpdate:  mu: +0.131425922  nElectrons: 341.000000  magneticMoment: [ Abs: 42.37702  Tot: +0.00000 ]
	SubspaceRotationAdjust: set factor to 0.588
ElecMinimize: Iter: 124  F: -1895.637193300367699  |grad|_K:  1.315e-06  alpha:  1.165e-01  linmin: -3.942e-05  t[s]:   6917.55
	FillingsUpdate:  mu: +0.131473387  nElectrons: 341.000000  magneticMoment: [ Abs: 42.37423  Tot: -0.00000 ]
	SubspaceRotationAdjust: set factor to 0.572
ElecMinimize: Iter: 125  F: -1895.637226056094505  |grad|_K:  1.264e-06  alpha:  1.069e-01  linmin:  9.783e-05  t[s]:   6965.00
	FillingsUpdate:  mu: +0.131184068  nElectrons: 341.000000  magneticMoment: [ Abs: 42.36762  Tot: +0.00000 ]
	SubspaceRotationAdjust: set factor to 0.727
ElecMinimize: Iter: 126  F: -1895.637263781622551  |grad|_K:  1.176e-06  alpha:  1.368e-01  linmin: -1.169e-04  t[s]:   7012.24
	FillingsUpdate:  mu: +0.131751502  nElectrons: 341.000000  magneticMoment: [ Abs: 42.36348  Tot: +0.00000 ]
	SubspaceRotationAdjust: set factor to 0.799
ElecMinimize: Iter: 127  F: -1895.637302822013453  |grad|_K:  1.283e-06  alpha:  1.577e-01  linmin:  3.986e-05  t[s]:   7059.88
	FillingsUpdate:  mu: +0.131332776  nElectrons: 341.000000  magneticMoment: [ Abs: 42.35266  Tot: +0.00000 ]
	SubspaceRotationAdjust: set factor to 0.894
ElecMinimize: Iter: 128  F: -1895.637335605260887  |grad|_K:  1.244e-06  alpha:  1.150e-01  linmin: -6.228e-06  t[s]:   7106.64
	FillingsUpdate:  mu: +0.131643101  nElectrons: 341.000000  magneticMoment: [ Abs: 42.34830  Tot: -0.00000 ]
	SubspaceRotationAdjust: set factor to 0.858
ElecMinimize: Iter: 129  F: -1895.637369693320124  |grad|_K:  1.340e-06  alpha:  1.260e-01  linmin:  4.433e-05  t[s]:   7153.82
	FillingsUpdate:  mu: +0.131157127  nElectrons: 341.000000  magneticMoment: [ Abs: 42.34070  Tot: -0.00000 ]
	SubspaceRotationAdjust: set factor to 0.736
ElecMinimize: Iter: 130  F: -1895.637390873120012  |grad|_K:  1.426e-06  alpha:  6.996e-02  linmin:  3.244e-05  t[s]:   7200.86
	FillingsUpdate:  mu: +0.131431328  nElectrons: 341.000000  magneticMoment: [ Abs: 42.32999  Tot: +0.00000 ]
	SubspaceRotationAdjust: set factor to 0.689
ElecMinimize: Iter: 131  F: -1895.637417020808471  |grad|_K:  1.160e-06  alpha:  7.439e-02  linmin:  1.473e-04  t[s]:   7247.38
	FillingsUpdate:  mu: +0.131357658  nElectrons: 341.000000  magneticMoment: [ Abs: 42.31930  Tot: -0.00000 ]
	SubspaceRotationAdjust: set factor to 0.915
ElecMinimize: Iter: 132  F: -1895.637445184837588  |grad|_K:  1.013e-06  alpha:  1.228e-01  linmin: -8.890e-05  t[s]:   7294.48
	FillingsUpdate:  mu: +0.131609585  nElectrons: 341.000000  magneticMoment: [ Abs: 42.31488  Tot: -0.00000 ]
	SubspaceRotationAdjust: set factor to 1.03
ElecMinimize: Iter: 133  F: -1895.637472398551608  |grad|_K:  1.067e-06  alpha:  1.483e-01  linmin:  1.438e-05  t[s]:   7341.11
	FillingsUpdate:  mu: +0.131081323  nElectrons: 341.000000  magneticMoment: [ Abs: 42.30368  Tot: +0.00000 ]
	SubspaceRotationAdjust: set factor to 0.99
ElecMinimize: Iter: 134  F: -1895.637494602230390  |grad|_K:  1.126e-06  alpha:  1.119e-01  linmin: -3.107e-06  t[s]:   7387.40
	FillingsUpdate:  mu: +0.131408351  nElectrons: 341.000000  magneticMoment: [ Abs: 42.29848  Tot: +0.00000 ]
	SubspaceRotationAdjust: set factor to 0.999
ElecMinimize: Iter: 135  F: -1895.637515354936340  |grad|_K:  1.108e-06  alpha:  9.303e-02  linmin:  2.521e-05  t[s]:   7433.93
	FillingsUpdate:  mu: +0.131248791  nElectrons: 341.000000  magneticMoment: [ Abs: 42.28729  Tot: -0.00000 ]
	SubspaceRotationAdjust: set factor to 1.32
ElecMinimize: Iter: 136  F: -1895.637539477282189  |grad|_K:  1.005e-06  alpha:  1.127e-01  linmin: -5.874e-05  t[s]:   7480.92
	FillingsUpdate:  mu: +0.131545499  nElectrons: 341.000000  magneticMoment: [ Abs: 42.28267  Tot: +0.00000 ]
	SubspaceRotationAdjust: set factor to 0.916
ElecMinimize: Iter: 137  F: -1895.637561993011332  |grad|_K:  1.447e-06  alpha:  1.261e-01  linmin:  1.347e-04  t[s]:   7527.89
	FillingsUpdate:  mu: +0.131195044  nElectrons: 341.000000  magneticMoment: [ Abs: 42.27848  Tot: -0.00000 ]
	SubspaceRotationAdjust: set factor to 0.72
ElecMinimize: Iter: 138  F: -1895.637572644947568  |grad|_K:  1.187e-06  alpha:  3.420e-02  linmin:  3.671e-04  t[s]:   7574.98
	FillingsUpdate:  mu: +0.131235583  nElectrons: 341.000000  magneticMoment: [ Abs: 42.27027  Tot: -0.00000 ]
	SubspaceRotationAdjust: set factor to 0.761
ElecMinimize: Iter: 139  F: -1895.637590546562024  |grad|_K:  9.660e-07  alpha:  8.383e-02  linmin:  3.112e-04  t[s]:   7622.27
	FillingsUpdate:  mu: +0.131056631  nElectrons: 341.000000  magneticMoment: [ Abs: 42.26252  Tot: -0.00000 ]
	SubspaceRotationAdjust: set factor to 0.934
ElecMinimize: Iter: 140  F: -1895.637610002057272  |grad|_K:  9.598e-07  alpha:  1.294e-01  linmin:  2.125e-06  t[s]:   7669.65
	FillingsUpdate:  mu: +0.131046328  nElectrons: 341.000000  magneticMoment: [ Abs: 42.26025  Tot: -0.00000 ]
	SubspaceRotationAdjust: set factor to 0.774
ElecMinimize: Iter: 141  F: -1895.637625350809458  |grad|_K:  1.122e-06  alpha:  9.672e-02  linmin: -3.508e-05  t[s]:   7716.91
	FillingsUpdate:  mu: +0.131366574  nElectrons: 341.000000  magneticMoment: [ Abs: 42.25799  Tot: -0.00000 ]
	SubspaceRotationAdjust: set factor to 0.682
ElecMinimize: Iter: 142  F: -1895.637635440753002  |grad|_K:  1.006e-06  alpha:  4.348e-02  linmin: -1.361e-04  t[s]:   7764.38
	FillingsUpdate:  mu: +0.131197965  nElectrons: 341.000000  magneticMoment: [ Abs: 42.24946  Tot: +0.00000 ]
	SubspaceRotationAdjust: set factor to 0.88
ElecMinimize: Iter: 143  F: -1895.637654729404858  |grad|_K:  8.798e-07  alpha:  1.052e-01  linmin: -5.945e-05  t[s]:   7811.37
	FillingsUpdate:  mu: +0.131137833  nElectrons: 341.000000  magneticMoment: [ Abs: 42.24576  Tot: +0.00000 ]
	SubspaceRotationAdjust: set factor to 0.644
ElecMinimize: Iter: 144  F: -1895.637666352467932  |grad|_K:  1.204e-06  alpha:  8.515e-02  linmin: -2.357e-05  t[s]:   7858.61
	FillingsUpdate:  mu: +0.131356649  nElectrons: 341.000000  magneticMoment: [ Abs: 42.24273  Tot: +0.00000 ]
	SubspaceRotationAdjust: set factor to 0.636
ElecMinimize: Iter: 145  F: -1895.637678796330647  |grad|_K:  8.891e-07  alpha:  4.723e-02  linmin: -6.032e-05  t[s]:   7905.73
	FillingsUpdate:  mu: +0.131093798  nElectrons: 341.000000  magneticMoment: [ Abs: 42.23846  Tot: -0.00000 ]
	SubspaceRotationAdjust: set factor to 0.65
ElecMinimize: Iter: 146  F: -1895.637695244044153  |grad|_K:  9.249e-07  alpha:  1.176e-01  linmin:  1.355e-05  t[s]:   7952.72
	FillingsUpdate:  mu: +0.130941659  nElectrons: 341.000000  magneticMoment: [ Abs: 42.23676  Tot: +0.00000 ]
	SubspaceRotationAdjust: set factor to 0.59
ElecMinimize: Iter: 147  F: -1895.637704342024790  |grad|_K:  9.658e-07  alpha:  6.217e-02  linmin:  3.543e-05  t[s]:   7999.90
	FillingsUpdate:  mu: +0.131342169  nElectrons: 341.000000  magneticMoment: [ Abs: 42.23409  Tot: +0.00000 ]
	SubspaceRotationAdjust: set factor to 0.688
ElecMinimize: Iter: 148  F: -1895.637718466552315  |grad|_K:  7.892e-07  alpha:  8.778e-02  linmin:  6.492e-05  t[s]:   8047.24
	FillingsUpdate:  mu: +0.131273577  nElectrons: 341.000000  magneticMoment: [ Abs: 42.22812  Tot: -0.00000 ]
	SubspaceRotationAdjust: set factor to 0.613
ElecMinimize: Iter: 149  F: -1895.637732054610524  |grad|_K:  9.267e-07  alpha:  1.273e-01  linmin:  5.525e-05  t[s]:   8094.47
	FillingsUpdate:  mu: +0.131021414  nElectrons: 341.000000  magneticMoment: [ Abs: 42.22614  Tot: +0.00000 ]
	SubspaceRotationAdjust: set factor to 0.55
ElecMinimize: Iter: 150  F: -1895.637739914851863  |grad|_K:  8.660e-07  alpha:  5.386e-02  linmin:  4.667e-05  t[s]:   8141.15
	FillingsUpdate:  mu: +0.131123263  nElectrons: 341.000000  magneticMoment: [ Abs: 42.22639  Tot: -0.00000 ]
	SubspaceRotationAdjust: set factor to 0.745
ElecMinimize: Iter: 151  F: -1895.637754116041833  |grad|_K:  7.344e-07  alpha:  1.095e-01  linmin:  6.184e-06  t[s]:   8187.96
	FillingsUpdate:  mu: +0.131330535  nElectrons: 341.000000  magneticMoment: [ Abs: 42.22580  Tot: +0.00000 ]
	SubspaceRotationAdjust: set factor to 0.539
ElecMinimize: Iter: 152  F: -1895.637765418242452  |grad|_K:  1.082e-06  alpha:  1.201e-01  linmin:  3.494e-05  t[s]:   8234.81
	FillingsUpdate:  mu: +0.131091506  nElectrons: 341.000000  magneticMoment: [ Abs: 42.22489  Tot: +0.00000 ]
	SubspaceRotationAdjust: set factor to 0.512
ElecMinimize: Iter: 153  F: -1895.637774592707956  |grad|_K:  7.385e-07  alpha:  4.592e-02  linmin:  5.066e-05  t[s]:   8281.50
ElecMinimize: 	Predicted alpha/alphaT>3.000000, increasing alphaT to 1.377599e-01.
	FillingsUpdate:  mu: +0.131156776  nElectrons: 341.000000  magneticMoment: [ Abs: 42.22437  Tot: +0.00000 ]
	SubspaceRotationAdjust: set factor to 0.523
ElecMinimize: Iter: 154  F: -1895.637789060897376  |grad|_K:  8.384e-07  alpha:  1.534e-01  linmin: -5.513e-06  t[s]:   8342.08
	FillingsUpdate:  mu: +0.131352852  nElectrons: 341.000000  magneticMoment: [ Abs: 42.22517  Tot: -0.00000 ]
	SubspaceRotationAdjust: set factor to 0.475
ElecMinimize: Iter: 155  F: -1895.637797165461734  |grad|_K:  8.322e-07  alpha:  6.510e-02  linmin: -3.590e-05  t[s]:   8389.05
	FillingsUpdate:  mu: +0.131148277  nElectrons: 341.000000  magneticMoment: [ Abs: 42.22846  Tot: -0.00000 ]
	SubspaceRotationAdjust: set factor to 0.675
ElecMinimize: Iter: 156  F: -1895.637812212817153  |grad|_K:  7.367e-07  alpha:  1.230e-01  linmin: -2.307e-05  t[s]:   8436.27
	FillingsUpdate:  mu: +0.130954371  nElectrons: 341.000000  magneticMoment: [ Abs: 42.23068  Tot: -0.00000 ]
	SubspaceRotationAdjust: set factor to 0.505
ElecMinimize: Iter: 157  F: -1895.637822157780192  |grad|_K:  1.041e-06  alpha:  1.044e-01  linmin: -1.399e-05  t[s]:   8483.68
	FillingsUpdate:  mu: +0.131188794  nElectrons: 341.000000  magneticMoment: [ Abs: 42.23323  Tot: -0.00000 ]
	SubspaceRotationAdjust: set factor to 0.542
ElecMinimize: Iter: 158  F: -1895.637834009361313  |grad|_K:  7.213e-07  alpha:  6.212e-02  linmin: -3.811e-06  t[s]:   8531.27
	FillingsUpdate:  mu: +0.131490993  nElectrons: 341.000000  magneticMoment: [ Abs: 42.23688  Tot: +0.00000 ]
	SubspaceRotationAdjust: set factor to 0.63
ElecMinimize: Iter: 159  F: -1895.637849197046535  |grad|_K:  8.275e-07  alpha:  1.671e-01  linmin:  1.479e-05  t[s]:   8578.61
	FillingsUpdate:  mu: +0.131272070  nElectrons: 341.000000  magneticMoment: [ Abs: 42.24028  Tot: -0.00000 ]
	SubspaceRotationAdjust: set factor to 0.548
ElecMinimize: Iter: 160  F: -1895.637858560556424  |grad|_K:  9.641e-07  alpha:  7.920e-02  linmin:  2.190e-05  t[s]:   8625.50
	FillingsUpdate:  mu: +0.131185087  nElectrons: 341.000000  magneticMoment: [ Abs: 42.24777  Tot: +0.00000 ]
	SubspaceRotationAdjust: set factor to 0.625
ElecMinimize: Iter: 161  F: -1895.637873149867346  |grad|_K:  7.612e-07  alpha:  9.022e-02  linmin:  8.785e-07  t[s]:   8672.55
	FillingsUpdate:  mu: +0.131216163  nElectrons: 341.000000  magneticMoment: [ Abs: 42.25875  Tot: +0.00000 ]
	SubspaceRotationAdjust: set factor to 0.755
ElecMinimize: Iter: 162  F: -1895.637890322341264  |grad|_K:  8.601e-07  alpha:  1.699e-01  linmin:  1.955e-05  t[s]:   8719.45
	FillingsUpdate:  mu: +0.131005405  nElectrons: 341.000000  magneticMoment: [ Abs: 42.26409  Tot: +0.00000 ]
	SubspaceRotationAdjust: set factor to 0.592
ElecMinimize: Iter: 163  F: -1895.637902235583624  |grad|_K:  1.123e-06  alpha:  9.375e-02  linmin:  1.798e-05  t[s]:   8766.62
	FillingsUpdate:  mu: +0.131281919  nElectrons: 341.000000  magneticMoment: [ Abs: 42.27002  Tot: +0.00000 ]
	SubspaceRotationAdjust: set factor to 0.547
ElecMinimize: Iter: 164  F: -1895.637915171071427  |grad|_K:  8.519e-07  alpha:  5.879e-02  linmin: -1.671e-06  t[s]:   8814.12
	FillingsUpdate:  mu: +0.131572115  nElectrons: 341.000000  magneticMoment: [ Abs: 42.28322  Tot: +0.00000 ]
	SubspaceRotationAdjust: set factor to 0.698
ElecMinimize: Iter: 165  F: -1895.637934476414330  |grad|_K:  8.524e-07  alpha:  1.526e-01  linmin:  2.607e-05  t[s]:   8860.69
	FillingsUpdate:  mu: +0.131253881  nElectrons: 341.000000  magneticMoment: [ Abs: 42.29531  Tot: -0.00000 ]
	SubspaceRotationAdjust: set factor to 0.602
ElecMinimize: Iter: 166  F: -1895.637950685506439  |grad|_K:  1.119e-06  alpha:  1.290e-01  linmin: -2.304e-05  t[s]:   8907.48
	FillingsUpdate:  mu: +0.131307932  nElectrons: 341.000000  magneticMoment: [ Abs: 42.30475  Tot: +0.00000 ]
	SubspaceRotationAdjust: set factor to 0.518
ElecMinimize: Iter: 167  F: -1895.637963495948725  |grad|_K:  9.477e-07  alpha:  5.753e-02  linmin: -2.070e-05  t[s]:   8954.95
	FillingsUpdate:  mu: +0.131141384  nElectrons: 341.000000  magneticMoment: [ Abs: 42.32049  Tot: +0.00000 ]
	SubspaceRotationAdjust: set factor to 0.7
ElecMinimize: Iter: 168  F: -1895.637985841567797  |grad|_K:  9.035e-07  alpha:  1.416e-01  linmin:  7.761e-06  t[s]:   9001.70
	FillingsUpdate:  mu: +0.131067866  nElectrons: 341.000000  magneticMoment: [ Abs: 42.33285  Tot: +0.00000 ]
	SubspaceRotationAdjust: set factor to 0.589
ElecMinimize: Iter: 169  F: -1895.638004034430423  |grad|_K:  1.211e-06  alpha:  1.279e-01  linmin: -2.041e-05  t[s]:   9048.92
	FillingsUpdate:  mu: +0.131489102  nElectrons: 341.000000  magneticMoment: [ Abs: 42.34315  Tot: +0.00000 ]
	SubspaceRotationAdjust: set factor to 0.544
ElecMinimize: Iter: 170  F: -1895.638019370149095  |grad|_K:  9.948e-07  alpha:  5.901e-02  linmin: -1.686e-05  t[s]:   9095.89
	FillingsUpdate:  mu: +0.131508867  nElectrons: 341.000000  magneticMoment: [ Abs: 42.35950  Tot: +0.00000 ]
	SubspaceRotationAdjust: set factor to 0.731
ElecMinimize: Iter: 171  F: -1895.638044331103174  |grad|_K:  9.926e-07  alpha:  1.426e-01  linmin: -4.119e-05  t[s]:   9143.25
	FillingsUpdate:  mu: +0.131239864  nElectrons: 341.000000  magneticMoment: [ Abs: 42.37245  Tot: -0.00000 ]
	SubspaceRotationAdjust: set factor to 0.603
ElecMinimize: Iter: 172  F: -1895.638063347397974  |grad|_K:  1.270e-06  alpha:  1.096e-01  linmin: -1.214e-05  t[s]:   9190.71
	FillingsUpdate:  mu: +0.131431487  nElectrons: 341.000000  magneticMoment: [ Abs: 42.38328  Tot: -0.00000 ]
	SubspaceRotationAdjust: set factor to 0.595
ElecMinimize: Iter: 173  F: -1895.638080912251780  |grad|_K:  1.022e-06  alpha:  6.135e-02  linmin: -1.552e-05  t[s]:   9237.80
	FillingsUpdate:  mu: +0.131223135  nElectrons: 341.000000  magneticMoment: [ Abs: 42.39514  Tot: +0.00000 ]
	SubspaceRotationAdjust: set factor to 0.788
ElecMinimize: Iter: 174  F: -1895.638107492339486  |grad|_K:  1.082e-06  alpha:  1.453e-01  linmin:  2.298e-05  t[s]:   9284.87
	FillingsUpdate:  mu: +0.131030679  nElectrons: 341.000000  magneticMoment: [ Abs: 42.40379  Tot: -0.00000 ]
	SubspaceRotationAdjust: set factor to 0.675
ElecMinimize: Iter: 175  F: -1895.638125916215131  |grad|_K:  1.320e-06  alpha:  9.077e-02  linmin:  5.117e-07  t[s]:   9331.81
	FillingsUpdate:  mu: +0.131506311  nElectrons: 341.000000  magneticMoment: [ Abs: 42.41293  Tot: +0.00000 ]
	SubspaceRotationAdjust: set factor to 0.704
ElecMinimize: Iter: 176  F: -1895.638145853361721  |grad|_K:  1.070e-06  alpha:  6.537e-02  linmin: -3.447e-08  t[s]:   9378.17
	FillingsUpdate:  mu: +0.131419546  nElectrons: 341.000000  magneticMoment: [ Abs: 42.42027  Tot: -0.00000 ]
	SubspaceRotationAdjust: set factor to 0.942
ElecMinimize: Iter: 177  F: -1895.638173822100953  |grad|_K:  1.100e-06  alpha:  1.400e-01  linmin:  1.023e-05  t[s]:   9424.76
	FillingsUpdate:  mu: +0.131032467  nElectrons: 341.000000  magneticMoment: [ Abs: 42.42325  Tot: +0.00000 ]
	SubspaceRotationAdjust: set factor to 0.765
ElecMinimize: Iter: 178  F: -1895.638195210998219  |grad|_K:  1.438e-06  alpha:  1.014e-01  linmin: -9.761e-07  t[s]:   9471.03
	FillingsUpdate:  mu: +0.131332529  nElectrons: 341.000000  magneticMoment: [ Abs: 42.42483  Tot: +0.00000 ]
	SubspaceRotationAdjust: set factor to 0.72
ElecMinimize: Iter: 179  F: -1895.638212741577036  |grad|_K:  1.177e-06  alpha:  4.762e-02  linmin: -3.200e-05  t[s]:   9517.83
	FillingsUpdate:  mu: +0.131363168  nElectrons: 341.000000  magneticMoment: [ Abs: 42.42451  Tot: +0.00000 ]
	SubspaceRotationAdjust: set factor to 1.01
ElecMinimize: Iter: 180  F: -1895.638242405965912  |grad|_K:  1.149e-06  alpha:  1.216e-01  linmin:  1.991e-05  t[s]:   9564.48
	FillingsUpdate:  mu: +0.131086438  nElectrons: 341.000000  magneticMoment: [ Abs: 42.42255  Tot: +0.00000 ]
	SubspaceRotationAdjust: set factor to 0.778
ElecMinimize: Iter: 181  F: -1895.638261557100577  |grad|_K:  1.522e-06  alpha:  8.385e-02  linmin: -2.074e-06  t[s]:   9611.88
	FillingsUpdate:  mu: +0.131388409  nElectrons: 341.000000  magneticMoment: [ Abs: 42.42028  Tot: -0.00000 ]
	SubspaceRotationAdjust: set factor to 0.775
ElecMinimize: Iter: 182  F: -1895.638280740724667  |grad|_K:  1.186e-06  alpha:  4.619e-02  linmin: -2.951e-05  t[s]:   9659.14
	FillingsUpdate:  mu: +0.131492425  nElectrons: 341.000000  magneticMoment: [ Abs: 42.41311  Tot: -0.00000 ]
	SubspaceRotationAdjust: set factor to 0.908
ElecMinimize: Iter: 183  F: -1895.638309703474533  |grad|_K:  1.194e-06  alpha:  1.167e-01  linmin:  9.471e-06  t[s]:   9705.96
	FillingsUpdate:  mu: +0.131070018  nElectrons: 341.000000  magneticMoment: [ Abs: 42.40306  Tot: -0.00000 ]
	SubspaceRotationAdjust: set factor to 0.753
ElecMinimize: Iter: 184  F: -1895.638326591920759  |grad|_K:  1.435e-06  alpha:  6.838e-02  linmin:  4.551e-06  t[s]:   9752.82
	FillingsUpdate:  mu: +0.131249468  nElectrons: 341.000000  magneticMoment: [ Abs: 42.38946  Tot: +0.00000 ]
	SubspaceRotationAdjust: set factor to 0.791
ElecMinimize: Iter: 185  F: -1895.638346742920476  |grad|_K:  1.154e-06  alpha:  5.564e-02  linmin:  2.609e-05  t[s]:   9799.27
	FillingsUpdate:  mu: +0.131457443  nElectrons: 341.000000  magneticMoment: [ Abs: 42.37508  Tot: -0.00000 ]
	SubspaceRotationAdjust: set factor to 0.911
ElecMinimize: Iter: 186  F: -1895.638371974383062  |grad|_K:  1.169e-06  alpha:  1.098e-01  linmin:  2.117e-05  t[s]:   9845.59
[...]
ElecMinimize: Iter:  19  F: -1895.682849010016071  |grad|_K:  8.761e-08  alpha:  2.494e-01  linmin:  6.659e-07  t[s]:  68973.63
	FillingsUpdate:  mu: +0.131130026  nElectrons: 341.000000  magneticMoment: [ Abs: 41.51197  Tot: -0.00000 ]
	SubspaceRotationAdjust: set factor to 0.289
ElecMinimize: Iter:  20  F: -1895.682849390296042  |grad|_K:  6.771e-08  alpha:  2.832e-01  linmin: -1.493e-06  t[s]:  69020.89
	FillingsUpdate:  mu: +0.131106826  nElectrons: 341.000000  magneticMoment: [ Abs: 41.51126  Tot: -0.00000 ]
	SubspaceRotationAdjust: set factor to 0.351
ElecMinimize: Iter:  21  F: -1895.682849740806205  |grad|_K:  6.213e-08  alpha:  4.368e-01  linmin:  1.153e-07  t[s]:  69068.49
ElecMinimize: Converged (|Delta F|<1.000000e-06 for 5 iters).
Setting wave functions to eigenvectors of Hamiltonian

# Ionic positions in lattice coordinates:
ion Ni   0.004324436546102  -0.010635167455014   0.171367021998607 1
ion Ni   0.505392825388368  -0.006746839520743   0.157864251626971 1
ion Ni  -0.006097487418206   0.500028494141263   0.155160454627043 1
ion Ni   0.000000000000000   0.500000000000000  -0.050000000000000 0
ion Co   0.495265344231351   0.499799054867001   0.166142785573425 1
ion Co   0.243736767772507   0.750601461079187   0.062771186988540 1
ion Cr   0.240944259559197   0.250325894927138   0.057239412772677 1
ion Cr  -0.253881423432352   0.249699926846595   0.058226751630219 1
ion V  -0.253041048392813   0.748743142083535   0.057784000602547 1
ion V   0.000000000000000   0.000000000000000  -0.050000000000000 0
ion V   0.500000000000000   0.000000000000000  -0.050000000000000 0
ion V   0.500000000000000   0.500000000000000  -0.050000000000000 0
ion V   0.250000000000000   0.250000000000000  -0.150000000000000 0
ion V   0.250000000000000   0.750000000000000  -0.150000000000000 0
ion V  -0.250000000000000   0.250000000000000  -0.150000000000000 0
ion V  -0.250000000000000   0.750000000000000  -0.150000000000000 0
ion O   0.236006458562648   0.256845871996008   0.149946766250978 1
ion O   0.242451556296813   0.736236798920908   0.158918112065013 1
ion O  -0.256640050305087   0.263129149070935   0.151606205571917 1
ion O  -0.246345275356177   0.740030870853541   0.155839764025522 1
ion O  -0.005653543692357   0.016140105719846   0.051203433942515 1
ion O   0.476869628994026   0.008276766242587   0.050714699481816 1
ion O   0.007135919119378   0.493390381176962   0.053647507017954 1
ion O   0.489777305522036   0.480793028495006   0.050481381787753 1
ion O   0.250000000000000   0.250000000000000  -0.050000000000000 0
ion O   0.250000000000000   0.750000000000000  -0.050000000000000 0
ion O  -0.250000000000000   0.250000000000000  -0.050000000000000 0
ion O  -0.250000000000000   0.750000000000000  -0.050000000000000 0
ion O   0.000000000000000   0.000000000000000  -0.150000000000000 0
ion O   0.500000000000000   0.000000000000000  -0.150000000000000 0
ion O   0.000000000000000   0.500000000000000  -0.150000000000000 0
ion O   0.500000000000000   0.500000000000000  -0.150000000000000 0
ion O  -0.014458049276531   0.011950900591211   0.258586716136276 1
ion H   0.104864102330231   0.102447461279882   0.273643964805964 1

# Forces in Lattice coordinates:
force Ni   0.001760994688033  -0.001347801870734   0.037853456030092 1
force Ni   0.000714158642347   0.000630827100900   0.013172467005126 1
force Ni  -0.002082517279823  -0.003517197517536   0.009044871648070 1
force Ni   0.016971553350799   0.031012659347954   0.116964859908645 0
force Co  -0.000122236403361  -0.002008746004378   0.012399464387393 1
force Co  -0.001222759672909  -0.001306403083727   0.012246227348612 1
force Cr   0.000621194429725  -0.000228302663245   0.000282931843386 1
force Cr  -0.000770831445375   0.002753564116904   0.010560312301884 1
force V   0.003460693650974  -0.004259649702119  -0.003223811404514 1
force V  -0.015415682743762  -0.012399751776862   0.393790082372791 0
force V  -0.080716084024583  -0.036065855611967   0.407178644923134 0
force V  -0.074774169525188   0.025416402706780   0.413230643534177 0
force V  -0.029788037946635   0.058464605074704  -0.344954624105405 0
force V  -0.030840179784589  -0.056055049446995  -0.269334476831019 0
force V   0.086715927720925   0.030388082327521  -0.430705150799415 0
force V   0.087932230750485  -0.033033660333341  -0.370268537615177 0
force O   0.006177814563327  -0.000037074695737  -0.000121347369390 1
force O  -0.000085269612422  -0.001076218593968   0.005043416089494 1
force O  -0.002538453500633  -0.002119630839180   0.024345750719700 1
force O   0.001876031701045   0.001417967414163   0.013146216502971 1
force O  -0.000842517351703   0.007272015521965   0.019300857804211 1
force O  -0.017034653793062  -0.014038852395821  -0.002375757346559 1
force O   0.011878579269291   0.011329165623897   0.001038202419976 1
force O  -0.000722356871071  -0.004959883407587   0.006650693136140 1
force O   0.029241911247706   0.020489732017539   0.436766492164052 0
force O   0.004995143392027  -0.061380464818469   0.086376256332064 0
force O  -0.031430754445504   0.063886400907552   0.249734012777615 0
force O  -0.063901241736949  -0.031417934102397   0.140576853808720 0
force O   0.012197090100286  -0.000085934048120  -0.335984479530336 0
force O   0.044268467546456   0.002231743819282  -0.197099777307235 0
force O   0.006624536320724  -0.001363381535838  -0.248600731193439 0
force O   0.053241125959123  -0.000196689303810  -0.184382598163249 0
force O  -0.009893760612858  -0.015207226300654  -0.005347302350765 1
force H   0.009565990049204   0.003069180406979   0.019402530358211 1

# Energy components:
   Eewald =     4986.8118050102220877
       EH =     6695.8823402816542512
     Eloc =   -13754.0474726155298413
      Enl =     -465.1468628872460158
   Epulay =       -0.0004831230919240
      Exc =     -237.2848684403322750
       KE =      876.8190665689450043
        U =        1.2847209832475430
-------------------------------------
     Etot =    -1895.6817542221315307
       TS =        0.0010955186747542
-------------------------------------
        F =    -1895.6828497408062049

IonicMinimize: Iter:  23  F: -1895.682849740806205  |grad|_K:  4.858e-04  alpha:  1.000e+00  linmin:  2.540e-02  t[s]:  69084.81

#--- Lowdin population analysis ---
# oxidation-state Ni +3.833 +3.659 +3.766 +3.426
# magnetic-moments Ni +1.047 -0.780 -0.939 +0.840
# oxidation-state Co +1.279 +1.252
# magnetic-moments Co -2.783 +2.747
# oxidation-state Cr +2.997 +2.922
# magnetic-moments Cr +3.206 -3.593
# oxidation-state V +1.002 +0.972 +1.025 +1.047 +1.060 +1.056 +1.076 +1.075
# magnetic-moments V -2.953 -2.871 +2.742 +2.713 -2.933 -2.924 +2.902 +2.901
# oxidation-state O -0.731 -0.858 -0.762 -0.811 -0.869 -0.892 -0.831 -0.907 -0.860 -0.892 -0.866 -0.877 -0.959 -0.958 -0.923 -0.957 -0.749
# magnetic-moments O -0.163 +0.068 +0.078 +0.033 +0.067 -0.028 -0.014 -0.006 +0.032 +0.077 +0.057 +0.036 +0.004 -0.008 +0.086 -0.011 +0.298
# oxidation-state H +0.374
# magnetic-moments H -0.005


-------- Electronic minimization -----------
	FillingsUpdate:  mu: +0.148459295  nElectrons: 341.000000  magneticMoment: [ Abs: 41.51332  Tot: +0.00000 ]
ElecMinimize: Iter:   0  F: -1895.543401400454513  |grad|_K:  6.094e-05  alpha:  1.000e+00
	FillingsUpdate:  mu: +0.133015683  nElectrons: 341.000000  magneticMoment: [ Abs: 41.48728  Tot: -0.00000 ]
	SubspaceRotationAdjust: set factor to 0.361
ElecMinimize: Iter:   1  F: -1895.672655980515628  |grad|_K:  1.221e-05  alpha:  1.969e-01  linmin: -2.800e-03  t[s]:  69165.82
	FillingsUpdate:  mu: +0.133151710  nElectrons: 341.000000  magneticMoment: [ Abs: 41.51407  Tot: -0.00000 ]
	SubspaceRotationAdjust: set factor to 0.296
ElecMinimize: Iter:   2  F: -1895.679232100093941  |grad|_K:  6.897e-06  alpha:  2.504e-01  linmin:  1.227e-03  t[s]:  69213.25
	FillingsUpdate:  mu: +0.131173880  nElectrons: 341.000000  magneticMoment: [ Abs: 41.47871  Tot: +0.00000 ]
	SubspaceRotationAdjust: set factor to 0.2
ElecMinimize: Iter:   3  F: -1895.680430257499893  |grad|_K:  4.369e-06  alpha:  1.502e-01  linmin:  1.560e-04  t[s]:  69260.86
	FillingsUpdate:  mu: +0.129103161  nElectrons: 341.000000  magneticMoment: [ Abs: 41.50636  Tot: +0.00000 ]
	SubspaceRotationAdjust: set factor to 0.251
ElecMinimize: Iter:   4  F: -1895.681420526604825  |grad|_K:  2.851e-06  alpha:  2.987e-01  linmin:  2.607e-05  t[s]:  69308.30
	FillingsUpdate:  mu: +0.131193731  nElectrons: 341.000000  magneticMoment: [ Abs: 41.51137  Tot: -0.00000 ]
	SubspaceRotationAdjust: set factor to 0.278
ElecMinimize: Iter:   5  F: -1895.681980450152196  |grad|_K:  2.282e-06  alpha:  3.957e-01  linmin:  1.238e-04  t[s]:  69355.93
	FillingsUpdate:  mu: +0.131149741  nElectrons: 341.000000  magneticMoment: [ Abs: 41.50126  Tot: +0.00000 ]
	SubspaceRotationAdjust: set factor to 0.244
ElecMinimize: Iter:   6  F: -1895.682302172209575  |grad|_K:  2.399e-06  alpha:  3.569e-01  linmin: -2.819e-05  t[s]:  69403.11
	FillingsUpdate:  mu: +0.129887197  nElectrons: 341.000000  magneticMoment: [ Abs: 41.52348  Tot: -0.00000 ]
	SubspaceRotationAdjust: set factor to 0.205
ElecMinimize: Iter:   7  F: -1895.682566746297653  |grad|_K:  1.598e-06  alpha:  2.621e-01  linmin: -4.219e-07  t[s]:  69450.31
	FillingsUpdate:  mu: +0.131388556  nElectrons: 341.000000  magneticMoment: [ Abs: 41.52159  Tot: +0.00000 ]
	SubspaceRotationAdjust: set factor to 0.21
ElecMinimize: Iter:   8  F: -1895.682728150596404  |grad|_K:  1.206e-06  alpha:  3.618e-01  linmin:  2.436e-05  t[s]:  69497.21
	FillingsUpdate:  mu: +0.130982673  nElectrons: 341.000000  magneticMoment: [ Abs: 41.52183  Tot: +0.00000 ]
	SubspaceRotationAdjust: set factor to 0.225
ElecMinimize: Iter:   9  F: -1895.682818315477334  |grad|_K:  7.948e-07  alpha:  3.556e-01  linmin: -3.890e-06  t[s]:  69544.25
	FillingsUpdate:  mu: +0.130372163  nElectrons: 341.000000  magneticMoment: [ Abs: 41.52797  Tot: +0.00000 ]
	SubspaceRotationAdjust: set factor to 0.184
ElecMinimize: Iter:  10  F: -1895.682851315938933  |grad|_K:  5.999e-07  alpha:  2.985e-01  linmin:  8.131e-07  t[s]:  69591.17
	FillingsUpdate:  mu: +0.130756971  nElectrons: 341.000000  magneticMoment: [ Abs: 41.52499  Tot: -0.00000 ]
	SubspaceRotationAdjust: set factor to 0.161
ElecMinimize: Iter:  11  F: -1895.682869969010198  |grad|_K:  3.809e-07  alpha:  2.964e-01  linmin: -5.552e-07  t[s]:  69638.27
	FillingsUpdate:  mu: +0.130739878  nElectrons: 341.000000  magneticMoment: [ Abs: 41.52579  Tot: -0.00000 ]
	SubspaceRotationAdjust: set factor to 0.19
ElecMinimize: Iter:  12  F: -1895.682879023923761  |grad|_K:  2.719e-07  alpha:  3.569e-01  linmin:  2.839e-07  t[s]:  69685.15
	FillingsUpdate:  mu: +0.130578466  nElectrons: 341.000000  magneticMoment: [ Abs: 41.52726  Tot: +0.00000 ]
	SubspaceRotationAdjust: set factor to 0.201
ElecMinimize: Iter:  13  F: -1895.682883529565743  |grad|_K:  2.070e-07  alpha:  3.485e-01  linmin:  1.001e-07  t[s]:  69731.94
	FillingsUpdate:  mu: +0.130626913  nElectrons: 341.000000  magneticMoment: [ Abs: 41.52690  Tot: +0.00000 ]
	SubspaceRotationAdjust: set factor to 0.21
ElecMinimize: Iter:  14  F: -1895.682886047960892  |grad|_K:  1.591e-07  alpha:  3.360e-01  linmin:  3.531e-07  t[s]:  69778.69
	FillingsUpdate:  mu: +0.130626988  nElectrons: 341.000000  magneticMoment: [ Abs: 41.52805  Tot: -0.00000 ]
	SubspaceRotationAdjust: set factor to 0.236
ElecMinimize: Iter:  15  F: -1895.682887893678526  |grad|_K:  1.326e-07  alpha:  4.169e-01  linmin:  3.450e-06  t[s]:  69825.95
	FillingsUpdate:  mu: +0.130588823  nElectrons: 341.000000  magneticMoment: [ Abs: 41.52890  Tot: -0.00000 ]
	SubspaceRotationAdjust: set factor to 0.276
ElecMinimize: Iter:  16  F: -1895.682889141507530  |grad|_K:  1.230e-07  alpha:  4.061e-01  linmin: -1.693e-06  t[s]:  69873.36
	FillingsUpdate:  mu: +0.130579221  nElectrons: 341.000000  magneticMoment: [ Abs: 41.52994  Tot: -0.00000 ]
	SubspaceRotationAdjust: set factor to 0.319
ElecMinimize: Iter:  17  F: -1895.682890280037327  |grad|_K:  1.161e-07  alpha:  4.304e-01  linmin:  3.477e-06  t[s]:  69920.03
	FillingsUpdate:  mu: +0.130592666  nElectrons: 341.000000  magneticMoment: [ Abs: 41.53160  Tot: +0.00000 ]
	SubspaceRotationAdjust: set factor to 0.324
ElecMinimize: Iter:  18  F: -1895.682891258415566  |grad|_K:  1.162e-07  alpha:  4.150e-01  linmin:  2.642e-06  t[s]:  69966.77
	FillingsUpdate:  mu: +0.130607086  nElectrons: 341.000000  magneticMoment: [ Abs: 41.53211  Tot: +0.00000 ]
	SubspaceRotationAdjust: set factor to 0.278
ElecMinimize: Iter:  19  F: -1895.682891973353662  |grad|_K:  1.174e-07  alpha:  3.028e-01  linmin: -1.325e-06  t[s]:  70013.88
	FillingsUpdate:  mu: +0.130540524  nElectrons: 341.000000  magneticMoment: [ Abs: 41.53414  Tot: -0.00000 ]
	SubspaceRotationAdjust: set factor to 0.246
ElecMinimize: Iter:  20  F: -1895.682892653271665  |grad|_K:  9.688e-08  alpha:  2.823e-01  linmin:  2.071e-07  t[s]:  70060.91
	FillingsUpdate:  mu: +0.130605009  nElectrons: 341.000000  magneticMoment: [ Abs: 41.53501  Tot: +0.00000 ]
	SubspaceRotationAdjust: set factor to 0.27
ElecMinimize: Iter:  21  F: -1895.682893282631994  |grad|_K:  8.788e-08  alpha:  3.836e-01  linmin:  1.482e-06  t[s]:  70108.11
	FillingsUpdate:  mu: +0.130595756  nElectrons: 341.000000  magneticMoment: [ Abs: 41.53610  Tot: +0.00000 ]
	SubspaceRotationAdjust: set factor to 0.321
ElecMinimize: Iter:  22  F: -1895.682893844907994  |grad|_K:  8.263e-08  alpha:  4.164e-01  linmin:  3.004e-06  t[s]:  70154.98
ElecMinimize: Converged (|Delta F|<1.000000e-06 for 5 iters).
Setting wave functions to eigenvectors of Hamiltonian

# Ionic positions in lattice coordinates:
ion Ni   0.005117329315880  -0.010223818025860   0.171706165500539 1
ion Ni   0.504961226988413  -0.006566513002376   0.157859776755757 1
ion Ni  -0.006616294824272   0.499456806378702   0.155177179434605 1
ion Ni   0.000000000000000   0.500000000000000  -0.050000000000000 0
ion Co   0.494994418292093   0.499651332132587   0.166166327806556 1
ion Co   0.243553611630355   0.750261964700906   0.062941205939343 1
ion Cr   0.240895736946997   0.250104269337046   0.057236139092486 1
ion Cr  -0.253849561384447   0.249546126912796   0.058395499274189 1
ion V  -0.252794390210918   0.748598035773418   0.057872708353065 1
ion V   0.000000000000000   0.000000000000000  -0.050000000000000 0
ion V   0.500000000000000   0.000000000000000  -0.050000000000000 0
ion V   0.500000000000000   0.500000000000000  -0.050000000000000 0
ion V   0.250000000000000   0.250000000000000  -0.150000000000000 0
ion V   0.250000000000000   0.750000000000000  -0.150000000000000 0
ion V  -0.250000000000000   0.250000000000000  -0.150000000000000 0
ion V  -0.250000000000000   0.750000000000000  -0.150000000000000 0
ion O   0.236514156803260   0.256757174765449   0.150041745339324 1
ion O   0.242277970363963   0.736191710577678   0.159092169523184 1
ion O  -0.257357873564262   0.262974882782893   0.151961621740100 1
ion O  -0.246380856585915   0.740462342089377   0.155882755806335 1
ion O  -0.005534044232460   0.016611395493125   0.051275045538097 1
ion O   0.475220217824015   0.006523063748317   0.050655977416121 1
ion O   0.008491286077813   0.494172315166564   0.053866491348147 1
ion O   0.489840269956351   0.480016582941907   0.050509884944490 1
ion O   0.250000000000000   0.250000000000000  -0.050000000000000 0
ion O   0.250000000000000   0.750000000000000  -0.050000000000000 0
ion O  -0.250000000000000   0.250000000000000  -0.050000000000000 0
ion O  -0.250000000000000   0.750000000000000  -0.050000000000000 0
ion O   0.000000000000000   0.000000000000000  -0.150000000000000 0
ion O   0.500000000000000   0.000000000000000  -0.150000000000000 0
ion O   0.000000000000000   0.500000000000000  -0.150000000000000 0
ion O   0.500000000000000   0.500000000000000  -0.150000000000000 0
ion O  -0.014985520282954   0.012062754718909   0.258806989039365 1
ion H   0.104998371396448   0.102266543363931   0.274207719910495 1

# Forces in Lattice coordinates:
force Ni  -0.005144353230980  -0.003929271443222  -0.057524704105637 1
force Ni   0.004817943374318  -0.001693932511965   0.002196855399707 1
force Ni   0.002445237035789   0.005138973656239  -0.008031083658873 1
force Ni   0.017671001393978   0.031722134260407   0.120428760784224 0
force Co  -0.003403580341505  -0.001323319486090  -0.003968627687582 1
force Co  -0.004676615909247  -0.005150800824580   0.026325506182004 1
force Cr   0.005446264195127   0.001636089440777   0.017140968235422 1
force Cr  -0.005777980093242   0.001262550436474  -0.021602615173723 1
force V  -0.007024664700813   0.008511336247165  -0.034074122802843 1
force V  -0.015699251830934  -0.012037764046417   0.407978525289294 0
force V  -0.082126250115100  -0.037885903927268   0.421926689646125 0
force V  -0.074740939188305   0.024479491063627   0.429468590277296 0
force V  -0.029401988913426   0.057994110477310  -0.343691878302381 0
force V  -0.030608800574621  -0.055573214692734  -0.264368821807247 0
force V   0.086086370400606   0.029739783017141  -0.429146862760143 0
force V   0.087255061381952  -0.032326764712113  -0.371985425865316 0
force O   0.001420243989340  -0.001553635620039  -0.017199557412052 1
force O   0.000225249322394  -0.002477494731427  -0.009402409266073 1
force O   0.004945233847259  -0.001378255105725   0.015703811076243 1
force O   0.000979675597581  -0.005003681270960   0.007356432167255 1
force O  -0.004446126167549   0.001749378314646   0.005569290184503 1
force O  -0.001123514466179   0.003475711067338  -0.005227522670631 1
force O  -0.001264728871343   0.007950380822285  -0.044192919802200 1
force O   0.001520808928512   0.001185638721148  -0.002194470070247 1
force O   0.024641152955292   0.023815668718682   0.425384802378166 0
force O   0.002186786446859  -0.063816493759438   0.060507857808166 0
force O  -0.029247115196041   0.065623039655201   0.229143537853850 0
force O  -0.059140376327185  -0.035707995790558   0.138040044948613 0
force O   0.013648841815504  -0.000176907070759  -0.336468346250207 0
force O   0.042906667774884   0.002490639957956  -0.199643138376167 0
force O   0.008935670819908  -0.001250024584840  -0.225903676260049 0
force O   0.051743965084686   0.000011027962519  -0.185791758150515 0
force O   0.024802196805460   0.011350922405845   0.050649945207539 1
force H  -0.025733875074002  -0.023817983654293  -0.038955941883094 1

# Energy components:
   Eewald =     4982.9592486608999025
       EH =     6692.0803111902641831
     Eloc =   -13746.3870676697733870
      Enl =     -465.1458454069334039
   Epulay =       -0.0004831230919240
      Exc =     -237.2826236094637125
       KE =      876.8101265163876405
        U =        1.2845473000874903
-------------------------------------
     Etot =    -1895.6817861416229789
       TS =        0.0011077032850358
-------------------------------------
        F =    -1895.6828938449079942

IonicMinimize: Iter:  24  F: -1895.682893844907994  |grad|_K:  7.009e-04  alpha:  1.000e+00  linmin:  3.308e-02  t[s]:  70171.20
IonicMinimize: Converged (|Delta F|<1.000000e-04 for 3 iters).

#--- Lowdin population analysis ---
# oxidation-state Ni +3.836 +3.660 +3.767 +3.433
# magnetic-moments Ni +1.048 -0.779 -0.939 +0.846
# oxidation-state Co +1.279 +1.252
# magnetic-moments Co -2.783 +2.747
# oxidation-state Cr +2.996 +2.917
# magnetic-moments Cr +3.203 -3.614
# oxidation-state V +1.003 +0.973 +1.027 +1.048 +1.061 +1.056 +1.075 +1.074
# magnetic-moments V -2.953 -2.870 +2.741 +2.712 -2.932 -2.922 +2.904 +2.903
# oxidation-state O -0.732 -0.858 -0.764 -0.811 -0.869 -0.894 -0.833 -0.907 -0.859 -0.891 -0.866 -0.876 -0.959 -0.958 -0.922 -0.957 -0.747
# magnetic-moments O -0.163 +0.070 +0.077 +0.033 +0.067 -0.029 -0.013 -0.006 +0.033 +0.078 +0.057 +0.037 +0.004 -0.008 +0.089 -0.010 +0.299
# oxidation-state H +0.373
# magnetic-moments H -0.005


Dumping 'run.ionpos' ... done
Dumping 'run.lattice' ... done
Dumping 'run.Ecomponents' ... done
End date and time: Wed May  7 10:18:53 2025  (Duration: 0-19:29:35.47)
Done!
