/var/spool/slurmd/job44413/slurm_script: line 9: module: command not found
/var/spool/slurmd/job44413/slurm_script: line 10: module: command not found

*************** JDFTx 1.7.0  ***************

Start date and time: Sun May 18 05:34:35 2025
Executable /data2/jt577/jdftx_eat_withLibXC/build/jdftx with command-line: -i /data2/jt577/May_2025/Relax_Mag_litU/rel17+1_6/OH/runs/calc_/run.in
Running on hosts (process indices):  node3404 (0-8)
Divided in process groups (process indices):  0 (0)  1 (1)  2 (2)  3 (3)  4 (4)  5 (5)  6 (6)  7 (7)  8 (8)
Resource initialization completed at t[s]:      0.00
Run totals: 9 processes, 90 threads, 0 GPUs


Input parsed successfully to the following command list (including defaults):

add-mix 
add-U 	Ni d 0.235196 \
	Co d 0.121273 \
	Cr d 0.128623 \
	V d 0.113923
basis kpoint-dependent
coords-type Lattice
core-overlap-check vector
coulomb-interaction Periodic
davidson-band-ratio 1.1
dump End IonicPositions Lattice Ecomponents
dump-name run.$VAR
elec-cutoff 30
elec-eigen-algo Davidson
elec-ex-corr gga-x-rpbe gga-c-pbe
elec-smearing Fermi 0.001
electronic-minimize  \
	dirUpdateScheme      FletcherReeves \
	linminMethod         DirUpdateRecommended \
	nIterations          1000 \
	history              15 \
	knormThreshold       0 \
	energyDiffThreshold  1e-06 \
	nEnergyDiff          5 \
	alphaTstart          1 \
	alphaTmin            1e-10 \
	updateTestStepSize   yes \
	alphaTreduceFactor   0.1 \
	alphaTincreaseFactor 3 \
	nAlphaAdjustMax      3 \
	wolfeEnergy          0.0001 \
	wolfeGradient        0.9 \
	fdTest               no
exchange-regularization WignerSeitzTruncated
fluid None
fluid-ex-corr (null) lda-PZ
fluid-gummel-loop 10 1.000000e-05
fluid-minimize  \
	dirUpdateScheme      PolakRibiere \
	linminMethod         DirUpdateRecommended \
	nIterations          100 \
	history              15 \
	knormThreshold       0 \
	energyDiffThreshold  0 \
	nEnergyDiff          2 \
	alphaTstart          1 \
	alphaTmin            1e-10 \
	updateTestStepSize   yes \
	alphaTreduceFactor   0.1 \
	alphaTincreaseFactor 3 \
	nAlphaAdjustMax      3 \
	wolfeEnergy          0.0001 \
	wolfeGradient        0.9 \
	fdTest               no
fluid-solvent H2O 55.338 ScalarEOS \
	epsBulk 78.4 \
	pMol 0.92466 \
	epsInf 1.77 \
	Pvap 1.06736e-10 \
	sigmaBulk 4.62e-05 \
	Rvdw 2.61727 \
	Res 1.42 \
	tauNuc 343133 \
	poleEl 15 7 1
forces-output-coords Positions
initial-magnetic-moments  \
	Ni 1 1 -1 1 \
	Co -1 -1 \
	Cr -1 1 \
	V 1 1 -1 -1 -1 1 -1 1
initial-state run.$VAR
ion Ni  0.000000000000000   0.000000000000000   0.150000000000000 1
ion Ni  0.000000000000000   0.500000000000000   0.150000000000000 1
ion Ni  0.250000000000000   0.250000000000000  -0.150000000000000 0
ion Ni -0.250000000000000   0.250000000000000  -0.150000000000000 0
ion Co  0.500000000000000   0.000000000000000   0.150000000000000 1
ion Co  0.250000000000000   0.750000000000000  -0.150000000000000 0
ion Cr  0.500000000000000   0.500000000000000   0.150000000000000 1
ion Cr -0.250000000000000   0.750000000000000  -0.150000000000000 0
ion V  0.250000000000000   0.250000000000000   0.050000000000000 1
ion V  0.250000000000000   0.750000000000000   0.050000000000000 1
ion V -0.250000000000000   0.250000000000000   0.050000000000000 1
ion V -0.250000000000000   0.750000000000000   0.050000000000000 1
ion V  0.000000000000000   0.000000000000000  -0.050000000000000 0
ion V  0.500000000000000   0.000000000000000  -0.050000000000000 0
ion V  0.000000000000000   0.500000000000000  -0.050000000000000 0
ion V  0.500000000000000   0.500000000000000  -0.050000000000000 0
ion O  0.250000000000000   0.250000000000000   0.150000000000000 1
ion O  0.250000000000000   0.750000000000000   0.150000000000000 1
ion O -0.250000000000000   0.250000000000000   0.150000000000000 1
ion O -0.250000000000000   0.750000000000000   0.150000000000000 1
ion O  0.000000000000000   0.000000000000000   0.050000000000000 1
ion O  0.500000000000000   0.000000000000000   0.050000000000000 1
ion O  0.000000000000000   0.500000000000000   0.050000000000000 1
ion O  0.500000000000000   0.500000000000000   0.050000000000000 1
ion O  0.250000000000000   0.250000000000000  -0.050000000000000 0
ion O  0.250000000000000   0.750000000000000  -0.050000000000000 0
ion O -0.250000000000000   0.250000000000000  -0.050000000000000 0
ion O -0.250000000000000   0.750000000000000  -0.050000000000000 0
ion O  0.000000000000000   0.000000000000000  -0.150000000000000 0
ion O  0.500000000000000   0.000000000000000  -0.150000000000000 0
ion O  0.000000000000000   0.500000000000000  -0.150000000000000 0
ion O  0.500000000000000   0.500000000000000  -0.150000000000000 0
ion O -0.008040138212305  -0.008269777577920   0.235000196603227 1
ion H  0.095742872057713   0.094897636790041   0.252810710255288 1
ion-species SG15/$ID_ONCV_PBE.upf
ion-width 0
ionic-minimize  \
	dirUpdateScheme      L-BFGS \
	linminMethod         DirUpdateRecommended \
	nIterations          1000 \
	history              15 \
	knormThreshold       0.0001 \
	energyDiffThreshold  0.0001 \
	nEnergyDiff          3 \
	alphaTstart          1 \
	alphaTmin            1e-10 \
	updateTestStepSize   yes \
	alphaTreduceFactor   0.1 \
	alphaTincreaseFactor 3 \
	nAlphaAdjustMax      3 \
	wolfeEnergy          0.0001 \
	wolfeGradient        0.9 \
	fdTest               no
kpoint   0.500000000000   0.500000000000   0.500000000000  1.00000000000000
kpoint-folding 3 3 1 
latt-move-scale 1 1 1
latt-scale 1 1 1 
lattice  \
	   8.140000000000001    8.140000000000001    0.000000000000000  \
	   8.140000000000001   -8.140000000000001    0.000000000000000  \
	   0.000000000000000    0.000000000000000   40.700000000000003 
lattice-minimize  \
	dirUpdateScheme      L-BFGS \
	linminMethod         DirUpdateRecommended \
	nIterations          0 \
	history              15 \
	knormThreshold       0 \
	energyDiffThreshold  1e-06 \
	nEnergyDiff          2 \
	alphaTstart          1 \
	alphaTmin            1e-10 \
	updateTestStepSize   yes \
	alphaTreduceFactor   0.1 \
	alphaTincreaseFactor 3 \
	nAlphaAdjustMax      3 \
	wolfeEnergy          0.0001 \
	wolfeGradient        0.9 \
	fdTest               no
lcao-params -1 1e-06 0.001
pcm-variant GLSSA13
spintype z-spin
subspace-rotation-factor 1 yes
symmetries none
symmetry-threshold 0.0001


Applied RMS atom displacement 0 bohrs to make symmetries exact.

---------- Initializing the Grid ----------
R = 
[         8.14         8.14            0  ]
[         8.14        -8.14            0  ]
[            0            0         40.7  ]
unit cell volume = 5393.53
G =
[   0.385945   0.385945         -0  ]
[   0.385945  -0.385945         -0  ]
[         -0         -0   0.154378  ]
Minimum fftbox size, Smin = [  60  60  204  ]
Chosen fftbox size, S = [  60  60  210  ]

---------- Exchange Correlation functional ----------
Initialized LibXC exchange functional 'Hammer, Hansen, and Norskov'
Initialized LibXC correlation functional 'Perdew, Burke & Ernzerhof'

---------- Setting up pseudopotentials ----------
Width of ionic core gaussian charges (only for fluid interactions / plotting) set to 0

Reading pseudopotential file '/data2/jt577/jdftx_eat_withLibXC/build/pseudopotentials/SG15/Ni_ONCV_PBE.upf':
  'Ni' pseudopotential, 'PBE' functional
  Generated using ONCVPSP code by D. R. Hamann
  Author: Martin Schlipf and Francois Gygi  Date: 150915.
  18 valence electrons, 4 orbitals, 6 projectors, 1292 radial grid points, with lMax = 2
  Transforming local potential to a uniform radial grid of dG=0.02 with 1419 points.
  Transforming nonlocal projectors to a uniform radial grid of dG=0.02 with 528 points.
    3S    l: 0   occupation:  2.0   eigenvalue: -4.081355
    3P    l: 1   occupation:  6.0   eigenvalue: -2.623460
    4S    l: 0   occupation:  2.0   eigenvalue: -0.207378
    3D    l: 2   occupation:  8.0   eigenvalue: -0.326118
  Transforming atomic orbitals to a uniform radial grid of dG=0.02 with 528 points.
  WARNING: large normalization error in atomic orbital 1s (integral: 0.000006).
  Core radius for overlap checks: 1.99 bohrs.
  Reading pulay file /data2/jt577/jdftx_eat_withLibXC/build/pseudopotentials/SG15/Ni_ONCV_PBE.pulay ... using dE_dnG = -7.250568e-04 computed for Ecut = 30.

Reading pseudopotential file '/data2/jt577/jdftx_eat_withLibXC/build/pseudopotentials/SG15/Co_ONCV_PBE.upf':
  'Co' pseudopotential, 'PBE' functional
  Generated using ONCVPSP code by D. R. Hamann
  Author: Martin Schlipf and Francois Gygi  Date: 150915.
  17 valence electrons, 4 orbitals, 6 projectors, 1388 radial grid points, with lMax = 2
  Transforming local potential to a uniform radial grid of dG=0.02 with 1419 points.
  Transforming nonlocal projectors to a uniform radial grid of dG=0.02 with 528 points.
    3S    l: 0   occupation:  2.0   eigenvalue: -3.763303
    3P    l: 1   occupation:  6.0   eigenvalue: -2.412101
    4S    l: 0   occupation:  2.0   eigenvalue: -0.201022
    3D    l: 2   occupation:  7.0   eigenvalue: -0.301498
  Transforming atomic orbitals to a uniform radial grid of dG=0.02 with 528 points.
  Core radius for overlap checks: 1.94 bohrs.
  Reading pulay file /data2/jt577/jdftx_eat_withLibXC/build/pseudopotentials/SG15/Co_ONCV_PBE.pulay ... using dE_dnG = -9.787391e-05 computed for Ecut = 30.

Reading pseudopotential file '/data2/jt577/jdftx_eat_withLibXC/build/pseudopotentials/SG15/Cr_ONCV_PBE.upf':
  'Cr' pseudopotential, 'PBE' functional
  Generated using ONCVPSP code by D. R. Hamann
  Author: Martin Schlipf and Francois Gygi  Date: 150915.
  14 valence electrons, 4 orbitals, 6 projectors, 1160 radial grid points, with lMax = 2
  Transforming local potential to a uniform radial grid of dG=0.02 with 1419 points.
  Transforming nonlocal projectors to a uniform radial grid of dG=0.02 with 528 points.
    3S    l: 0   occupation:  2.0   eigenvalue: -2.865131
    3P    l: 1   occupation:  6.0   eigenvalue: -1.810600
    4S    l: 0   occupation:  2.0   eigenvalue: -0.180525
    3D    l: 2   occupation:  4.0   eigenvalue: -0.220312
  Transforming atomic orbitals to a uniform radial grid of dG=0.02 with 528 points.
  WARNING: large normalization error in atomic orbital 1s (integral: 0.000001).
  Core radius for overlap checks: 2.10 bohrs.
  Reading pulay file /data2/jt577/jdftx_eat_withLibXC/build/pseudopotentials/SG15/Cr_ONCV_PBE.pulay ... using dE_dnG = -9.817895e-06 computed for Ecut = 30.

Reading pseudopotential file '/data2/jt577/jdftx_eat_withLibXC/build/pseudopotentials/SG15/V_ONCV_PBE.upf':
  'V' pseudopotential, 'PBE' functional
  Generated using ONCVPSP code by D. R. Hamann
  Author: Martin Schlipf and Francois Gygi  Date: 150915.
  13 valence electrons, 4 orbitals, 6 projectors, 1536 radial grid points, with lMax = 2
  Transforming local potential to a uniform radial grid of dG=0.02 with 1419 points.
  Transforming nonlocal projectors to a uniform radial grid of dG=0.02 with 528 points.
    3S    l: 0   occupation:  2.0   eigenvalue: -2.581105
    3P    l: 1   occupation:  6.0   eigenvalue: -1.618486
    4S    l: 0   occupation:  2.0   eigenvalue: -0.172804
    3D    l: 2   occupation:  3.0   eigenvalue: -0.189795
  Transforming atomic orbitals to a uniform radial grid of dG=0.02 with 528 points.
  Core radius for overlap checks: 1.80 bohrs.
  Reading pulay file /data2/jt577/jdftx_eat_withLibXC/build/pseudopotentials/SG15/V_ONCV_PBE.pulay ... using dE_dnG = -1.698632e-04 computed for Ecut = 30.

Reading pseudopotential file '/data2/jt577/jdftx_eat_withLibXC/build/pseudopotentials/SG15/O_ONCV_PBE.upf':
  'O' pseudopotential, 'PBE' functional
  Generated using ONCVPSP code by D. R. Hamann
  Author: Martin Schlipf and Francois Gygi  Date: 150915.
  6 valence electrons, 2 orbitals, 4 projectors, 936 radial grid points, with lMax = 1
  Transforming local potential to a uniform radial grid of dG=0.02 with 1419 points.
  Transforming nonlocal projectors to a uniform radial grid of dG=0.02 with 528 points.
    2S    l: 0   occupation:  2.0   eigenvalue: -0.880572
    2P    l: 1   occupation:  4.0   eigenvalue: -0.331869
  Transforming atomic orbitals to a uniform radial grid of dG=0.02 with 528 points.
  Core radius for overlap checks: 1.29 bohrs.
  Reading pulay file /data2/jt577/jdftx_eat_withLibXC/build/pseudopotentials/SG15/O_ONCV_PBE.pulay ... using dE_dnG = -8.209514e-03 computed for Ecut = 30.

Reading pseudopotential file '/data2/jt577/jdftx_eat_withLibXC/build/pseudopotentials/SG15/H_ONCV_PBE.upf':
  'H' pseudopotential, 'PBE' functional
  Generated using ONCVPSP code by D. R. Hamann
  Author: Martin Schlipf and Francois Gygi  Date: 150915.
  1 valence electrons, 1 orbitals, 2 projectors, 1166 radial grid points, with lMax = 0
  Transforming local potential to a uniform radial grid of dG=0.02 with 1419 points.
  Transforming nonlocal projectors to a uniform radial grid of dG=0.02 with 528 points.
    1S    l: 0   occupation:  1.0   eigenvalue: -0.238602
  Transforming atomic orbitals to a uniform radial grid of dG=0.02 with 528 points.
  Core radius for overlap checks: 1.01 bohrs.
  Reading pulay file /data2/jt577/jdftx_eat_withLibXC/build/pseudopotentials/SG15/H_ONCV_PBE.pulay ... using dE_dnG = -8.245991e-05 computed for Ecut = 30.

Initialized 6 species with 34 total atoms.

Folded 1 k-points by 3x3x1 to 9 k-points.

---------- Setting up k-points, bands, fillings ----------
No reducable k-points. 
Computing the number of bands and number of electrons
Calculating initial fillings.
nElectrons: 341.000000   nBands: 229   nStates: 18

----- Setting up reduced wavefunction bases (one per k-point) -----
average nbasis = 42312.000 , ideal nbasis = 42330.081

---------- Setting up ewald sum ----------
Optimum gaussian width for ewald sums = 3.887061 bohr.
Real space sum over 605 unit cells with max indices [  5  5  2  ]
Reciprocal space sum over 5915 terms with max indices [  6  6  17  ]

---------- Allocating electronic variables ----------
Initializing wave functions:  linear combination of atomic orbitals
Ni (M=1) pseudo-atom majority spin occupations:   s ( 1 0.5 )  p ( 3 )  d ( 5 )
Ni (M=1) pseudo-atom minority spin occupations:   s ( 1 0 )  p ( 3 )  d ( 4.5 )
Co (M=1) pseudo-atom majority spin occupations:   s ( 1 0 )  p ( 3 )  d ( 5 )
Co (M=1) pseudo-atom minority spin occupations:   s ( 1 0 )  p ( 3 )  d ( 4 )
Cr (M=1) pseudo-atom majority spin occupations:   s ( 1 0 )  p ( 3 )  d ( 3.5 )
Cr (M=1) pseudo-atom minority spin occupations:   s ( 1 0 )  p ( 3 )  d ( 2.5 )
V (M=1) pseudo-atom majority spin occupations:   s ( 1 0 )  p ( 3 )  d ( 3 )
V (M=1) pseudo-atom minority spin occupations:   s ( 1 0 )  p ( 3 )  d ( 2 )
O pseudo-atom occupations:   s ( 2 )  p ( 4 )
H pseudo-atom occupations:   s ( 1 )
	FillingsUpdate:  mu: -0.618334115  nElectrons: 341.000000  magneticMoment: [ Abs: 0.81375  Tot: -0.00000 ]
LCAOMinimize: Iter:   0  F: -1759.9774422534972018  |grad|_K:  1.140e-02  alpha:  1.000e+00
	FillingsUpdate:  mu: -0.461428143  nElectrons: 341.000000  magneticMoment: [ Abs: 2.71368  Tot: +0.00000 ]
LCAOMinimize: Iter:   1  F: -1772.6902417143880939  |grad|_K:  2.762e-02  alpha:  9.473e-02  linmin:  2.877e-02  cgtest:  2.923e-01  t[s]:     43.29
LCAOMinimize: 	Bad step direction: g.d > 0.
LCAOMinimize: 	Undoing step.
LCAOMinimize: 	Step failed: resetting search direction.
	FillingsUpdate:  mu: -0.461428143  nElectrons: 341.000000  magneticMoment: [ Abs: 2.71368  Tot: +0.00000 ]
LCAOMinimize: Iter:   2  F: -1772.6902417143862749  |grad|_K:  2.762e-02  alpha:  0.000e+00
LCAOMinimize: 	Step increased F by 2.932178e+00, reducing alpha to 4.091268e-03.
	FillingsUpdate:  mu: -0.497522121  nElectrons: 341.000000  magneticMoment: [ Abs: 2.82141  Tot: +0.00000 ]
LCAOMinimize: Iter:   3  F: -1777.4624689731092531  |grad|_K:  3.228e-02  alpha:  4.091e-03  linmin: -7.963e-02  cgtest:  6.487e-01  t[s]:     78.46
LCAOMinimize: 	Predicted alpha/alphaT>3.000000, increasing alphaT to 1.227380e-02.
	FillingsUpdate:  mu: -0.472717160  nElectrons: 341.000000  magneticMoment: [ Abs: 5.37058  Tot: +0.00000 ]
LCAOMinimize: Iter:   4  F: -1786.5445283149474562  |grad|_K:  1.704e-02  alpha:  6.549e-03  linmin:  6.980e-02  cgtest: -3.362e-01  t[s]:     97.32
LCAOMinimize: 	Bad step direction: g.d > 0.
LCAOMinimize: 	Undoing step.
LCAOMinimize: 	Step failed: resetting search direction.
	FillingsUpdate:  mu: -0.472717160  nElectrons: 341.000000  magneticMoment: [ Abs: 5.37058  Tot: +0.00000 ]
LCAOMinimize: Iter:   5  F: -1786.5445283149474562  |grad|_K:  1.704e-02  alpha:  0.000e+00
	FillingsUpdate:  mu: -0.568793044  nElectrons: 341.000000  magneticMoment: [ Abs: 4.91455  Tot: -0.00000 ]
LCAOMinimize: Iter:   6  F: -1788.3673638690745520  |grad|_K:  2.760e-02  alpha:  1.770e-02  linmin:  7.999e-03  cgtest: -1.992e-01  t[s]:    122.35
LCAOMinimize: 	Wrong curvature in test step, increasing alphaT to 5.310814e-02.
	FillingsUpdate:  mu: -0.042824325  nElectrons: 341.000000  magneticMoment: [ Abs: 5.77553  Tot: -0.00000 ]
LCAOMinimize: Iter:   7  F: -1804.0501042698185756  |grad|_K:  3.167e-02  alpha: -9.435e-03  linmin: -1.793e-02  cgtest:  1.210e+00  t[s]:    135.86
LCAOMinimize: Encountered beta<0, resetting CG.
LCAOMinimize: 	Step increased F by 3.816819e+02, reducing alpha to 2.201600e-02.
	FillingsUpdate:  mu: +0.139479136  nElectrons: 341.000000  magneticMoment: [ Abs: 6.92175  Tot: +0.00000 ]
LCAOMinimize: Iter:   8  F: -1807.5089241549239887  |grad|_K:  2.994e-02  alpha:  2.202e-02  linmin:  7.928e-02  cgtest: -7.781e-01  t[s]:    160.48
LCAOMinimize: 	Bad step direction: g.d > 0.
LCAOMinimize: 	Undoing step.
LCAOMinimize: 	Step failed: resetting search direction.
	FillingsUpdate:  mu: +0.139479136  nElectrons: 341.000000  magneticMoment: [ Abs: 6.92175  Tot: +0.00000 ]
LCAOMinimize: Iter:   9  F: -1807.5089241549258077  |grad|_K:  2.994e-02  alpha:  0.000e+00
	FillingsUpdate:  mu: -0.069794435  nElectrons: 341.000000  magneticMoment: [ Abs: 8.46251  Tot: +0.00000 ]
LCAOMinimize: Iter:  10  F: -1814.7026682830967275  |grad|_K:  1.833e-02  alpha:  1.131e-02  linmin:  6.488e-02  cgtest: -1.668e-01  t[s]:    185.44
	FillingsUpdate:  mu: -0.019570952  nElectrons: 341.000000  magneticMoment: [ Abs: 9.14608  Tot: +0.00000 ]
LCAOMinimize: Iter:  11  F: -1815.8142353186601667  |grad|_K:  2.401e-02  alpha:  1.280e-02  linmin: -1.169e-02  cgtest:  1.013e+00  t[s]:    199.98
	FillingsUpdate:  mu: -0.039918022  nElectrons: 341.000000  magneticMoment: [ Abs: 9.80255  Tot: +0.00000 ]
LCAOMinimize: Iter:  12  F: -1819.1328329589809982  |grad|_K:  1.218e-02  alpha:  1.115e-02  linmin:  2.836e-02  cgtest: -3.895e-01  t[s]:    214.54
LCAOMinimize: 	Predicted alpha/alphaT>3.000000, increasing alphaT to 3.344000e-02.
	FillingsUpdate:  mu: +0.138447327  nElectrons: 341.000000  magneticMoment: [ Abs: 11.25262  Tot: +0.00000 ]
LCAOMinimize: Iter:  13  F: -1820.6165008856091845  |grad|_K:  1.774e-02  alpha:  2.129e-02  linmin:  3.475e-04  cgtest:  8.382e-01  t[s]:    233.09
	FillingsUpdate:  mu: +0.073391894  nElectrons: 341.000000  magneticMoment: [ Abs: 11.32988  Tot: -0.00000 ]
LCAOMinimize: Iter:  14  F: -1822.2141780329839094  |grad|_K:  5.770e-03  alpha:  9.380e-03  linmin: -2.283e-02  cgtest:  1.993e-01  t[s]:    247.50
LCAOMinimize: 	Predicted alpha/alphaT>3.000000, increasing alphaT to 2.813860e-02.
	FillingsUpdate:  mu: +0.105283794  nElectrons: 341.000000  magneticMoment: [ Abs: 11.31277  Tot: +0.00000 ]
LCAOMinimize: Iter:  15  F: -1822.8486746552580371  |grad|_K:  6.082e-03  alpha:  3.823e-02  linmin: -5.084e-03  cgtest:  1.172e-01  t[s]:    266.08
	FillingsUpdate:  mu: +0.015591628  nElectrons: 341.000000  magneticMoment: [ Abs: 11.80708  Tot: +0.00000 ]
LCAOMinimize: Iter:  16  F: -1823.2379334858942457  |grad|_K:  6.186e-03  alpha:  2.419e-02  linmin: -7.622e-04  cgtest: -2.170e-01  t[s]:    280.60
	FillingsUpdate:  mu: -0.004627958  nElectrons: 341.000000  magneticMoment: [ Abs: 13.63579  Tot: +0.00000 ]
LCAOMinimize: Iter:  17  F: -1824.0021578041621524  |grad|_K:  4.392e-03  alpha:  3.633e-02  linmin: -1.500e-02  cgtest:  1.052e+00  t[s]:    295.23
LCAOMinimize: Encountered beta<0, resetting CG.
	FillingsUpdate:  mu: +0.015612713  nElectrons: 341.000000  magneticMoment: [ Abs: 13.92803  Tot: -0.00000 ]
LCAOMinimize: Iter:  18  F: -1824.1479319251948255  |grad|_K:  2.919e-03  alpha:  1.514e-02  linmin:  4.864e-03  cgtest: -4.955e-03  t[s]:    309.64
	FillingsUpdate:  mu: +0.045475725  nElectrons: 341.000000  magneticMoment: [ Abs: 14.90319  Tot: -0.00000 ]
LCAOMinimize: Iter:  19  F: -1824.3026177298868333  |grad|_K:  1.968e-03  alpha:  3.804e-02  linmin: -2.853e-03  cgtest:  3.143e-01  t[s]:    324.05
	FillingsUpdate:  mu: +0.027325918  nElectrons: 341.000000  magneticMoment: [ Abs: 14.97744  Tot: -0.00000 ]
LCAOMinimize: Iter:  20  F: -1824.3901570234909286  |grad|_K:  1.845e-03  alpha:  4.548e-02  linmin: -6.113e-03  cgtest:  6.635e-03  t[s]:    338.68
	FillingsUpdate:  mu: +0.015116887  nElectrons: 341.000000  magneticMoment: [ Abs: 15.54816  Tot: +0.00000 ]
LCAOMinimize: Iter:  21  F: -1824.4382612389863425  |grad|_K:  1.780e-03  alpha:  2.737e-02  linmin: -3.292e-05  cgtest: -2.199e-01  t[s]:    352.88
LCAOMinimize: 	Predicted alpha/alphaT>3.000000, increasing alphaT to 8.210454e-02.
	FillingsUpdate:  mu: +0.043529360  nElectrons: 341.000000  magneticMoment: [ Abs: 17.82947  Tot: +0.00000 ]
LCAOMinimize: Iter:  22  F: -1824.5356775115815253  |grad|_K:  1.285e-03  alpha:  5.413e-02  linmin:  3.590e-04  cgtest:  4.431e-01  t[s]:    371.59
	FillingsUpdate:  mu: +0.039889892  nElectrons: 341.000000  magneticMoment: [ Abs: 18.01502  Tot: +0.00000 ]
LCAOMinimize: Iter:  23  F: -1824.5523953080264619  |grad|_K:  1.240e-03  alpha:  2.172e-02  linmin:  5.566e-04  cgtest:  4.227e-02  t[s]:    386.35
	FillingsUpdate:  mu: +0.020391248  nElectrons: 341.000000  magneticMoment: [ Abs: 18.38847  Tot: -0.00000 ]
LCAOMinimize: Iter:  24  F: -1824.5801092477909151  |grad|_K:  9.869e-04  alpha:  3.610e-02  linmin: -4.652e-03  cgtest:  1.362e-01  t[s]:    400.86
	FillingsUpdate:  mu: +0.036714860  nElectrons: 341.000000  magneticMoment: [ Abs: 20.38181  Tot: -0.00000 ]
LCAOMinimize: Iter:  25  F: -1824.6318750356797409  |grad|_K:  1.547e-03  alpha:  9.264e-02  linmin: -2.352e-03  cgtest: -8.639e-02  t[s]:    415.57
	FillingsUpdate:  mu: +0.036056792  nElectrons: 341.000000  magneticMoment: [ Abs: 21.25952  Tot: -0.00000 ]
LCAOMinimize: Iter:  26  F: -1824.6566035145006026  |grad|_K:  1.192e-03  alpha:  1.797e-02  linmin: -8.141e-04  cgtest:  1.636e-01  t[s]:    430.16
LCAOMinimize: 	Predicted alpha/alphaT>3.000000, increasing alphaT to 5.391979e-02.
	FillingsUpdate:  mu: +0.021710958  nElectrons: 341.000000  magneticMoment: [ Abs: 22.08191  Tot: +0.00000 ]
LCAOMinimize: Iter:  27  F: -1824.7000801085616786  |grad|_K:  8.815e-04  alpha:  6.162e-02  linmin: -1.124e-03  cgtest: -3.671e-01  t[s]:    449.16
	FillingsUpdate:  mu: +0.028550759  nElectrons: 341.000000  magneticMoment: [ Abs: 22.98830  Tot: +0.00000 ]
LCAOMinimize: Iter:  28  F: -1824.7187388563108925  |grad|_K:  1.181e-03  alpha:  4.710e-02  linmin:  3.522e-05  cgtest: -1.006e-01  t[s]:    463.88
	FillingsUpdate:  mu: +0.023281762  nElectrons: 341.000000  magneticMoment: [ Abs: 24.61705  Tot: +0.00000 ]
LCAOMinimize: Iter:  29  F: -1824.7448249173598924  |grad|_K:  6.138e-04  alpha:  4.008e-02  linmin: -7.816e-04  cgtest:  5.581e-01  t[s]:    478.59
LCAOMinimize: Encountered beta<0, resetting CG.
	FillingsUpdate:  mu: +0.023858984  nElectrons: 341.000000  magneticMoment: [ Abs: 24.57828  Tot: -0.00000 ]
LCAOMinimize: Iter:  30  F: -1824.7498682601255950  |grad|_K:  6.071e-04  alpha:  2.874e-02  linmin: -7.002e-04  cgtest: -3.400e-03  t[s]:    493.16
LCAOMinimize: None of the convergence criteria satisfied after 30 iterations.


---- Citations for features of the code used in this run ----

   Software package:
      R. Sundararaman, K. Letchworth-Weaver, K.A. Schwarz, D. Gunceler, Y. Ozhabes and T.A. Arias, 'JDFTx: software for joint density-functional theory', SoftwareX 6, 278 (2017)

   Simplified rotationally-invariant DFT+U:
      S. L. Dudarev et al., Phys. Rev. B 57, 1505 (1998)

   LibXC library of exchange-correlation functions:
      M. A. L. Marques, M. J. T. Oliveira and T. Burnus, Comput. Phys. Commun. 183, 2272 (2012)

   Hammer, Hansen, and Norskov exchange functional:
      B. Hammer, L. B. Hansen, and J. K. Nørskov, Phys. Rev. B 59, 7413 (1999)

   Perdew, Burke & Ernzerhof correlation functional:
      J. P. Perdew, K. Burke, and M. Ernzerhof, Phys. Rev. Lett. 77, 3865 (1996)

   Pseudopotentials:
      M Schlipf and F Gygi, Comput. Phys. Commun. 196, 36 (2015)

   Total energy minimization with Auxiliary Hamiltonian:
      C. Freysoldt, S. Boeck, and J. Neugebauer, Phys. Rev. B 79, 241103(R) (2009)

This list may not be complete. Please suggest additional citations or
report any other bugs at https://github.com/shankar1729/jdftx/issues

Initialization completed successfully at t[s]:    499.86


-------- Electronic minimization -----------
	FillingsUpdate:  mu: +0.023858985  nElectrons: 341.000000  magneticMoment: [ Abs: 24.57828  Tot: -0.00000 ]
ElecMinimize: Iter:   0  F: -1824.749868260124686  |grad|_K:  8.612e-04  alpha:  1.000e+00
	FillingsUpdate:  mu: +0.485063856  nElectrons: 341.000000  magneticMoment: [ Abs: 26.90794  Tot: -0.00000 ]
	SubspaceRotationAdjust: set factor to 0.941
ElecMinimize: Iter:   1  F: -1860.258537292622577  |grad|_K:  1.343e-03  alpha:  4.698e-01  linmin:  7.038e-03  t[s]:    590.97
ElecMinimize: 	Step increased F by 8.423279e+00, reducing alpha to 5.759580e-03.
	FillingsUpdate:  mu: +0.298982411  nElectrons: 341.000000  magneticMoment: [ Abs: 26.25579  Tot: +0.00000 ]
	SubspaceRotationAdjust: set factor to 1.29
ElecMinimize: Iter:   2  F: -1863.085900284791933  |grad|_K:  8.095e-04  alpha:  5.760e-03  linmin: -3.992e-03  t[s]:    712.47
	FillingsUpdate:  mu: +0.209088073  nElectrons: 341.000000  magneticMoment: [ Abs: 25.36548  Tot: +0.00000 ]
	SubspaceRotationAdjust: set factor to 1.16
ElecMinimize: Iter:   3  F: -1865.166049165505456  |grad|_K:  7.384e-04  alpha:  1.233e-02  linmin: -1.859e-03  t[s]:    788.77
ElecMinimize: 	Predicted alpha/alphaT>3.000000, increasing alphaT to 3.699781e-02.
	FillingsUpdate:  mu: +0.811505891  nElectrons: 341.000000  magneticMoment: [ Abs: 28.19109  Tot: +0.00000 ]
	SubspaceRotationAdjust: set factor to 0.635
ElecMinimize: Iter:   4  F: -1874.849642210302591  |grad|_K:  1.520e-03  alpha:  7.194e-02  linmin: -1.510e-03  t[s]:    892.82
	FillingsUpdate:  mu: +0.571990693  nElectrons: 341.000000  magneticMoment: [ Abs: 29.07849  Tot: +0.00000 ]
	SubspaceRotationAdjust: set factor to 0.425
ElecMinimize: Iter:   5  F: -1881.798849874315465  |grad|_K:  7.603e-04  alpha:  9.358e-03  linmin: -1.692e-03  t[s]:    964.08
	FillingsUpdate:  mu: +0.331710946  nElectrons: 341.000000  magneticMoment: [ Abs: 27.59851  Tot: -0.00000 ]
	SubspaceRotationAdjust: set factor to 0.452
ElecMinimize: Iter:   6  F: -1885.070257757814034  |grad|_K:  4.901e-04  alpha:  2.524e-02  linmin: -4.266e-04  t[s]:   1046.05
	FillingsUpdate:  mu: +0.474627838  nElectrons: 341.000000  magneticMoment: [ Abs: 27.00491  Tot: -0.00000 ]
	SubspaceRotationAdjust: set factor to 0.281
ElecMinimize: Iter:   7  F: -1887.477447773700078  |grad|_K:  7.300e-04  alpha:  5.066e-02  linmin:  8.839e-04  t[s]:   1123.39
	FillingsUpdate:  mu: +0.418939576  nElectrons: 341.000000  magneticMoment: [ Abs: 27.17537  Tot: +0.00000 ]
	SubspaceRotationAdjust: set factor to 0.188
ElecMinimize: Iter:   8  F: -1887.736023505600087  |grad|_K:  6.383e-04  alpha:  2.243e-03  linmin: -1.257e-03  t[s]:   1206.79
ElecMinimize: 	Wrong curvature in test step, increasing alphaT to 6.729081e-03.
	FillingsUpdate:  mu: +0.387161476  nElectrons: 341.000000  magneticMoment: [ Abs: 27.43327  Tot: -0.00000 ]
	SubspaceRotationAdjust: set factor to 0.139
ElecMinimize: Iter:   9  F: -1888.221713134170386  |grad|_K:  5.548e-04  alpha: -1.415e-01  linmin: -3.553e-03  t[s]:   1257.73
ElecMinimize: 	Step increased F by 1.228290e+02, reducing alpha to 1.397708e-02.
ElecMinimize: 	Step increased F by 7.504896e+00, reducing alpha to 1.397708e-03.
ElecMinimize: 	Step increased F by 9.545477e+00, reducing alpha to 1.397708e-04.
ElecMinimize: 	Step failed to reduce F after 3 attempts. Quitting step.
ElecMinimize: 	Undoing step.
ElecMinimize: 	Step failed: resetting search direction.
	FillingsUpdate:  mu: +0.297292110  nElectrons: 341.000000  magneticMoment: [ Abs: 27.34489  Tot: -0.00000 ]
	SubspaceRotationAdjust: set factor to 0.173
ElecMinimize: Iter:  10  F: -1878.633302913491207  |grad|_K:  5.589e-04  alpha:  1.398e-04
ElecMinimize: 	Step increased F by 2.101951e+00, reducing alpha to 2.851569e-02.
	FillingsUpdate:  mu: +0.202532901  nElectrons: 341.000000  magneticMoment: [ Abs: 27.68044  Tot: -0.00000 ]
	SubspaceRotationAdjust: set factor to 0.232
ElecMinimize: Iter:  11  F: -1880.306505306576810  |grad|_K:  4.725e-04  alpha:  2.852e-02  linmin: -1.529e-02  t[s]:   1583.03
ElecMinimize: 	Predicted alpha/alphaT>3.000000, increasing alphaT to 8.554707e-02.
	FillingsUpdate:  mu: +0.319994918  nElectrons: 341.000000  magneticMoment: [ Abs: 28.22521  Tot: -0.00000 ]
	SubspaceRotationAdjust: set factor to 0.16
ElecMinimize: Iter:  12  F: -1885.076963847604702  |grad|_K:  4.406e-04  alpha:  8.275e-02  linmin:  9.569e-04  t[s]:   1695.51
	FillingsUpdate:  mu: +0.206317493  nElectrons: 341.000000  magneticMoment: [ Abs: 28.34351  Tot: -0.00000 ]
	SubspaceRotationAdjust: set factor to 0.173
ElecMinimize: Iter:  13  F: -1887.987669821476175  |grad|_K:  2.920e-04  alpha:  8.952e-02  linmin: -6.403e-04  t[s]:   1778.90
	FillingsUpdate:  mu: +0.153397260  nElectrons: 341.000000  magneticMoment: [ Abs: 28.42851  Tot: +0.00000 ]
	SubspaceRotationAdjust: set factor to 0.151
ElecMinimize: Iter:  14  F: -1889.191263565554209  |grad|_K:  2.305e-04  alpha:  7.843e-02  linmin: -5.295e-04  t[s]:   1861.64
	FillingsUpdate:  mu: +0.229016879  nElectrons: 341.000000  magneticMoment: [ Abs: 29.35464  Tot: -0.00000 ]
	SubspaceRotationAdjust: set factor to 0.108
	SubspaceRotationAdjust: resetting CG because factor has changed by 0.108401
ElecMinimize: 	State modified externally: resetting search direction.
ElecMinimize: Iter:  15  F: -1890.761306433767231  |grad|_K:  1.851e-04  alpha:  1.546e-01
	FillingsUpdate:  mu: +0.135736535  nElectrons: 341.000000  magneticMoment: [ Abs: 29.45989  Tot: -0.00000 ]
	SubspaceRotationAdjust: set factor to 0.127
ElecMinimize: Iter:  16  F: -1891.566631568316780  |grad|_K:  7.060e-05  alpha:  1.380e-01  linmin: -4.699e-03  t[s]:   2034.15
	FillingsUpdate:  mu: +0.104341212  nElectrons: 341.000000  magneticMoment: [ Abs: 29.58199  Tot: -0.00000 ]
	SubspaceRotationAdjust: set factor to 0.163
ElecMinimize: Iter:  17  F: -1891.936297320647100  |grad|_K:  6.560e-05  alpha:  3.815e-01  linmin: -4.242e-04  t[s]:   2112.82
	FillingsUpdate:  mu: +0.119349987  nElectrons: 341.000000  magneticMoment: [ Abs: 30.47367  Tot: +0.00000 ]
	SubspaceRotationAdjust: set factor to 0.181
ElecMinimize: Iter:  18  F: -1892.392764455325505  |grad|_K:  6.399e-05  alpha:  5.426e-01  linmin: -8.879e-04  t[s]:   2192.38
	FillingsUpdate:  mu: +0.194775342  nElectrons: 341.000000  magneticMoment: [ Abs: 31.80979  Tot: -0.00000 ]
	SubspaceRotationAdjust: set factor to 0.147
ElecMinimize: Iter:  19  F: -1892.804127427859839  |grad|_K:  8.817e-05  alpha:  4.817e-01  linmin: -2.536e-04  t[s]:   2271.86
	FillingsUpdate:  mu: +0.163953915  nElectrons: 341.000000  magneticMoment: [ Abs: 33.88855  Tot: -0.00000 ]
	SubspaceRotationAdjust: set factor to 0.143
ElecMinimize: Iter:  20  F: -1893.425274788804927  |grad|_K:  9.416e-05  alpha:  4.231e-01  linmin: -3.264e-04  t[s]:   2350.45
	FillingsUpdate:  mu: +0.132999648  nElectrons: 341.000000  magneticMoment: [ Abs: 34.22081  Tot: -0.00000 ]
	SubspaceRotationAdjust: set factor to 0.207
ElecMinimize: Iter:  21  F: -1894.036803345458566  |grad|_K:  7.753e-05  alpha:  1.795e-01  linmin: -1.836e-03  t[s]:   2430.35
	FillingsUpdate:  mu: +0.045574744  nElectrons: 341.000000  magneticMoment: [ Abs: 33.28794  Tot: +0.00000 ]
	SubspaceRotationAdjust: set factor to 0.15
ElecMinimize: Iter:  22  F: -1894.579389593735414  |grad|_K:  1.062e-04  alpha:  1.447e-01  linmin: -5.775e-05  t[s]:   2508.50
ElecMinimize: 	Step increased F by 1.505756e-01, reducing alpha to 2.100055e-03.
ElecMinimize: 	Step increased F by 9.838658e-03, reducing alpha to 2.100055e-04.
ElecMinimize: 	Step increased F by 1.393807e-02, reducing alpha to 2.100055e-05.
ElecMinimize: 	Step failed to reduce F after 3 attempts. Quitting step.
ElecMinimize: 	Undoing step.
ElecMinimize: 	Step failed: resetting search direction.
	FillingsUpdate:  mu: +0.044334373  nElectrons: 341.000000  magneticMoment: [ Abs: 33.28530  Tot: -0.00000 ]
	SubspaceRotationAdjust: set factor to 0.121
ElecMinimize: Iter:  23  F: -1894.565370756213497  |grad|_K:  9.585e-05  alpha:  2.100e-05
	FillingsUpdate:  mu: +0.115837757  nElectrons: 341.000000  magneticMoment: [ Abs: 34.42994  Tot: -0.00000 ]
	SubspaceRotationAdjust: set factor to 0.0725
ElecMinimize: Iter:  24  F: -1894.872233486456025  |grad|_K:  4.600e-05  alpha:  1.986e-01  linmin:  8.593e-03  t[s]:   2802.98
	FillingsUpdate:  mu: +0.136124780  nElectrons: 341.000000  magneticMoment: [ Abs: 34.31901  Tot: -0.00000 ]
	SubspaceRotationAdjust: set factor to 0.0712
ElecMinimize: Iter:  25  F: -1895.045527099108085  |grad|_K:  3.854e-05  alpha:  5.143e-01  linmin: -7.970e-04  t[s]:   2877.11
	FillingsUpdate:  mu: +0.139954777  nElectrons: 341.000000  magneticMoment: [ Abs: 34.35034  Tot: -0.00000 ]
	SubspaceRotationAdjust: set factor to 0.0553
ElecMinimize: Iter:  26  F: -1895.138045016149135  |grad|_K:  3.766e-05  alpha:  3.387e-01  linmin: -2.122e-04  t[s]:   2957.49
	FillingsUpdate:  mu: +0.126744098  nElectrons: 341.000000  magneticMoment: [ Abs: 34.45311  Tot: +0.00000 ]
	SubspaceRotationAdjust: set factor to 0.0417
ElecMinimize: Iter:  27  F: -1895.216293710027458  |grad|_K:  2.800e-05  alpha:  3.135e-01  linmin: -2.211e-04  t[s]:   3036.57
	FillingsUpdate:  mu: +0.108183131  nElectrons: 341.000000  magneticMoment: [ Abs: 34.61305  Tot: +0.00000 ]
	SubspaceRotationAdjust: set factor to 0.0511
ElecMinimize: Iter:  28  F: -1895.271403573822909  |grad|_K:  2.165e-05  alpha:  3.988e-01  linmin: -3.858e-04  t[s]:   3118.12
	FillingsUpdate:  mu: +0.111586341  nElectrons: 341.000000  magneticMoment: [ Abs: 34.78809  Tot: +0.00000 ]
	SubspaceRotationAdjust: set factor to 0.056
ElecMinimize: Iter:  29  F: -1895.318975683516555  |grad|_K:  2.503e-05  alpha:  5.707e-01  linmin: -5.915e-04  t[s]:   3195.70
	FillingsUpdate:  mu: +0.114031057  nElectrons: 341.000000  magneticMoment: [ Abs: 35.00471  Tot: +0.00000 ]
	SubspaceRotationAdjust: set factor to 0.0538
ElecMinimize: Iter:  30  F: -1895.374555292090690  |grad|_K:  2.662e-05  alpha:  4.968e-01  linmin: -7.124e-04  t[s]:   3272.99
	FillingsUpdate:  mu: +0.106565174  nElectrons: 341.000000  magneticMoment: [ Abs: 35.35505  Tot: -0.00000 ]
	SubspaceRotationAdjust: set factor to 0.0507
ElecMinimize: Iter:  31  F: -1895.440909871456370  |grad|_K:  2.871e-05  alpha:  5.138e-01  linmin: -2.866e-05  t[s]:   3353.53
	FillingsUpdate:  mu: +0.111773496  nElectrons: 341.000000  magneticMoment: [ Abs: 35.77470  Tot: +0.00000 ]
	SubspaceRotationAdjust: set factor to 0.065
ElecMinimize: Iter:  32  F: -1895.499888972829012  |grad|_K:  2.662e-05  alpha:  3.805e-01  linmin: -4.638e-05  t[s]:   3429.16
	FillingsUpdate:  mu: +0.096673715  nElectrons: 341.000000  magneticMoment: [ Abs: 36.18630  Tot: +0.00000 ]
	SubspaceRotationAdjust: set factor to 0.0759
ElecMinimize: Iter:  33  F: -1895.543189487860445  |grad|_K:  2.410e-05  alpha:  3.500e-01  linmin: -4.461e-04  t[s]:   3505.64
	FillingsUpdate:  mu: +0.109525910  nElectrons: 341.000000  magneticMoment: [ Abs: 36.47328  Tot: -0.00000 ]
	SubspaceRotationAdjust: set factor to 0.0898
ElecMinimize: Iter:  34  F: -1895.575793083552298  |grad|_K:  2.195e-05  alpha:  3.121e-01  linmin: -1.142e-04  t[s]:   3585.42
	FillingsUpdate:  mu: +0.098656321  nElectrons: 341.000000  magneticMoment: [ Abs: 36.62093  Tot: -0.00000 ]
	SubspaceRotationAdjust: set factor to 0.0884
ElecMinimize: Iter:  35  F: -1895.597094817787593  |grad|_K:  1.810e-05  alpha:  2.488e-01  linmin:  1.887e-04  t[s]:   3664.34
	FillingsUpdate:  mu: +0.099839649  nElectrons: 341.000000  magneticMoment: [ Abs: 36.78475  Tot: +0.00000 ]
	SubspaceRotationAdjust: set factor to 0.109
ElecMinimize: Iter:  36  F: -1895.612172175409569  |grad|_K:  1.378e-05  alpha:  2.663e-01  linmin:  2.778e-05  t[s]:   3740.89
	FillingsUpdate:  mu: +0.101200144  nElectrons: 341.000000  magneticMoment: [ Abs: 36.90532  Tot: -0.00000 ]
	SubspaceRotationAdjust: set factor to 0.11
ElecMinimize: Iter:  37  F: -1895.621489162432226  |grad|_K:  1.381e-05  alpha:  2.811e-01  linmin:  8.671e-05  t[s]:   3821.42
	FillingsUpdate:  mu: +0.094845162  nElectrons: 341.000000  magneticMoment: [ Abs: 36.97232  Tot: +0.00000 ]
	SubspaceRotationAdjust: set factor to 0.1
ElecMinimize: Iter:  38  F: -1895.628158282864206  |grad|_K:  1.141e-05  alpha:  2.009e-01  linmin:  1.607e-05  t[s]:   3899.08
	FillingsUpdate:  mu: +0.092491505  nElectrons: 341.000000  magneticMoment: [ Abs: 37.11744  Tot: -0.00000 ]
	SubspaceRotationAdjust: set factor to 0.124
ElecMinimize: Iter:  39  F: -1895.635134778534166  |grad|_K:  1.010e-05  alpha:  3.072e-01  linmin:  6.954e-05  t[s]:   3978.40
	FillingsUpdate:  mu: +0.094260488  nElectrons: 341.000000  magneticMoment: [ Abs: 37.28953  Tot: -0.00000 ]
	SubspaceRotationAdjust: set factor to 0.132
ElecMinimize: Iter:  40  F: -1895.640495234423042  |grad|_K:  1.041e-05  alpha:  3.018e-01  linmin: -5.443e-06  t[s]:   4058.84
	FillingsUpdate:  mu: +0.094317548  nElectrons: 341.000000  magneticMoment: [ Abs: 37.40896  Tot: +0.00000 ]
	SubspaceRotationAdjust: set factor to 0.122
ElecMinimize: Iter:  41  F: -1895.644215992138697  |grad|_K:  9.826e-06  alpha:  1.974e-01  linmin: -1.121e-05  t[s]:   4137.46
	FillingsUpdate:  mu: +0.093307117  nElectrons: 341.000000  magneticMoment: [ Abs: 37.62034  Tot: +0.00000 ]
	SubspaceRotationAdjust: set factor to 0.152
ElecMinimize: Iter:  42  F: -1895.649016527336471  |grad|_K:  8.825e-06  alpha:  2.818e-01  linmin: -2.860e-04  t[s]:   4213.90
	FillingsUpdate:  mu: +0.095301094  nElectrons: 341.000000  magneticMoment: [ Abs: 37.89072  Tot: +0.00000 ]
	SubspaceRotationAdjust: set factor to 0.178
ElecMinimize: Iter:  43  F: -1895.654051576107122  |grad|_K:  9.452e-06  alpha:  3.587e-01  linmin: -2.791e-04  t[s]:   4293.24
	FillingsUpdate:  mu: +0.098240501  nElectrons: 341.000000  magneticMoment: [ Abs: 38.15105  Tot: +0.00000 ]
	SubspaceRotationAdjust: set factor to 0.166
ElecMinimize: Iter:  44  F: -1895.658149787739148  |grad|_K:  1.168e-05  alpha:  2.424e-01  linmin: -2.520e-05  t[s]:   4375.25
	FillingsUpdate:  mu: +0.099646655  nElectrons: 341.000000  magneticMoment: [ Abs: 38.46544  Tot: -0.00000 ]
	SubspaceRotationAdjust: set factor to 0.237
ElecMinimize: Iter:  45  F: -1895.662244231409204  |grad|_K:  1.081e-05  alpha:  1.736e-01  linmin: -1.168e-04  t[s]:   4456.07
	FillingsUpdate:  mu: +0.100754836  nElectrons: 341.000000  magneticMoment: [ Abs: 38.72857  Tot: +0.00000 ]
	SubspaceRotationAdjust: set factor to 0.271
ElecMinimize: Iter:  46  F: -1895.666336284208455  |grad|_K:  1.043e-05  alpha:  1.943e-01  linmin: -8.348e-04  t[s]:   4534.62
	FillingsUpdate:  mu: +0.099599040  nElectrons: 341.000000  magneticMoment: [ Abs: 38.95509  Tot: +0.00000 ]
	SubspaceRotationAdjust: set factor to 0.307
ElecMinimize: Iter:  47  F: -1895.670854069298002  |grad|_K:  1.047e-05  alpha:  2.167e-01  linmin: -1.303e-04  t[s]:   4612.74
	FillingsUpdate:  mu: +0.096811148  nElectrons: 341.000000  magneticMoment: [ Abs: 39.15001  Tot: +0.00000 ]
	SubspaceRotationAdjust: set factor to 0.325
ElecMinimize: Iter:  48  F: -1895.674844356642097  |grad|_K:  1.148e-05  alpha:  2.048e-01  linmin:  9.817e-05  t[s]:   4693.58
	FillingsUpdate:  mu: +0.098381020  nElectrons: 341.000000  magneticMoment: [ Abs: 39.40894  Tot: +0.00000 ]
	SubspaceRotationAdjust: set factor to 0.386
ElecMinimize: Iter:  49  F: -1895.678555221505121  |grad|_K:  9.586e-06  alpha:  1.653e-01  linmin: -1.633e-04  t[s]:   4770.10
	FillingsUpdate:  mu: +0.100470648  nElectrons: 341.000000  magneticMoment: [ Abs: 39.66672  Tot: -0.00000 ]
	SubspaceRotationAdjust: set factor to 0.465
ElecMinimize: Iter:  50  F: -1895.682157437079923  |grad|_K:  9.337e-06  alpha:  2.189e-01  linmin: -1.575e-04  t[s]:   4852.98
	FillingsUpdate:  mu: +0.096955667  nElectrons: 341.000000  magneticMoment: [ Abs: 39.79798  Tot: -0.00000 ]
	SubspaceRotationAdjust: set factor to 0.525
ElecMinimize: Iter:  51  F: -1895.685338321584140  |grad|_K:  9.726e-06  alpha:  2.055e-01  linmin: -7.415e-05  t[s]:   4929.95
	FillingsUpdate:  mu: +0.097006577  nElectrons: 341.000000  magneticMoment: [ Abs: 39.87592  Tot: +0.00000 ]
	SubspaceRotationAdjust: set factor to 0.41
ElecMinimize: Iter:  52  F: -1895.686925373046506  |grad|_K:  1.143e-05  alpha:  9.030e-02  linmin: -2.642e-04  t[s]:   5009.05
	FillingsUpdate:  mu: +0.096344115  nElectrons: 341.000000  magneticMoment: [ Abs: 40.03037  Tot: -0.00000 ]
	SubspaceRotationAdjust: set factor to 0.515
ElecMinimize: Iter:  53  F: -1895.689524033550015  |grad|_K:  7.766e-06  alpha:  1.090e-01  linmin: -2.272e-04  t[s]:   5080.88
	FillingsUpdate:  mu: +0.100209420  nElectrons: 341.000000  magneticMoment: [ Abs: 40.23554  Tot: +0.00000 ]
	SubspaceRotationAdjust: set factor to 0.573
ElecMinimize: Iter:  54  F: -1895.691916834727635  |grad|_K:  7.948e-06  alpha:  2.202e-01  linmin:  4.489e-05  t[s]:   5159.14
	FillingsUpdate:  mu: +0.100519622  nElectrons: 341.000000  magneticMoment: [ Abs: 40.29617  Tot: +0.00000 ]
	SubspaceRotationAdjust: set factor to 0.403
ElecMinimize: Iter:  55  F: -1895.693565890908985  |grad|_K:  1.044e-05  alpha:  1.424e-01  linmin: -4.421e-05  t[s]:   5236.71
	FillingsUpdate:  mu: +0.097368295  nElectrons: 341.000000  magneticMoment: [ Abs: 40.32513  Tot: -0.00000 ]
	SubspaceRotationAdjust: set factor to 0.343
ElecMinimize: Iter:  56  F: -1895.694658133617850  |grad|_K:  7.292e-06  alpha:  6.579e-02  linmin:  4.011e-04  t[s]:   5313.39
	FillingsUpdate:  mu: +0.100007938  nElectrons: 341.000000  magneticMoment: [ Abs: 40.42653  Tot: -0.00000 ]
	SubspaceRotationAdjust: set factor to 0.35
ElecMinimize: Iter:  57  F: -1895.696153200048457  |grad|_K:  7.174e-06  alpha:  1.882e-01  linmin:  1.121e-03  t[s]:   5389.19
	FillingsUpdate:  mu: +0.100208382  nElectrons: 341.000000  magneticMoment: [ Abs: 40.50060  Tot: -0.00000 ]
	SubspaceRotationAdjust: set factor to 0.417
ElecMinimize: Iter:  58  F: -1895.697112225560659  |grad|_K:  5.963e-06  alpha:  1.312e-01  linmin: -7.936e-05  t[s]:   5467.83
	FillingsUpdate:  mu: +0.100238351  nElectrons: 341.000000  magneticMoment: [ Abs: 40.54410  Tot: +0.00000 ]
	SubspaceRotationAdjust: set factor to 0.529
ElecMinimize: Iter:  59  F: -1895.698392389535684  |grad|_K:  5.337e-06  alpha:  2.014e-01  linmin: -2.392e-04  t[s]:   5542.37
	FillingsUpdate:  mu: +0.099934305  nElectrons: 341.000000  magneticMoment: [ Abs: 40.53584  Tot: +0.00000 ]
	SubspaceRotationAdjust: set factor to 0.571
ElecMinimize: Iter:  60  F: -1895.699479787343080  |grad|_K:  6.033e-06  alpha:  2.130e-01  linmin:  7.948e-05  t[s]:   5623.63
	FillingsUpdate:  mu: +0.099234964  nElectrons: 341.000000  magneticMoment: [ Abs: 40.55836  Tot: +0.00000 ]
	SubspaceRotationAdjust: set factor to 0.491
ElecMinimize: Iter:  61  F: -1895.700247282035207  |grad|_K:  6.944e-06  alpha:  1.270e-01  linmin:  3.923e-05  t[s]:   5702.93
	FillingsUpdate:  mu: +0.102456592  nElectrons: 341.000000  magneticMoment: [ Abs: 40.60409  Tot: +0.00000 ]
	SubspaceRotationAdjust: set factor to 0.414
ElecMinimize: Iter:  62  F: -1895.700903274645043  |grad|_K:  5.675e-06  alpha:  7.682e-02  linmin: -2.623e-05  t[s]:   5785.08
	FillingsUpdate:  mu: +0.101962604  nElectrons: 341.000000  magneticMoment: [ Abs: 40.61701  Tot: +0.00000 ]
	SubspaceRotationAdjust: set factor to 0.567
ElecMinimize: Iter:  63  F: -1895.701851663187654  |grad|_K:  4.722e-06  alpha:  1.657e-01  linmin: -1.261e-04  t[s]:   5862.72
	FillingsUpdate:  mu: +0.099884430  nElectrons: 341.000000  magneticMoment: [ Abs: 40.59503  Tot: +0.00000 ]
	SubspaceRotationAdjust: set factor to 0.483
ElecMinimize: Iter:  64  F: -1895.702491061874071  |grad|_K:  5.633e-06  alpha:  1.607e-01  linmin: -4.181e-05  t[s]:   5944.13
	FillingsUpdate:  mu: +0.101982543  nElectrons: 341.000000  magneticMoment: [ Abs: 40.61608  Tot: +0.00000 ]
	SubspaceRotationAdjust: set factor to 0.416
ElecMinimize: Iter:  65  F: -1895.702906275000032  |grad|_K:  4.523e-06  alpha:  7.394e-02  linmin: -1.532e-05  t[s]:   6018.66
	FillingsUpdate:  mu: +0.102992197  nElectrons: 341.000000  magneticMoment: [ Abs: 40.66524  Tot: -0.00000 ]
	SubspaceRotationAdjust: set factor to 0.523
ElecMinimize: Iter:  66  F: -1895.703470417376366  |grad|_K:  3.939e-06  alpha:  1.571e-01  linmin: -9.117e-06  t[s]:   6097.32
	FillingsUpdate:  mu: +0.101795157  nElectrons: 341.000000  magneticMoment: [ Abs: 40.67247  Tot: -0.00000 ]
	SubspaceRotationAdjust: set factor to 0.425
ElecMinimize: Iter:  67  F: -1895.703900049506501  |grad|_K:  4.874e-06  alpha:  1.581e-01  linmin:  2.222e-06  t[s]:   6175.28
	FillingsUpdate:  mu: +0.102752984  nElectrons: 341.000000  magneticMoment: [ Abs: 40.68576  Tot: +0.00000 ]
	SubspaceRotationAdjust: set factor to 0.395
ElecMinimize: Iter:  68  F: -1895.704224937339632  |grad|_K:  3.602e-06  alpha:  7.860e-02  linmin:  1.549e-05  t[s]:   6253.44
	FillingsUpdate:  mu: +0.103756155  nElectrons: 341.000000  magneticMoment: [ Abs: 40.71045  Tot: +0.00000 ]
	SubspaceRotationAdjust: set factor to 0.509
ElecMinimize: Iter:  69  F: -1895.704672489458062  |grad|_K:  3.557e-06  alpha:  1.975e-01  linmin: -1.181e-05  t[s]:   6332.06
	FillingsUpdate:  mu: +0.103127191  nElectrons: 341.000000  magneticMoment: [ Abs: 40.73416  Tot: +0.00000 ]
	SubspaceRotationAdjust: set factor to 0.475
ElecMinimize: Iter:  70  F: -1895.704930966381198  |grad|_K:  3.918e-06  alpha:  1.166e-01  linmin: -3.667e-06  t[s]:   6407.41
	FillingsUpdate:  mu: +0.104831623  nElectrons: 341.000000  magneticMoment: [ Abs: 40.78657  Tot: -0.00000 ]
	SubspaceRotationAdjust: set factor to 0.526
ElecMinimize: Iter:  71  F: -1895.705262588993946  |grad|_K:  3.326e-06  alpha:  1.234e-01  linmin: -2.080e-05  t[s]:   6488.11
	FillingsUpdate:  mu: +0.103764308  nElectrons: 341.000000  magneticMoment: [ Abs: 40.80226  Tot: -0.00000 ]
	SubspaceRotationAdjust: set factor to 0.607
ElecMinimize: Iter:  72  F: -1895.705612347159331  |grad|_K:  3.240e-06  alpha:  1.806e-01  linmin:  3.953e-05  t[s]:   6571.69
	FillingsUpdate:  mu: +0.102834595  nElectrons: 341.000000  magneticMoment: [ Abs: 40.84201  Tot: +0.00000 ]
	SubspaceRotationAdjust: set factor to 0.518
ElecMinimize: Iter:  73  F: -1895.705914641671598  |grad|_K:  4.096e-06  alpha:  1.656e-01  linmin:  1.866e-05  t[s]:   6651.68
	FillingsUpdate:  mu: +0.104860931  nElectrons: 341.000000  magneticMoment: [ Abs: 40.89259  Tot: +0.00000 ]
	SubspaceRotationAdjust: set factor to 0.43
ElecMinimize: Iter:  74  F: -1895.706126891418307  |grad|_K:  3.257e-06  alpha:  7.476e-02  linmin:  9.495e-05  t[s]:   6734.25
	FillingsUpdate:  mu: +0.104968661  nElectrons: 341.000000  magneticMoment: [ Abs: 40.94044  Tot: -0.00000 ]
	SubspaceRotationAdjust: set factor to 0.544
ElecMinimize: Iter:  75  F: -1895.706456646524884  |grad|_K:  2.857e-06  alpha:  1.823e-01  linmin:  7.809e-05  t[s]:   6814.04
	FillingsUpdate:  mu: +0.103658512  nElectrons: 341.000000  magneticMoment: [ Abs: 40.95867  Tot: -0.00000 ]
	SubspaceRotationAdjust: set factor to 0.54
ElecMinimize: Iter:  76  F: -1895.706701928762641  |grad|_K:  3.334e-06  alpha:  1.742e-01  linmin:  3.915e-05  t[s]:   6886.71
	FillingsUpdate:  mu: +0.105043442  nElectrons: 341.000000  magneticMoment: [ Abs: 40.99736  Tot: -0.00000 ]
	SubspaceRotationAdjust: set factor to 0.486
ElecMinimize: Iter:  77  F: -1895.706878608267289  |grad|_K:  3.009e-06  alpha:  9.423e-02  linmin:  6.133e-05  t[s]:   6959.78
	FillingsUpdate:  mu: +0.105090568  nElectrons: 341.000000  magneticMoment: [ Abs: 41.04933  Tot: -0.00000 ]
	SubspaceRotationAdjust: set factor to 0.493
ElecMinimize: Iter:  78  F: -1895.707096632072762  |grad|_K:  2.753e-06  alpha:  1.402e-01  linmin:  1.032e-04  t[s]:   7041.29
	FillingsUpdate:  mu: +0.104708631  nElectrons: 341.000000  magneticMoment: [ Abs: 41.07288  Tot: +0.00000 ]
	SubspaceRotationAdjust: set factor to 0.599
ElecMinimize: Iter:  79  F: -1895.707333202016571  |grad|_K:  2.553e-06  alpha:  1.818e-01  linmin: -4.728e-06  t[s]:   7120.55
	FillingsUpdate:  mu: +0.105125916  nElectrons: 341.000000  magneticMoment: [ Abs: 41.10038  Tot: +0.00000 ]
	SubspaceRotationAdjust: set factor to 0.63
ElecMinimize: Iter:  80  F: -1895.707558150226077  |grad|_K:  2.900e-06  alpha:  1.969e-01  linmin: -6.360e-05  t[s]:   7203.27
	FillingsUpdate:  mu: +0.104654825  nElectrons: 341.000000  magneticMoment: [ Abs: 41.12679  Tot: +0.00000 ]
	SubspaceRotationAdjust: set factor to 0.575
ElecMinimize: Iter:  81  F: -1895.707697332530870  |grad|_K:  2.946e-06  alpha:  9.137e-02  linmin: -8.053e-05  t[s]:   7282.70
	FillingsUpdate:  mu: +0.105874817  nElectrons: 341.000000  magneticMoment: [ Abs: 41.16121  Tot: -0.00000 ]
	SubspaceRotationAdjust: set factor to 0.678
ElecMinimize: Iter:  82  F: -1895.707882722252407  |grad|_K:  2.548e-06  alpha:  1.197e-01  linmin: -1.228e-04  t[s]:   7358.47
	FillingsUpdate:  mu: +0.105344455  nElectrons: 341.000000  magneticMoment: [ Abs: 41.15457  Tot: +0.00000 ]
	SubspaceRotationAdjust: set factor to 0.737
ElecMinimize: Iter:  83  F: -1895.708061982792970  |grad|_K:  2.567e-06  alpha:  1.545e-01  linmin:  2.614e-06  t[s]:   7438.99
	FillingsUpdate:  mu: +0.105141888  nElectrons: 341.000000  magneticMoment: [ Abs: 41.17965  Tot: +0.00000 ]
	SubspaceRotationAdjust: set factor to 0.649
ElecMinimize: Iter:  84  F: -1895.708220096918012  |grad|_K:  3.008e-06  alpha:  1.370e-01  linmin:  3.216e-05  t[s]:   7517.31
	FillingsUpdate:  mu: +0.106213152  nElectrons: 341.000000  magneticMoment: [ Abs: 41.19772  Tot: -0.00000 ]
	SubspaceRotationAdjust: set factor to 0.562
ElecMinimize: Iter:  85  F: -1895.708330920010440  |grad|_K:  2.646e-06  alpha:  7.240e-02  linmin:  4.538e-05  t[s]:   7598.64
	FillingsUpdate:  mu: +0.105269872  nElectrons: 341.000000  magneticMoment: [ Abs: 41.19501  Tot: +0.00000 ]
	SubspaceRotationAdjust: set factor to 0.654
ElecMinimize: Iter:  86  F: -1895.708501807957418  |grad|_K:  2.224e-06  alpha:  1.434e-01  linmin:  1.356e-04  t[s]:   7671.97
	FillingsUpdate:  mu: +0.104803537  nElectrons: 341.000000  magneticMoment: [ Abs: 41.20001  Tot: -0.00000 ]
	SubspaceRotationAdjust: set factor to 0.673
ElecMinimize: Iter:  87  F: -1895.708655526320626  |grad|_K:  2.552e-06  alpha:  1.845e-01  linmin:  7.165e-05  t[s]:   7750.02
	FillingsUpdate:  mu: +0.105774047  nElectrons: 341.000000  magneticMoment: [ Abs: 41.21052  Tot: -0.00000 ]
	SubspaceRotationAdjust: set factor to 0.622
ElecMinimize: Iter:  88  F: -1895.708753184586612  |grad|_K:  2.607e-06  alpha:  9.174e-02  linmin:  8.639e-05  t[s]:   7831.08
	FillingsUpdate:  mu: +0.105413432  nElectrons: 341.000000  magneticMoment: [ Abs: 41.21931  Tot: +0.00000 ]
	SubspaceRotationAdjust: set factor to 0.62
ElecMinimize: Iter:  89  F: -1895.708888131772483  |grad|_K:  2.400e-06  alpha:  1.169e-01  linmin:  9.968e-05  t[s]:   7911.20
	FillingsUpdate:  mu: +0.104997216  nElectrons: 341.000000  magneticMoment: [ Abs: 41.21221  Tot: -0.00000 ]
	SubspaceRotationAdjust: set factor to 0.721
ElecMinimize: Iter:  90  F: -1895.709035979618420  |grad|_K:  2.418e-06  alpha:  1.515e-01  linmin:  1.019e-04  t[s]:   7986.75
	FillingsUpdate:  mu: +0.104962306  nElectrons: 341.000000  magneticMoment: [ Abs: 41.22851  Tot: +0.00000 ]
	SubspaceRotationAdjust: set factor to 0.886
	SubspaceRotationAdjust: resetting CG because factor has changed by 8.16931
ElecMinimize: 	State modified externally: resetting search direction.
ElecMinimize: Iter:  91  F: -1895.709194990142350  |grad|_K:  2.648e-06  alpha:  1.597e-01
	FillingsUpdate:  mu: +0.106776620  nElectrons: 341.000000  magneticMoment: [ Abs: 41.25127  Tot: -0.00000 ]
	SubspaceRotationAdjust: set factor to 0.489
ElecMinimize: Iter:  92  F: -1895.709466274561009  |grad|_K:  4.599e-06  alpha:  2.194e-01  linmin: -5.515e-04  t[s]:   8158.10
	FillingsUpdate:  mu: +0.106007060  nElectrons: 341.000000  magneticMoment: [ Abs: 41.25873  Tot: -0.00000 ]
	SubspaceRotationAdjust: set factor to 0.373
ElecMinimize: Iter:  93  F: -1895.709686730336898  |grad|_K:  2.889e-06  alpha:  5.834e-02  linmin:  2.218e-05  t[s]:   8237.25
ElecMinimize: 	Predicted alpha/alphaT>3.000000, increasing alphaT to 1.750211e-01.
	FillingsUpdate:  mu: +0.104084274  nElectrons: 341.000000  magneticMoment: [ Abs: 41.22906  Tot: -0.00000 ]
	SubspaceRotationAdjust: set factor to 0.323
ElecMinimize: Iter:  94  F: -1895.710023482473844  |grad|_K:  2.496e-06  alpha:  2.305e-01  linmin: -7.078e-05  t[s]:   8346.48
	FillingsUpdate:  mu: +0.106088556  nElectrons: 341.000000  magneticMoment: [ Abs: 41.26792  Tot: +0.00000 ]
	SubspaceRotationAdjust: set factor to 0.306
ElecMinimize: Iter:  95  F: -1895.710271465797177  |grad|_K:  2.150e-06  alpha:  2.262e-01  linmin: -3.703e-05  t[s]:   8427.62
	FillingsUpdate:  mu: +0.105957025  nElectrons: 341.000000  magneticMoment: [ Abs: 41.28134  Tot: -0.00000 ]
	SubspaceRotationAdjust: set factor to 0.249
ElecMinimize: Iter:  96  F: -1895.710427840409466  |grad|_K:  2.009e-06  alpha:  1.930e-01  linmin: -1.598e-05  t[s]:   8505.21
	FillingsUpdate:  mu: +0.105594764  nElectrons: 341.000000  magneticMoment: [ Abs: 41.26655  Tot: -0.00000 ]
	SubspaceRotationAdjust: set factor to 0.222
ElecMinimize: Iter:  97  F: -1895.710548735023167  |grad|_K:  1.315e-06  alpha:  1.709e-01  linmin:  2.883e-05  t[s]:   8586.79
	FillingsUpdate:  mu: +0.105361821  nElectrons: 341.000000  magneticMoment: [ Abs: 41.26971  Tot: -0.00000 ]
	SubspaceRotationAdjust: set factor to 0.28
ElecMinimize: Iter:  98  F: -1895.710652097124921  |grad|_K:  1.263e-06  alpha:  3.429e-01  linmin:  3.820e-05  t[s]:   8671.27
	FillingsUpdate:  mu: +0.105173477  nElectrons: 341.000000  magneticMoment: [ Abs: 41.28516  Tot: +0.00000 ]
	SubspaceRotationAdjust: set factor to 0.245
ElecMinimize: Iter:  99  F: -1895.710726779231663  |grad|_K:  1.441e-06  alpha:  2.684e-01  linmin: -1.294e-05  t[s]:   8754.08
	FillingsUpdate:  mu: +0.105877914  nElectrons: 341.000000  magneticMoment: [ Abs: 41.28920  Tot: +0.00000 ]
	SubspaceRotationAdjust: set factor to 0.245
ElecMinimize: Iter: 100  F: -1895.710823809153453  |grad|_K:  1.322e-06  alpha:  2.669e-01  linmin: -5.908e-05  t[s]:   8830.45
	FillingsUpdate:  mu: +0.105209589  nElectrons: 341.000000  magneticMoment: [ Abs: 41.28260  Tot: -0.00000 ]
	SubspaceRotationAdjust: set factor to 0.253
ElecMinimize: Iter: 101  F: -1895.710952770315089  |grad|_K:  1.519e-06  alpha:  4.248e-01  linmin:  3.144e-04  t[s]:   8903.47
	FillingsUpdate:  mu: +0.105246739  nElectrons: 341.000000  magneticMoment: [ Abs: 41.30471  Tot: -0.00000 ]
	SubspaceRotationAdjust: set factor to 0.27
ElecMinimize: Iter: 102  F: -1895.711109605405909  |grad|_K:  1.745e-06  alpha:  3.984e-01  linmin:  2.089e-05  t[s]:   8976.93
	FillingsUpdate:  mu: +0.106101440  nElectrons: 341.000000  magneticMoment: [ Abs: 41.31568  Tot: -0.00000 ]
	SubspaceRotationAdjust: set factor to 0.228
ElecMinimize: Iter: 103  F: -1895.711252007200528  |grad|_K:  1.854e-06  alpha:  2.714e-01  linmin: -3.823e-05  t[s]:   9055.72
	FillingsUpdate:  mu: +0.105252468  nElectrons: 341.000000  magneticMoment: [ Abs: 41.31798  Tot: -0.00000 ]
	SubspaceRotationAdjust: set factor to 0.21
ElecMinimize: Iter: 104  F: -1895.711403082264269  |grad|_K:  1.649e-06  alpha:  2.483e-01  linmin:  3.957e-04  t[s]:   9137.59
	FillingsUpdate:  mu: +0.105399044  nElectrons: 341.000000  magneticMoment: [ Abs: 41.32283  Tot: -0.00000 ]
	SubspaceRotationAdjust: set factor to 0.281
ElecMinimize: Iter: 105  F: -1895.711555275397131  |grad|_K:  1.601e-06  alpha:  3.323e-01  linmin: -2.703e-05  t[s]:   9219.47
	FillingsUpdate:  mu: +0.106357309  nElectrons: 341.000000  magneticMoment: [ Abs: 41.34142  Tot: -0.00000 ]
	SubspaceRotationAdjust: set factor to 0.292
ElecMinimize: Iter: 106  F: -1895.711684681393308  |grad|_K:  1.603e-06  alpha:  2.905e-01  linmin: -2.396e-04  t[s]:   9298.32
	FillingsUpdate:  mu: +0.106075059  nElectrons: 341.000000  magneticMoment: [ Abs: 41.35836  Tot: +0.00000 ]
	SubspaceRotationAdjust: set factor to 0.259
ElecMinimize: Iter: 107  F: -1895.711797507155097  |grad|_K:  1.735e-06  alpha:  2.470e-01  linmin: -9.437e-05  t[s]:   9376.49
	FillingsUpdate:  mu: +0.105918181  nElectrons: 341.000000  magneticMoment: [ Abs: 41.36043  Tot: -0.00000 ]
	SubspaceRotationAdjust: set factor to 0.246
ElecMinimize: Iter: 108  F: -1895.711954889169647  |grad|_K:  1.775e-06  alpha:  3.000e-01  linmin:  3.703e-04  t[s]:   9452.29
	FillingsUpdate:  mu: +0.105343460  nElectrons: 341.000000  magneticMoment: [ Abs: 41.36695  Tot: +0.00000 ]
	SubspaceRotationAdjust: set factor to 0.307
ElecMinimize: Iter: 109  F: -1895.712148493014865  |grad|_K:  2.071e-06  alpha:  3.746e-01  linmin:  4.777e-04  t[s]:   9527.38
	FillingsUpdate:  mu: +0.105595453  nElectrons: 341.000000  magneticMoment: [ Abs: 41.38384  Tot: +0.00000 ]
	SubspaceRotationAdjust: set factor to 0.399
ElecMinimize: Iter: 110  F: -1895.712360881879022  |grad|_K:  2.259e-06  alpha:  3.012e-01  linmin: -2.795e-05  t[s]:   9606.85
	FillingsUpdate:  mu: +0.106369061  nElectrons: 341.000000  magneticMoment: [ Abs: 41.39942  Tot: +0.00000 ]
	SubspaceRotationAdjust: set factor to 0.385
ElecMinimize: Iter: 111  F: -1895.712599115567627  |grad|_K:  2.686e-06  alpha:  2.651e-01  linmin:  2.611e-05  t[s]:   9684.55
	FillingsUpdate:  mu: +0.105691225  nElectrons: 341.000000  magneticMoment: [ Abs: 41.39360  Tot: -0.00000 ]
	SubspaceRotationAdjust: set factor to 0.442
ElecMinimize: Iter: 112  F: -1895.712833485995816  |grad|_K:  2.707e-06  alpha:  1.859e-01  linmin: -7.116e-05  t[s]:   9760.62
	FillingsUpdate:  mu: +0.105847601  nElectrons: 341.000000  magneticMoment: [ Abs: 41.38992  Tot: -0.00000 ]
	SubspaceRotationAdjust: set factor to 0.41
ElecMinimize: Iter: 113  F: -1895.713091454697405  |grad|_K:  2.731e-06  alpha:  1.999e-01  linmin:  2.376e-04  t[s]:   9839.41
	FillingsUpdate:  mu: +0.106396797  nElectrons: 341.000000  magneticMoment: [ Abs: 41.39857  Tot: +0.00000 ]
	SubspaceRotationAdjust: set factor to 0.509
ElecMinimize: Iter: 114  F: -1895.713308180216927  |grad|_K:  2.371e-06  alpha:  1.738e-01  linmin: -1.888e-04  t[s]:   9915.02
	FillingsUpdate:  mu: +0.106778105  nElectrons: 341.000000  magneticMoment: [ Abs: 41.40821  Tot: -0.00000 ]
	SubspaceRotationAdjust: set factor to 0.521
ElecMinimize: Iter: 115  F: -1895.713528165718571  |grad|_K:  2.366e-06  alpha:  2.149e-01  linmin: -4.215e-04  t[s]:   9992.76
	FillingsUpdate:  mu: +0.105785130  nElectrons: 341.000000  magneticMoment: [ Abs: 41.40953  Tot: +0.00000 ]
	SubspaceRotationAdjust: set factor to 0.403
ElecMinimize: Iter: 116  F: -1895.713716859310125  |grad|_K:  2.893e-06  alpha:  1.825e-01  linmin:  5.872e-05  t[s]:  10069.17
	FillingsUpdate:  mu: +0.105590972  nElectrons: 341.000000  magneticMoment: [ Abs: 41.40061  Tot: +0.00000 ]
	SubspaceRotationAdjust: set factor to 0.448
ElecMinimize: Iter: 117  F: -1895.713878117766853  |grad|_K:  2.411e-06  alpha:  1.077e-01  linmin: -9.287e-05  t[s]:  10144.41
	FillingsUpdate:  mu: +0.106149423  nElectrons: 341.000000  magneticMoment: [ Abs: 41.40998  Tot: -0.00000 ]
	SubspaceRotationAdjust: set factor to 0.397
ElecMinimize: Iter: 118  F: -1895.714083853871671  |grad|_K:  2.452e-06  alpha:  1.990e-01  linmin: -2.869e-05  t[s]:  10223.42
	FillingsUpdate:  mu: +0.106384600  nElectrons: 341.000000  magneticMoment: [ Abs: 41.42436  Tot: +0.00000 ]
	SubspaceRotationAdjust: set factor to 0.369
ElecMinimize: Iter: 119  F: -1895.714197315236333  |grad|_K:  2.301e-06  alpha:  1.103e-01  linmin:  7.778e-05  t[s]:  10301.70
	FillingsUpdate:  mu: +0.106799862  nElectrons: 341.000000  magneticMoment: [ Abs: 41.42871  Tot: -0.00000 ]
	SubspaceRotationAdjust: set factor to 0.474
ElecMinimize: Iter: 120  F: -1895.714357441743005  |grad|_K:  1.832e-06  alpha:  1.762e-01  linmin:  1.829e-04  t[s]:  10376.91
	FillingsUpdate:  mu: +0.106182324  nElectrons: 341.000000  magneticMoment: [ Abs: 41.42814  Tot: -0.00000 ]
	SubspaceRotationAdjust: set factor to 0.329
ElecMinimize: Iter: 121  F: -1895.714466648503731  |grad|_K:  2.354e-06  alpha:  1.915e-01  linmin:  2.491e-04  t[s]:  10453.51
	FillingsUpdate:  mu: +0.106327054  nElectrons: 341.000000  magneticMoment: [ Abs: 41.44097  Tot: -0.00000 ]
	SubspaceRotationAdjust: set factor to 0.431
ElecMinimize: Iter: 122  F: -1895.714559061791306  |grad|_K:  1.778e-06  alpha:  1.023e-01  linmin:  1.153e-04  t[s]:  10530.15
	FillingsUpdate:  mu: +0.106643612  nElectrons: 341.000000  magneticMoment: [ Abs: 41.46395  Tot: -0.00000 ]
	SubspaceRotationAdjust: set factor to 0.389
ElecMinimize: Iter: 123  F: -1895.714691717703090  |grad|_K:  1.915e-06  alpha:  2.361e-01  linmin: -4.404e-04  t[s]:  10607.43
	FillingsUpdate:  mu: +0.106881182  nElectrons: 341.000000  magneticMoment: [ Abs: 41.46961  Tot: +0.00000 ]
	SubspaceRotationAdjust: set factor to 0.329
ElecMinimize: Iter: 124  F: -1895.714769359234197  |grad|_K:  1.917e-06  alpha:  1.068e-01  linmin: -3.918e-04  t[s]:  10685.70
	FillingsUpdate:  mu: +0.106752208  nElectrons: 341.000000  magneticMoment: [ Abs: 41.48438  Tot: +0.00000 ]
	SubspaceRotationAdjust: set factor to 0.333
ElecMinimize: Iter: 125  F: -1895.714885885950707  |grad|_K:  1.881e-06  alpha:  1.740e-01  linmin:  1.747e-04  t[s]:  10763.46
	FillingsUpdate:  mu: +0.106709137  nElectrons: 341.000000  magneticMoment: [ Abs: 41.50056  Tot: +0.00000 ]
	SubspaceRotationAdjust: set factor to 0.34
ElecMinimize: Iter: 126  F: -1895.714964456758707  |grad|_K:  1.868e-06  alpha:  1.331e-01  linmin: -9.959e-05  t[s]:  10841.73
	FillingsUpdate:  mu: +0.106786288  nElectrons: 341.000000  magneticMoment: [ Abs: 41.51559  Tot: +0.00000 ]
	SubspaceRotationAdjust: set factor to 0.448
ElecMinimize: Iter: 127  F: -1895.715068178604270  |grad|_K:  1.515e-06  alpha:  1.695e-01  linmin:  3.102e-04  t[s]:  10920.00
	FillingsUpdate:  mu: +0.107049348  nElectrons: 341.000000  magneticMoment: [ Abs: 41.52882  Tot: -0.00000 ]
	SubspaceRotationAdjust: set factor to 0.331
ElecMinimize: Iter: 128  F: -1895.715142366070040  |grad|_K:  1.907e-06  alpha:  1.935e-01  linmin:  1.505e-04  t[s]:  10998.84
	FillingsUpdate:  mu: +0.107215609  nElectrons: 341.000000  magneticMoment: [ Abs: 41.54507  Tot: -0.00000 ]
	SubspaceRotationAdjust: set factor to 0.402
ElecMinimize: Iter: 129  F: -1895.715209530392485  |grad|_K:  1.481e-06  alpha:  1.127e-01  linmin:  8.424e-05  t[s]:  11078.48
	FillingsUpdate:  mu: +0.107177961  nElectrons: 341.000000  magneticMoment: [ Abs: 41.55609  Tot: -0.00000 ]
	SubspaceRotationAdjust: set factor to 0.409
ElecMinimize: Iter: 130  F: -1895.715297800538110  |grad|_K:  1.534e-06  alpha:  2.327e-01  linmin:  1.384e-05  t[s]:  11157.12
	FillingsUpdate:  mu: +0.107250676  nElectrons: 341.000000  magneticMoment: [ Abs: 41.56473  Tot: -0.00000 ]
	SubspaceRotationAdjust: set factor to 0.327
ElecMinimize: Iter: 131  F: -1895.715359453438850  |grad|_K:  1.671e-06  alpha:  1.463e-01  linmin: -3.655e-05  t[s]:  11236.41
	FillingsUpdate:  mu: +0.107662224  nElectrons: 341.000000  magneticMoment: [ Abs: 41.58397  Tot: +0.00000 ]
	SubspaceRotationAdjust: set factor to 0.454
ElecMinimize: Iter: 132  F: -1895.715424756991297  |grad|_K:  1.353e-06  alpha:  1.334e-01  linmin: -6.177e-05  t[s]:  11312.41
	FillingsUpdate:  mu: +0.107562544  nElectrons: 341.000000  magneticMoment: [ Abs: 41.59988  Tot: +0.00000 ]
	SubspaceRotationAdjust: set factor to 0.358
ElecMinimize: Iter: 133  F: -1895.715493271544801  |grad|_K:  1.702e-06  alpha:  2.108e-01  linmin: -9.230e-05  t[s]:  11389.08
	FillingsUpdate:  mu: +0.107718109  nElectrons: 341.000000  magneticMoment: [ Abs: 41.60360  Tot: +0.00000 ]
	SubspaceRotationAdjust: set factor to 0.407
ElecMinimize: Iter: 134  F: -1895.715546764350165  |grad|_K:  1.394e-06  alpha:  1.026e-01  linmin: -5.974e-05  t[s]:  11465.87
	FillingsUpdate:  mu: +0.107801887  nElectrons: 341.000000  magneticMoment: [ Abs: 41.61524  Tot: +0.00000 ]
	SubspaceRotationAdjust: set factor to 0.329
ElecMinimize: Iter: 135  F: -1895.715616031036234  |grad|_K:  1.590e-06  alpha:  2.009e-01  linmin: -5.267e-05  t[s]:  11543.07
	FillingsUpdate:  mu: +0.108135771  nElectrons: 341.000000  magneticMoment: [ Abs: 41.63123  Tot: -0.00000 ]
	SubspaceRotationAdjust: set factor to 0.373
ElecMinimize: Iter: 136  F: -1895.715664935615223  |grad|_K:  1.370e-06  alpha:  1.129e-01  linmin:  4.491e-05  t[s]:  11611.37
	FillingsUpdate:  mu: +0.108394289  nElectrons: 341.000000  magneticMoment: [ Abs: 41.64457  Tot: -0.00000 ]
	SubspaceRotationAdjust: set factor to 0.408
ElecMinimize: Iter: 137  F: -1895.715727804243670  |grad|_K:  1.297e-06  alpha:  1.913e-01  linmin: -1.050e-04  t[s]:  11688.08
	FillingsUpdate:  mu: +0.108422353  nElectrons: 341.000000  magneticMoment: [ Abs: 41.64469  Tot: -0.00000 ]
	SubspaceRotationAdjust: set factor to 0.335
ElecMinimize: Iter: 138  F: -1895.715770724325694  |grad|_K:  1.448e-06  alpha:  1.419e-01  linmin:  3.646e-05  t[s]:  11762.83
	FillingsUpdate:  mu: +0.108300069  nElectrons: 341.000000  magneticMoment: [ Abs: 41.64715  Tot: +0.00000 ]
	SubspaceRotationAdjust: set factor to 0.428
ElecMinimize: Iter: 139  F: -1895.715822786611852  |grad|_K:  1.270e-06  alpha:  1.427e-01  linmin:  4.621e-05  t[s]:  11839.30
	FillingsUpdate:  mu: +0.108520300  nElectrons: 341.000000  magneticMoment: [ Abs: 41.65398  Tot: -0.00000 ]
	SubspaceRotationAdjust: set factor to 0.352
ElecMinimize: Iter: 140  F: -1895.715865649581929  |grad|_K:  1.459e-06  alpha:  1.527e-01  linmin: -1.804e-04  t[s]:  11917.80
	FillingsUpdate:  mu: +0.108997886  nElectrons: 341.000000  magneticMoment: [ Abs: 41.65858  Tot: -0.00000 ]
	SubspaceRotationAdjust: set factor to 0.471
ElecMinimize: Iter: 141  F: -1895.715917920638276  |grad|_K:  1.155e-06  alpha:  1.365e-01  linmin:  2.356e-05  t[s]:  11994.59
	FillingsUpdate:  mu: +0.109079700  nElectrons: 341.000000  magneticMoment: [ Abs: 41.66031  Tot: +0.00000 ]
	SubspaceRotationAdjust: set factor to 0.391
ElecMinimize: Iter: 142  F: -1895.715968656269524  |grad|_K:  1.419e-06  alpha:  2.182e-01  linmin:  9.096e-06  t[s]:  12071.57
	FillingsUpdate:  mu: +0.108836623  nElectrons: 341.000000  magneticMoment: [ Abs: 41.65981  Tot: -0.00000 ]
	SubspaceRotationAdjust: set factor to 0.419
ElecMinimize: Iter: 143  F: -1895.716008274978776  |grad|_K:  1.225e-06  alpha:  1.166e-01  linmin:  5.734e-05  t[s]:  12146.67
	FillingsUpdate:  mu: +0.108606432  nElectrons: 341.000000  magneticMoment: [ Abs: 41.65025  Tot: -0.00000 ]
	SubspaceRotationAdjust: set factor to 0.438
ElecMinimize: Iter: 144  F: -1895.716060431208234  |grad|_K:  1.250e-06  alpha:  2.089e-01  linmin:  5.472e-04  t[s]:  12224.35
	FillingsUpdate:  mu: +0.108919178  nElectrons: 341.000000  magneticMoment: [ Abs: 41.64681  Tot: +0.00000 ]
	SubspaceRotationAdjust: set factor to 0.376
ElecMinimize: Iter: 145  F: -1895.716100666017155  |grad|_K:  1.430e-06  alpha:  1.598e-01  linmin:  2.894e-05  t[s]:  12302.54
	FillingsUpdate:  mu: +0.109505886  nElectrons: 341.000000  magneticMoment: [ Abs: 41.64598  Tot: +0.00000 ]
	SubspaceRotationAdjust: set factor to 0.502
ElecMinimize: Iter: 146  F: -1895.716147220053927  |grad|_K:  1.155e-06  alpha:  1.335e-01  linmin: -1.744e-04  t[s]:  12382.83
	FillingsUpdate:  mu: +0.109360509  nElectrons: 341.000000  magneticMoment: [ Abs: 41.63333  Tot: -0.00000 ]
	SubspaceRotationAdjust: set factor to 0.508
ElecMinimize: Iter: 147  F: -1895.716203401841540  |grad|_K:  1.225e-06  alpha:  2.323e-01  linmin: -2.259e-05  t[s]:  12460.52
	FillingsUpdate:  mu: +0.109151275  nElectrons: 341.000000  magneticMoment: [ Abs: 41.62208  Tot: +0.00000 ]
	SubspaceRotationAdjust: set factor to 0.375
ElecMinimize: Iter: 148  F: -1895.716243024820642  |grad|_K:  1.533e-06  alpha:  1.413e-01  linmin: -9.494e-05  t[s]:  12540.42
	FillingsUpdate:  mu: +0.109112366  nElectrons: 341.000000  magneticMoment: [ Abs: 41.61433  Tot: -0.00000 ]
	SubspaceRotationAdjust: set factor to 0.415
ElecMinimize: Iter: 149  F: -1895.716297411591995  |grad|_K:  1.390e-06  alpha:  1.304e-01  linmin: -1.882e-05  t[s]:  12618.48
	FillingsUpdate:  mu: +0.109296208  nElectrons: 341.000000  magneticMoment: [ Abs: 41.61276  Tot: +0.00000 ]
	SubspaceRotationAdjust: set factor to 0.434
ElecMinimize: Iter: 150  F: -1895.716348153884383  |grad|_K:  1.410e-06  alpha:  1.478e-01  linmin: -3.091e-04  t[s]:  12696.32
	FillingsUpdate:  mu: +0.109651846  nElectrons: 341.000000  magneticMoment: [ Abs: 41.60712  Tot: -0.00000 ]
	SubspaceRotationAdjust: set factor to 0.452
ElecMinimize: Iter: 151  F: -1895.716402417520612  |grad|_K:  1.347e-06  alpha:  1.471e-01  linmin:  1.724e-04  t[s]:  12774.59
	FillingsUpdate:  mu: +0.109498798  nElectrons: 341.000000  magneticMoment: [ Abs: 41.59496  Tot: +0.00000 ]
	SubspaceRotationAdjust: set factor to 0.496
ElecMinimize: Iter: 152  F: -1895.716457542120907  |grad|_K:  1.384e-06  alpha:  1.790e-01  linmin:  1.661e-05  t[s]:  12849.41
	FillingsUpdate:  mu: +0.109291427  nElectrons: 341.000000  magneticMoment: [ Abs: 41.58452  Tot: +0.00000 ]
	SubspaceRotationAdjust: set factor to 0.468
ElecMinimize: Iter: 153  F: -1895.716508353352992  |grad|_K:  1.480e-06  alpha:  1.530e-01  linmin: -7.755e-05  t[s]:  12925.71
	FillingsUpdate:  mu: +0.109658295  nElectrons: 341.000000  magneticMoment: [ Abs: 41.57931  Tot: -0.00000 ]
	SubspaceRotationAdjust: set factor to 0.429
ElecMinimize: Iter: 154  F: -1895.716559590509178  |grad|_K:  1.474e-06  alpha:  1.302e-01  linmin:  1.569e-04  t[s]:  13001.54
	FillingsUpdate:  mu: +0.110168239  nElectrons: 341.000000  magneticMoment: [ Abs: 41.58104  Tot: +0.00000 ]
	SubspaceRotationAdjust: set factor to 0.475
ElecMinimize: Iter: 155  F: -1895.716613459365817  |grad|_K:  1.391e-06  alpha:  1.449e-01  linmin: -1.283e-04  t[s]:  13081.38
	FillingsUpdate:  mu: +0.109965847  nElectrons: 341.000000  magneticMoment: [ Abs: 41.58024  Tot: +0.00000 ]
	SubspaceRotationAdjust: set factor to 0.474
ElecMinimize: Iter: 156  F: -1895.716663174970563  |grad|_K:  1.385e-06  alpha:  1.438e-01  linmin: -1.857e-04  t[s]:  13156.79
	FillingsUpdate:  mu: +0.109651721  nElectrons: 341.000000  magneticMoment: [ Abs: 41.57399  Tot: +0.00000 ]
	SubspaceRotationAdjust: set factor to 0.43
ElecMinimize: Iter: 157  F: -1895.716710899663212  |grad|_K:  1.381e-06  alpha:  1.376e-01  linmin:  2.492e-04  t[s]:  13236.12
	FillingsUpdate:  mu: +0.109529828  nElectrons: 341.000000  magneticMoment: [ Abs: 41.57527  Tot: +0.00000 ]
	SubspaceRotationAdjust: set factor to 0.447
ElecMinimize: Iter: 158  F: -1895.716758508624935  |grad|_K:  1.342e-06  alpha:  1.486e-01  linmin:  7.509e-06  t[s]:  13315.47
	FillingsUpdate:  mu: +0.109797910  nElectrons: 341.000000  magneticMoment: [ Abs: 41.58409  Tot: +0.00000 ]
	SubspaceRotationAdjust: set factor to 0.486
ElecMinimize: Iter: 159  F: -1895.716800685303951  |grad|_K:  1.275e-06  alpha:  1.350e-01  linmin: -1.544e-04  t[s]:  13392.33
	FillingsUpdate:  mu: +0.110087953  nElectrons: 341.000000  magneticMoment: [ Abs: 41.59042  Tot: -0.00000 ]
	SubspaceRotationAdjust: set factor to 0.497
ElecMinimize: Iter: 160  F: -1895.716845381053190  |grad|_K:  1.212e-06  alpha:  1.533e-01  linmin:  6.975e-05  t[s]:  13474.90
	FillingsUpdate:  mu: +0.109705901  nElectrons: 341.000000  magneticMoment: [ Abs: 41.59158  Tot: +0.00000 ]
	SubspaceRotationAdjust: set factor to 0.58
ElecMinimize: Iter: 161  F: -1895.716885885508873  |grad|_K:  1.139e-06  alpha:  1.597e-01  linmin:  4.958e-05  t[s]:  13555.31
	FillingsUpdate:  mu: +0.109416013  nElectrons: 341.000000  magneticMoment: [ Abs: 41.59601  Tot: +0.00000 ]
	SubspaceRotationAdjust: set factor to 0.502
ElecMinimize: Iter: 162  F: -1895.716923627973529  |grad|_K:  1.256e-06  alpha:  1.679e-01  linmin:  7.492e-06  t[s]:  13633.01
	FillingsUpdate:  mu: +0.109752806  nElectrons: 341.000000  magneticMoment: [ Abs: 41.60546  Tot: -0.00000 ]
	SubspaceRotationAdjust: set factor to 0.521
ElecMinimize: Iter: 163  F: -1895.716955612761922  |grad|_K:  1.160e-06  alpha:  1.155e-01  linmin: -4.461e-06  t[s]:  13710.96
	FillingsUpdate:  mu: +0.110135691  nElectrons: 341.000000  magneticMoment: [ Abs: 41.61993  Tot: -0.00000 ]
	SubspaceRotationAdjust: set factor to 0.582
ElecMinimize: Iter: 164  F: -1895.716987924093019  |grad|_K:  1.027e-06  alpha:  1.365e-01  linmin: -1.261e-04  t[s]:  13788.10
	FillingsUpdate:  mu: +0.110015915  nElectrons: 341.000000  magneticMoment: [ Abs: 41.62874  Tot: +0.00000 ]
	SubspaceRotationAdjust: set factor to 0.534
ElecMinimize: Iter: 165  F: -1895.717017218364845  |grad|_K:  9.968e-07  alpha:  1.553e-01  linmin:  1.184e-05  t[s]:  13867.01
	FillingsUpdate:  mu: +0.109913376  nElectrons: 341.000000  magneticMoment: [ Abs: 41.63383  Tot: +0.00000 ]
	SubspaceRotationAdjust: set factor to 0.478
ElecMinimize: Iter: 166  F: -1895.717037908348402  |grad|_K:  1.035e-06  alpha:  1.189e-01  linmin:  1.004e-05  t[s]:  13944.54
	FillingsUpdate:  mu: +0.109923872  nElectrons: 341.000000  magneticMoment: [ Abs: 41.64551  Tot: +0.00000 ]
	SubspaceRotationAdjust: set factor to 0.614
ElecMinimize: Iter: 167  F: -1895.717063059919383  |grad|_K:  9.016e-07  alpha:  1.341e-01  linmin: -5.218e-05  t[s]:  14021.95
	FillingsUpdate:  mu: +0.110025806  nElectrons: 341.000000  magneticMoment: [ Abs: 41.65715  Tot: +0.00000 ]
	SubspaceRotationAdjust: set factor to 0.541
ElecMinimize: Iter: 168  F: -1895.717085952007437  |grad|_K:  9.496e-07  alpha:  1.589e-01  linmin: -9.247e-05  t[s]:  14099.94
	FillingsUpdate:  mu: +0.109979903  nElectrons: 341.000000  magneticMoment: [ Abs: 41.66090  Tot: +0.00000 ]
	SubspaceRotationAdjust: set factor to 0.476
ElecMinimize: Iter: 169  F: -1895.717103223467575  |grad|_K:  9.287e-07  alpha:  1.077e-01  linmin: -2.296e-06  t[s]:  14177.83
	FillingsUpdate:  mu: +0.109646827  nElectrons: 341.000000  magneticMoment: [ Abs: 41.66420  Tot: -0.00000 ]
	SubspaceRotationAdjust: set factor to 0.574
ElecMinimize: Iter: 170  F: -1895.717123644881667  |grad|_K:  8.201e-07  alpha:  1.361e-01  linmin:  1.069e-04  t[s]:  14254.03
	FillingsUpdate:  mu: +0.109491718  nElectrons: 341.000000  magneticMoment: [ Abs: 41.66912  Tot: +0.00000 ]
	SubspaceRotationAdjust: set factor to 0.462
ElecMinimize: Iter: 171  F: -1895.717142203940739  |grad|_K:  9.592e-07  alpha:  1.609e-01  linmin:  2.102e-05  t[s]:  14331.13
	FillingsUpdate:  mu: +0.109643120  nElectrons: 341.000000  magneticMoment: [ Abs: 41.67384  Tot: -0.00000 ]
	SubspaceRotationAdjust: set factor to 0.522
ElecMinimize: Iter: 172  F: -1895.717158185626658  |grad|_K:  8.265e-07  alpha:  1.001e-01  linmin:  4.810e-07  t[s]:  14409.08
	FillingsUpdate:  mu: +0.109825808  nElectrons: 341.000000  magneticMoment: [ Abs: 41.68039  Tot: +0.00000 ]
	SubspaceRotationAdjust: set factor to 0.549
ElecMinimize: Iter: 173  F: -1895.717177819275093  |grad|_K:  8.186e-07  alpha:  1.626e-01  linmin: -1.348e-04  t[s]:  14485.17
	FillingsUpdate:  mu: +0.109671497  nElectrons: 341.000000  magneticMoment: [ Abs: 41.68261  Tot: +0.00000 ]
	SubspaceRotationAdjust: set factor to 0.445
ElecMinimize: Iter: 174  F: -1895.717193033767899  |grad|_K:  8.982e-07  alpha:  1.268e-01  linmin: -1.936e-06  t[s]:  14561.63
	FillingsUpdate:  mu: +0.109454244  nElectrons: 341.000000  magneticMoment: [ Abs: 41.68043  Tot: +0.00000 ]
	SubspaceRotationAdjust: set factor to 0.551
ElecMinimize: Iter: 175  F: -1895.717209282740214  |grad|_K:  7.432e-07  alpha:  1.147e-01  linmin:  7.208e-05  t[s]:  14638.95
	FillingsUpdate:  mu: +0.109356764  nElectrons: 341.000000  magneticMoment: [ Abs: 41.67884  Tot: +0.00000 ]
	SubspaceRotationAdjust: set factor to 0.443
ElecMinimize: Iter: 176  F: -1895.717224659294061  |grad|_K:  8.824e-07  alpha:  1.618e-01  linmin:  5.017e-05  t[s]:  14716.85
	FillingsUpdate:  mu: +0.109405140  nElectrons: 341.000000  magneticMoment: [ Abs: 41.67932  Tot: +0.00000 ]
	SubspaceRotationAdjust: set factor to 0.519
ElecMinimize: Iter: 177  F: -1895.717237276003289  |grad|_K:  7.347e-07  alpha:  9.488e-02  linmin:  1.424e-05  t[s]:  14793.31
	FillingsUpdate:  mu: +0.109532001  nElectrons: 341.000000  magneticMoment: [ Abs: 41.67834  Tot: -0.00000 ]
	SubspaceRotationAdjust: set factor to 0.514
ElecMinimize: Iter: 178  F: -1895.717252902727751  |grad|_K:  7.497e-07  alpha:  1.646e-01  linmin: -8.579e-05  t[s]:  14870.67
	FillingsUpdate:  mu: +0.109522965  nElectrons: 341.000000  magneticMoment: [ Abs: 41.67479  Tot: -0.00000 ]
	SubspaceRotationAdjust: set factor to 0.442
ElecMinimize: Iter: 179  F: -1895.717263742213163  |grad|_K:  7.827e-07  alpha:  1.066e-01  linmin: -9.936e-06  t[s]:  14948.57
	FillingsUpdate:  mu: +0.109344821  nElectrons: 341.000000  magneticMoment: [ Abs: 41.67023  Tot: -0.00000 ]
	SubspaceRotationAdjust: set factor to 0.493
ElecMinimize: Iter: 180  F: -1895.717277623688233  |grad|_K:  7.049e-07  alpha:  1.295e-01  linmin:  2.162e-05  t[s]:  15030.67
	FillingsUpdate:  mu: +0.109264140  nElectrons: 341.000000  magneticMoment: [ Abs: 41.66880  Tot: -0.00000 ]
	SubspaceRotationAdjust: set factor to 0.436
ElecMinimize: Iter: 181  F: -1895.717288066863148  |grad|_K:  7.573e-07  alpha:  1.210e-01  linmin: -5.887e-05  t[s]:  15112.15
	FillingsUpdate:  mu: +0.109364079  nElectrons: 341.000000  magneticMoment: [ Abs: 41.66693  Tot: +0.00000 ]
	SubspaceRotationAdjust: set factor to 0.561
ElecMinimize: Iter: 182  F: -1895.717300630952650  |grad|_K:  6.242e-07  alpha:  1.238e-01  linmin:  2.056e-05  t[s]:  15193.74
	FillingsUpdate:  mu: +0.109421427  nElectrons: 341.000000  magneticMoment: [ Abs: 41.66455  Tot: +0.00000 ]
	SubspaceRotationAdjust: set factor to 0.436
ElecMinimize: Iter: 183  F: -1895.717311639951731  |grad|_K:  7.500e-07  alpha:  1.630e-01  linmin:  8.252e-05  t[s]:  15277.51
	FillingsUpdate:  mu: +0.109335968  nElectrons: 341.000000  magneticMoment: [ Abs: 41.66282  Tot: -0.00000 ]
	SubspaceRotationAdjust: set factor to 0.52
ElecMinimize: Iter: 184  F: -1895.717320469018432  |grad|_K:  6.161e-07  alpha:  9.261e-02  linmin:  2.548e-05  t[s]:  15358.28
	FillingsUpdate:  mu: +0.109199156  nElectrons: 341.000000  magneticMoment: [ Abs: 41.65959  Tot: -0.00000 ]
	SubspaceRotationAdjust: set factor to 0.476
ElecMinimize: Iter: 185  F: -1895.717332183113058  |grad|_K:  6.818e-07  alpha:  1.773e-01  linmin:  4.771e-07  t[s]:  15440.88
	FillingsUpdate:  mu: +0.109265511  nElectrons: 341.000000  magneticMoment: [ Abs: 41.65820  Tot: -0.00000 ]
	SubspaceRotationAdjust: set factor to 0.435
ElecMinimize: Iter: 186  F: -1895.717340459849993  |grad|_K:  6.785e-07  alpha:  9.998e-02  linmin: -4.088e-05  t[s]:  15517.72
	FillingsUpdate:  mu: +0.109406141  nElectrons: 341.000000  magneticMoment: [ Abs: 41.65955  Tot: -0.00000 ]
	SubspaceRotationAdjust: set factor to 0.453
ElecMinimize: Iter: 187  F: -1895.717351680005095  |grad|_K:  6.370e-07  alpha:  1.377e-01  linmin: -8.645e-05  t[s]:  15596.08
	FillingsUpdate:  mu: +0.109337509  nElectrons: 341.000000  magneticMoment: [ Abs: 41.66030  Tot: +0.00000 ]
	SubspaceRotationAdjust: set factor to 0.431
ElecMinimize: Iter: 188  F: -1895.717360350007311  |grad|_K:  6.657e-07  alpha:  1.208e-01  linmin: -5.184e-05  t[s]:  15674.84
	FillingsUpdate:  mu: +0.109244115  nElectrons: 341.000000  magneticMoment: [ Abs: 41.65791  Tot: -0.00000 ]
	SubspaceRotationAdjust: set factor to 0.531
ElecMinimize: Iter: 189  F: -1895.717371024978775  |grad|_K:  5.920e-07  alpha:  1.370e-01  linmin:  1.151e-04  t[s]:  15750.49
	FillingsUpdate:  mu: +0.109230098  nElectrons: 341.000000  magneticMoment: [ Abs: 41.65766  Tot: -0.00000 ]
[...]
	FillingsUpdate:  mu: +0.119629956  nElectrons: 341.000000  magneticMoment: [ Abs: 40.08994  Tot: +0.00000 ]
	SubspaceRotationAdjust: set factor to 0.145
ElecMinimize: Iter:  68  F: -1895.828965709819613  |grad|_K:  1.835e-07  alpha:  3.438e-01  linmin: -2.933e-06  t[s]: 369433.56
	FillingsUpdate:  mu: +0.119622022  nElectrons: 341.000000  magneticMoment: [ Abs: 40.08926  Tot: +0.00000 ]
	SubspaceRotationAdjust: set factor to 0.168
ElecMinimize: Iter:  69  F: -1895.828968226640200  |grad|_K:  1.800e-07  alpha:  4.271e-01  linmin:  1.209e-07  t[s]: 369504.04
	FillingsUpdate:  mu: +0.119658919  nElectrons: 341.000000  magneticMoment: [ Abs: 40.08781  Tot: +0.00000 ]
	SubspaceRotationAdjust: set factor to 0.172
ElecMinimize: Iter:  70  F: -1895.828970520200528  |grad|_K:  1.964e-07  alpha:  4.049e-01  linmin:  3.296e-06  t[s]: 369573.07
	FillingsUpdate:  mu: +0.119597908  nElectrons: 341.000000  magneticMoment: [ Abs: 40.08874  Tot: -0.00000 ]
	SubspaceRotationAdjust: set factor to 0.143
ElecMinimize: Iter:  71  F: -1895.828972414464488  |grad|_K:  2.020e-07  alpha:  2.811e-01  linmin: -1.324e-06  t[s]: 369654.64
	FillingsUpdate:  mu: +0.119638052  nElectrons: 341.000000  magneticMoment: [ Abs: 40.08720  Tot: +0.00000 ]
	SubspaceRotationAdjust: set factor to 0.141
ElecMinimize: Iter:  72  F: -1895.828974791938208  |grad|_K:  1.858e-07  alpha:  3.331e-01  linmin:  7.311e-06  t[s]: 369736.45
	FillingsUpdate:  mu: +0.119625349  nElectrons: 341.000000  magneticMoment: [ Abs: 40.08668  Tot: +0.00000 ]
	SubspaceRotationAdjust: set factor to 0.163
ElecMinimize: Iter:  73  F: -1895.828977358660950  |grad|_K:  1.831e-07  alpha:  4.257e-01  linmin: -7.890e-07  t[s]: 369818.06
	FillingsUpdate:  mu: +0.119584126  nElectrons: 341.000000  magneticMoment: [ Abs: 40.08695  Tot: -0.00000 ]
	SubspaceRotationAdjust: set factor to 0.17
ElecMinimize: Iter:  74  F: -1895.828979701491562  |grad|_K:  1.930e-07  alpha:  3.996e-01  linmin: -6.210e-06  t[s]: 369898.07
	FillingsUpdate:  mu: +0.119644749  nElectrons: 341.000000  magneticMoment: [ Abs: 40.08527  Tot: +0.00000 ]
	SubspaceRotationAdjust: set factor to 0.146
ElecMinimize: Iter:  75  F: -1895.828981664525827  |grad|_K:  2.040e-07  alpha:  3.009e-01  linmin:  5.267e-06  t[s]: 369971.63
	FillingsUpdate:  mu: +0.119594114  nElectrons: 341.000000  magneticMoment: [ Abs: 40.08606  Tot: +0.00000 ]
	SubspaceRotationAdjust: set factor to 0.139
ElecMinimize: Iter:  76  F: -1895.828983942676359  |grad|_K:  1.836e-07  alpha:  3.131e-01  linmin: -1.344e-05  t[s]: 370046.39
	FillingsUpdate:  mu: +0.119602517  nElectrons: 341.000000  magneticMoment: [ Abs: 40.08566  Tot: -0.00000 ]
	SubspaceRotationAdjust: set factor to 0.161
ElecMinimize: Iter:  77  F: -1895.828986377656065  |grad|_K:  1.767e-07  alpha:  4.127e-01  linmin:  4.300e-06  t[s]: 370122.81
	FillingsUpdate:  mu: +0.119632874  nElectrons: 341.000000  magneticMoment: [ Abs: 40.08494  Tot: +0.00000 ]
	SubspaceRotationAdjust: set factor to 0.172
ElecMinimize: Iter:  78  F: -1895.828988528115133  |grad|_K:  1.773e-07  alpha:  3.938e-01  linmin:  7.494e-06  t[s]: 370198.00
	FillingsUpdate:  mu: +0.119583747  nElectrons: 341.000000  magneticMoment: [ Abs: 40.08622  Tot: +0.00000 ]
	SubspaceRotationAdjust: set factor to 0.147
ElecMinimize: Iter:  79  F: -1895.828990210015945  |grad|_K:  1.866e-07  alpha:  3.066e-01  linmin: -7.007e-06  t[s]: 370274.75
	FillingsUpdate:  mu: +0.119630161  nElectrons: 341.000000  magneticMoment: [ Abs: 40.08532  Tot: +0.00000 ]
	SubspaceRotationAdjust: set factor to 0.13
ElecMinimize: Iter:  80  F: -1895.828991926148774  |grad|_K:  1.583e-07  alpha:  2.815e-01  linmin:  1.033e-05  t[s]: 370353.60
	FillingsUpdate:  mu: +0.119618345  nElectrons: 341.000000  magneticMoment: [ Abs: 40.08574  Tot: +0.00000 ]
	SubspaceRotationAdjust: set factor to 0.151
ElecMinimize: Iter:  81  F: -1895.828993687974389  |grad|_K:  1.441e-07  alpha:  4.027e-01  linmin: -5.807e-06  t[s]: 370426.85
	FillingsUpdate:  mu: +0.119596626  nElectrons: 341.000000  magneticMoment: [ Abs: 40.08640  Tot: -0.00000 ]
	SubspaceRotationAdjust: set factor to 0.161
ElecMinimize: Iter:  82  F: -1895.828995064378205  |grad|_K:  1.372e-07  alpha:  3.789e-01  linmin: -5.682e-06  t[s]: 370505.79
	FillingsUpdate:  mu: +0.119638513  nElectrons: 341.000000  magneticMoment: [ Abs: 40.08574  Tot: +0.00000 ]
	SubspaceRotationAdjust: set factor to 0.143
ElecMinimize: Iter:  83  F: -1895.828996116629696  |grad|_K:  1.380e-07  alpha:  3.191e-01  linmin:  8.242e-06  t[s]: 370583.96
	FillingsUpdate:  mu: +0.119603855  nElectrons: 341.000000  magneticMoment: [ Abs: 40.08679  Tot: -0.00000 ]
	SubspaceRotationAdjust: set factor to 0.131
ElecMinimize: Iter:  84  F: -1895.828997091542760  |grad|_K:  1.209e-07  alpha:  2.931e-01  linmin: -9.334e-06  t[s]: 370660.39
	FillingsUpdate:  mu: +0.119615219  nElectrons: 341.000000  magneticMoment: [ Abs: 40.08684  Tot: -0.00000 ]
	SubspaceRotationAdjust: set factor to 0.152
ElecMinimize: Iter:  85  F: -1895.828998092706343  |grad|_K:  1.110e-07  alpha:  3.911e-01  linmin:  2.622e-06  t[s]: 370736.79
	FillingsUpdate:  mu: +0.119628308  nElectrons: 341.000000  magneticMoment: [ Abs: 40.08680  Tot: +0.00000 ]
	SubspaceRotationAdjust: set factor to 0.171
ElecMinimize: Iter:  86  F: -1895.828998943291026  |grad|_K:  1.106e-07  alpha:  3.946e-01  linmin:  5.605e-06  t[s]: 370811.03
	FillingsUpdate:  mu: +0.119598128  nElectrons: 341.000000  magneticMoment: [ Abs: 40.08775  Tot: -0.00000 ]
	SubspaceRotationAdjust: set factor to 0.158
ElecMinimize: Iter:  87  F: -1895.828999666431400  |grad|_K:  1.182e-07  alpha:  3.383e-01  linmin: -9.137e-06  t[s]: 370885.94
	FillingsUpdate:  mu: +0.119631483  nElectrons: 341.000000  magneticMoment: [ Abs: 40.08726  Tot: -0.00000 ]
	SubspaceRotationAdjust: set factor to 0.139
ElecMinimize: Iter:  88  F: -1895.829000374157431  |grad|_K:  1.128e-07  alpha:  2.893e-01  linmin:  8.983e-06  t[s]: 370962.19
	FillingsUpdate:  mu: +0.119613438  nElectrons: 341.000000  magneticMoment: [ Abs: 40.08786  Tot: -0.00000 ]
	SubspaceRotationAdjust: set factor to 0.155
ElecMinimize: Iter:  89  F: -1895.829001243202129  |grad|_K:  1.056e-07  alpha:  3.905e-01  linmin: -1.226e-05  t[s]: 371039.30
	FillingsUpdate:  mu: +0.119601061  nElectrons: 341.000000  magneticMoment: [ Abs: 40.08825  Tot: +0.00000 ]
	SubspaceRotationAdjust: set factor to 0.174
ElecMinimize: Iter:  90  F: -1895.829002091174516  |grad|_K:  1.069e-07  alpha:  4.341e-01  linmin: -3.389e-06  t[s]: 371117.56
ElecMinimize: Converged (|Delta F|<1.000000e-06 for 5 iters).
Setting wave functions to eigenvectors of Hamiltonian

# Ionic positions in lattice coordinates:
ion Ni  -0.002405158529118   0.246506476832251   0.174085694501352 1
ion Ni   0.004364878653136   0.766956951458075   0.192536246487565 1
ion Ni   0.250000000000000   0.250000000000000  -0.150000000000000 0
ion Ni  -0.250000000000000   0.250000000000000  -0.150000000000000 0
ion Co   0.510249003385348   0.002249153737456   0.177230314655510 1
ion Co   0.250000000000000   0.750000000000000  -0.150000000000000 0
ion Cr   0.496716869070931   0.508036138916617   0.177376623678315 1
ion Cr  -0.250000000000000   0.750000000000000  -0.150000000000000 0
ion V   0.231142059075327   0.252858056896869   0.069234206829724 1
ion V   0.239347473167594   0.754276309635624   0.064517406441623 1
ion V  -0.254582646327332   0.255594433293894   0.064443263468140 1
ion V  -0.259683341614312   0.753500411723242   0.062530488048310 1
ion V   0.000000000000000   0.000000000000000  -0.050000000000000 0
ion V   0.500000000000000   0.000000000000000  -0.050000000000000 0
ion V   0.000000000000000   0.500000000000000  -0.050000000000000 0
ion V   0.500000000000000   0.500000000000000  -0.050000000000000 0
ion O   0.293402153345048   0.250797403587834   0.160916734990562 1
ion O   0.287607470050519   0.758779937283967   0.155382709570065 1
ion O  -0.295559197956859   0.260241482289520   0.160382314602449 1
ion O  -0.286095382270914   0.753016721072347   0.162802994969632 1
ion O  -0.001160541226597   0.000573438126349   0.049991144974844 1
ion O   0.485459846326267   0.009252501030165   0.050640699778403 1
ion O  -0.002333482269543   0.504048334260697   0.049718898153088 1
ion O   0.480522641762133   0.501523843899617   0.050177265015192 1
ion O   0.250000000000000   0.250000000000000  -0.050000000000000 0
ion O   0.250000000000000   0.750000000000000  -0.050000000000000 0
ion O  -0.250000000000000   0.250000000000000  -0.050000000000000 0
ion O  -0.250000000000000   0.750000000000000  -0.050000000000000 0
ion O   0.000000000000000   0.000000000000000  -0.150000000000000 0
ion O   0.500000000000000   0.000000000000000  -0.150000000000000 0
ion O   0.000000000000000   0.500000000000000  -0.150000000000000 0
ion O   0.500000000000000   0.500000000000000  -0.150000000000000 0
ion O  -0.026157271359089   0.042362473384175   0.243750204870954 1
ion H   0.090203098990283   0.067018138441346   0.273470008006976 1

# Forces in Lattice coordinates:
force Ni  -0.000488371857352   0.002493864639962  -0.052348877307493 1
force Ni   0.011967920664276  -0.003755248058188  -0.069466378702977 1
force Ni  -0.006721799882319   0.000184841832419  -0.007570456545090 0
force Ni   0.010828754514953   0.000393263705914  -0.017587249157776 0
force Co  -0.012958057791095   0.003362572539853  -0.035292348104142 1
force Co   0.021434600755698  -0.000596543428175  -0.672107209184155 0
force Cr   0.021366324582550  -0.000916417346956  -0.007903795562419 1
force Cr   0.035675163536793  -0.000200749921558  -1.665829197591495 0
force V   0.003557377491902  -0.007918716213412   0.000901160394218 1
force V   0.001010600106214   0.005201901734840   0.001971852211462 1
force V   0.007803887411549  -0.007776388381306   0.012853431592346 1
force V  -0.007376033229926   0.001587075770843   0.009839366504775 1
force V   0.023617672322264   0.058337052040824  -0.102987811131476 0
force V  -0.045188288085133   0.093978278223991   0.174068748310315 0
force V   0.024700316617340  -0.046447235112024  -0.109140408519110 0
force V  -0.055695340378271  -0.076680512276820   0.128508379751858 0
force O   0.003362657030948   0.005741793731765   0.005034113635612 1
force O  -0.027208909830879  -0.002709069138382   0.051944348243958 1
force O  -0.010639316530303  -0.011017120741681   0.043872147888335 1
force O   0.000352077233455   0.001919944470828   0.043247796355411 1
force O  -0.006709786016003   0.001876429031440  -0.026148653856309 1
force O   0.004008129033367  -0.007454200886206  -0.035456816938459 1
force O  -0.013121976676318   0.000373276013622   0.025741239595192 1
force O   0.008082807644717  -0.005875171637195   0.017050659920645 1
force O   0.013505564523366   0.003601596037974   0.205770837323422 0
force O   0.000639871523411   0.004479422154714   0.441367332696076 0
force O  -0.001294813892398   0.003689130768145   0.274057534744480 0
force O  -0.027995256806754   0.003118297887626   1.004699049423123 0
force O   0.001966276104095  -0.014720677447261   0.070900743064147 0
force O  -0.005592534048072  -0.045842674243512   0.105150879113939 0
force O   0.001185764731188   0.014161167491970   0.067470552631896 0
force O  -0.003477252859615   0.042042889098983   0.102327490630772 0
force O  -0.005987667513590   0.000761932081947   0.050995222253778 1
force H   0.022308863624842   0.006510616904840   0.039604188008768 1

# Energy components:
   Eewald =     4425.6911915796108588
       EH =     6133.5887186390145871
     Eloc =   -12630.3984651582268270
      Enl =     -464.4976642243045717
   Epulay =       -0.0004831230919240
      Exc =     -237.0497758450303536
       KE =      875.5444350842109316
        U =        1.2944885374143649
-------------------------------------
     Etot =    -1895.8275545104027060
       TS =        0.0014475807718920
-------------------------------------
        F =    -1895.8290020911745160

IonicMinimize: Iter:  79  F: -1895.829002091174516  |grad|_K:  8.274e-04  alpha:  1.000e+00  linmin: -1.839e-02  t[s]: 371129.10

#--- Lowdin population analysis ---
# oxidation-state Ni +3.222 +3.663 +3.773 +3.737
# magnetic-moments Ni +0.215 -0.881 -1.011 +0.981
# oxidation-state Co +1.205 +1.211
# magnetic-moments Co -2.654 -2.649
# oxidation-state Cr +2.897 +2.924
# magnetic-moments Cr +3.918 +3.888
# oxidation-state V +1.168 +1.172 +1.083 +1.078 +1.073 +1.089 +1.074 +1.089
# magnetic-moments V +2.465 +2.493 -2.751 -2.857 -2.658 +2.638 -2.654 +2.641
# oxidation-state O -0.746 -0.793 -0.774 -0.860 -0.906 -0.939 -0.906 -0.932 -0.889 -0.936 -0.890 -0.909 -0.856 -0.859 -0.856 -0.859 -0.709
# magnetic-moments O -0.191 -0.282 -0.053 -0.200 +0.002 -0.016 +0.018 +0.001 -0.085 -0.055 +0.070 +0.013 -0.049 -0.094 -0.048 -0.093 -0.028
# oxidation-state H +0.380
# magnetic-moments H -0.000


-------- Electronic minimization -----------
	FillingsUpdate:  mu: +0.178445473  nElectrons: 341.000000  magneticMoment: [ Abs: 40.07435  Tot: -0.00000 ]
ElecMinimize: Iter:   0  F: -1891.659317815765689  |grad|_K:  3.301e-04  alpha:  1.000e+00
	FillingsUpdate:  mu: +0.162534164  nElectrons: 341.000000  magneticMoment: [ Abs: 40.10668  Tot: +0.00000 ]
	SubspaceRotationAdjust: set factor to 0.161
ElecMinimize: Iter:   1  F: -1895.359850338359593  |grad|_K:  9.976e-05  alpha:  2.391e-01  linmin:  6.394e-02  t[s]: 371230.09
	FillingsUpdate:  mu: +0.164633928  nElectrons: 341.000000  magneticMoment: [ Abs: 40.29539  Tot: -0.00000 ]
	SubspaceRotationAdjust: set factor to 0.125
ElecMinimize: Iter:   2  F: -1895.638971093019563  |grad|_K:  4.167e-05  alpha:  2.048e-01  linmin: -1.010e-02  t[s]: 371308.88
	FillingsUpdate:  mu: +0.123873599  nElectrons: 341.000000  magneticMoment: [ Abs: 39.99868  Tot: +0.00000 ]
	SubspaceRotationAdjust: set factor to 0.0624
ElecMinimize: Iter:   3  F: -1895.701595673069733  |grad|_K:  2.297e-05  alpha:  1.773e-01  linmin:  1.409e-02  t[s]: 371384.90
	FillingsUpdate:  mu: +0.128032707  nElectrons: 341.000000  magneticMoment: [ Abs: 40.07500  Tot: +0.00000 ]
	SubspaceRotationAdjust: set factor to 0.0939
ElecMinimize: Iter:   4  F: -1895.728773454135535  |grad|_K:  1.772e-05  alpha:  3.842e-01  linmin: -3.489e-05  t[s]: 371462.16
	FillingsUpdate:  mu: +0.125117539  nElectrons: 341.000000  magneticMoment: [ Abs: 40.14218  Tot: -0.00000 ]
	SubspaceRotationAdjust: set factor to 0.104
ElecMinimize: Iter:   5  F: -1895.747904697060449  |grad|_K:  1.314e-05  alpha:  3.483e-01  linmin: -1.800e-04  t[s]: 371537.45
	FillingsUpdate:  mu: +0.122962428  nElectrons: 341.000000  magneticMoment: [ Abs: 40.03221  Tot: +0.00000 ]
	SubspaceRotationAdjust: set factor to 0.0998
ElecMinimize: Iter:   6  F: -1895.762067796782958  |grad|_K:  1.594e-05  alpha:  4.721e-01  linmin:  3.867e-04  t[s]: 371615.60
	FillingsUpdate:  mu: +0.117619472  nElectrons: 341.000000  magneticMoment: [ Abs: 40.10399  Tot: +0.00000 ]
	SubspaceRotationAdjust: set factor to 0.11
ElecMinimize: Iter:   7  F: -1895.783144892467362  |grad|_K:  1.493e-05  alpha:  4.917e-01  linmin: -1.365e-04  t[s]: 371696.30
	FillingsUpdate:  mu: +0.123291191  nElectrons: 341.000000  magneticMoment: [ Abs: 40.16072  Tot: +0.00000 ]
	SubspaceRotationAdjust: set factor to 0.122
ElecMinimize: Iter:   8  F: -1895.802489384195042  |grad|_K:  1.332e-05  alpha:  4.871e-01  linmin: -2.081e-05  t[s]: 371772.87
	FillingsUpdate:  mu: +0.126239929  nElectrons: 341.000000  magneticMoment: [ Abs: 40.08749  Tot: +0.00000 ]
	SubspaceRotationAdjust: set factor to 0.104
ElecMinimize: Iter:   9  F: -1895.813874980093942  |grad|_K:  1.222e-05  alpha:  3.595e-01  linmin:  5.963e-05  t[s]: 371847.14
	FillingsUpdate:  mu: +0.121779207  nElectrons: 341.000000  magneticMoment: [ Abs: 40.14731  Tot: -0.00000 ]
	SubspaceRotationAdjust: set factor to 0.082
ElecMinimize: Iter:  10  F: -1895.821018869216459  |grad|_K:  7.911e-06  alpha:  2.797e-01  linmin: -9.682e-05  t[s]: 371924.31
	FillingsUpdate:  mu: +0.119086873  nElectrons: 341.000000  magneticMoment: [ Abs: 40.13168  Tot: -0.00000 ]
	SubspaceRotationAdjust: set factor to 0.0917
ElecMinimize: Iter:  11  F: -1895.824766133579033  |grad|_K:  5.604e-06  alpha:  3.388e-01  linmin:  7.038e-06  t[s]: 371999.27
	FillingsUpdate:  mu: +0.120919965  nElectrons: 341.000000  magneticMoment: [ Abs: 40.11509  Tot: +0.00000 ]
	SubspaceRotationAdjust: set factor to 0.0899
ElecMinimize: Iter:  12  F: -1895.826680490377612  |grad|_K:  4.032e-06  alpha:  3.489e-01  linmin:  3.638e-05  t[s]: 372074.70
	FillingsUpdate:  mu: +0.119427982  nElectrons: 341.000000  magneticMoment: [ Abs: 40.13403  Tot: -0.00000 ]
	SubspaceRotationAdjust: set factor to 0.0843
ElecMinimize: Iter:  13  F: -1895.827565058159507  |grad|_K:  2.656e-06  alpha:  3.121e-01  linmin: -2.664e-05  t[s]: 372150.87
	FillingsUpdate:  mu: +0.119158512  nElectrons: 341.000000  magneticMoment: [ Abs: 40.12969  Tot: -0.00000 ]
	SubspaceRotationAdjust: set factor to 0.095
ElecMinimize: Iter:  14  F: -1895.828031640559630  |grad|_K:  2.074e-06  alpha:  3.775e-01  linmin:  8.093e-06  t[s]: 372230.43
	FillingsUpdate:  mu: +0.119471472  nElectrons: 341.000000  magneticMoment: [ Abs: 40.12567  Tot: +0.00000 ]
	SubspaceRotationAdjust: set factor to 0.109
ElecMinimize: Iter:  15  F: -1895.828305659483703  |grad|_K:  1.577e-06  alpha:  3.645e-01  linmin:  5.862e-06  t[s]: 372307.84
	FillingsUpdate:  mu: +0.119050636  nElectrons: 341.000000  magneticMoment: [ Abs: 40.13166  Tot: -0.00000 ]
	SubspaceRotationAdjust: set factor to 0.117
ElecMinimize: Iter:  16  F: -1895.828475625928377  |grad|_K:  1.465e-06  alpha:  3.909e-01  linmin: -1.519e-05  t[s]: 372384.12
	FillingsUpdate:  mu: +0.119116520  nElectrons: 341.000000  magneticMoment: [ Abs: 40.12624  Tot: -0.00000 ]
	SubspaceRotationAdjust: set factor to 0.128
ElecMinimize: Iter:  17  F: -1895.828633127556031  |grad|_K:  1.328e-06  alpha:  4.190e-01  linmin:  1.115e-05  t[s]: 372460.79
	FillingsUpdate:  mu: +0.118891253  nElectrons: 341.000000  magneticMoment: [ Abs: 40.13090  Tot: +0.00000 ]
	SubspaceRotationAdjust: set factor to 0.144
ElecMinimize: Iter:  18  F: -1895.828771958010520  |grad|_K:  1.271e-06  alpha:  4.505e-01  linmin: -4.974e-06  t[s]: 372541.17
	FillingsUpdate:  mu: +0.119001202  nElectrons: 341.000000  magneticMoment: [ Abs: 40.13377  Tot: -0.00000 ]
	SubspaceRotationAdjust: set factor to 0.16
ElecMinimize: Iter:  19  F: -1895.828894840855810  |grad|_K:  1.193e-06  alpha:  4.348e-01  linmin:  2.233e-06  t[s]: 372619.29
	FillingsUpdate:  mu: +0.119085645  nElectrons: 341.000000  magneticMoment: [ Abs: 40.13560  Tot: -0.00000 ]
	SubspaceRotationAdjust: set factor to 0.174
ElecMinimize: Iter:  20  F: -1895.828994841077929  |grad|_K:  9.987e-07  alpha:  4.018e-01  linmin:  3.593e-06  t[s]: 372697.48
	FillingsUpdate:  mu: +0.118818795  nElectrons: 341.000000  magneticMoment: [ Abs: 40.14208  Tot: -0.00000 ]
	SubspaceRotationAdjust: set factor to 0.169
ElecMinimize: Iter:  21  F: -1895.829062065571634  |grad|_K:  9.371e-07  alpha:  3.857e-01  linmin: -1.644e-05  t[s]: 372773.66
	FillingsUpdate:  mu: +0.119165902  nElectrons: 341.000000  magneticMoment: [ Abs: 40.13805  Tot: -0.00000 ]
	SubspaceRotationAdjust: set factor to 0.129
ElecMinimize: Iter:  22  F: -1895.829100173512643  |grad|_K:  8.405e-07  alpha:  2.466e-01  linmin: -3.328e-06  t[s]: 372850.69
	FillingsUpdate:  mu: +0.118822325  nElectrons: 341.000000  magneticMoment: [ Abs: 40.14527  Tot: +0.00000 ]
	SubspaceRotationAdjust: set factor to 0.113
ElecMinimize: Iter:  23  F: -1895.829131577439284  |grad|_K:  6.164e-07  alpha:  2.540e-01  linmin: -2.889e-05  t[s]: 372928.35
	FillingsUpdate:  mu: +0.118874586  nElectrons: 341.000000  magneticMoment: [ Abs: 40.14784  Tot: +0.00000 ]
	SubspaceRotationAdjust: set factor to 0.134
ElecMinimize: Iter:  24  F: -1895.829155068145838  |grad|_K:  5.041e-07  alpha:  3.524e-01  linmin:  3.367e-06  t[s]: 373007.15
slurmstepd-node3404: error: *** JOB 44413 ON node3404 CANCELLED AT 2025-05-22T13:12:12 ***
mpirun: Forwarding signal 18 to job
