/var/spool/slurmd/job44153/slurm_script: line 9: module: command not found
/var/spool/slurmd/job44153/slurm_script: line 10: module: command not found

*************** JDFTx 1.7.0  ***************

Start date and time: Sat May 10 01:27:27 2025
Executable /data2/jt577/jdftx_eat_withLibXC/build/jdftx with command-line: -i /data2/jt577/May_2025/Relax_Mag/rel17+1_6/OH/runs/calc_/run.in
Running on hosts (process indices):  node3407 (0-8)
Divided in process groups (process indices):  0 (0)  1 (1)  2 (2)  3 (3)  4 (4)  5 (5)  6 (6)  7 (7)  8 (8)
Resource initialization completed at t[s]:      0.00
Run totals: 9 processes, 90 threads, 0 GPUs


Input parsed successfully to the following command list (including defaults):

add-mix 
add-U 	Ni d 0.22 \
	Co d 0.2 \
	Cr d 0.16 \
	V d 0.12
basis kpoint-dependent
coords-type Lattice
core-overlap-check vector
coulomb-interaction Periodic
davidson-band-ratio 1.1
dump End IonicPositions Lattice Ecomponents
dump-name run.$VAR
elec-cutoff 30
elec-eigen-algo Davidson
elec-ex-corr gga-x-rpbe gga-c-pbe
elec-smearing Fermi 0.001
electronic-minimize  \
	dirUpdateScheme      FletcherReeves \
	linminMethod         DirUpdateRecommended \
	nIterations          1000 \
	history              15 \
	knormThreshold       0 \
	energyDiffThreshold  1e-06 \
	nEnergyDiff          5 \
	alphaTstart          1 \
	alphaTmin            1e-10 \
	updateTestStepSize   yes \
	alphaTreduceFactor   0.1 \
	alphaTincreaseFactor 3 \
	nAlphaAdjustMax      3 \
	wolfeEnergy          0.0001 \
	wolfeGradient        0.9 \
	fdTest               no
exchange-regularization WignerSeitzTruncated
fluid None
fluid-ex-corr (null) lda-PZ
fluid-gummel-loop 10 1.000000e-05
fluid-minimize  \
	dirUpdateScheme      PolakRibiere \
	linminMethod         DirUpdateRecommended \
	nIterations          100 \
	history              15 \
	knormThreshold       0 \
	energyDiffThreshold  0 \
	nEnergyDiff          2 \
	alphaTstart          1 \
	alphaTmin            1e-10 \
	updateTestStepSize   yes \
	alphaTreduceFactor   0.1 \
	alphaTincreaseFactor 3 \
	nAlphaAdjustMax      3 \
	wolfeEnergy          0.0001 \
	wolfeGradient        0.9 \
	fdTest               no
fluid-solvent H2O 55.338 ScalarEOS \
	epsBulk 78.4 \
	pMol 0.92466 \
	epsInf 1.77 \
	Pvap 1.06736e-10 \
	sigmaBulk 4.62e-05 \
	Rvdw 2.61727 \
	Res 1.42 \
	tauNuc 343133 \
	poleEl 15 7 1
forces-output-coords Positions
initial-magnetic-moments  \
	Ni 1 1 -1 1 \
	Co -1 -1 \
	Cr -1 1 \
	V 1 1 -1 -1 -1 1 -1 1
initial-state run.$VAR
ion Ni  0.000000000000000   0.000000000000000   0.150000000000000 1
ion Ni  0.000000000000000   0.500000000000000   0.150000000000000 1
ion Ni  0.250000000000000   0.250000000000000  -0.150000000000000 0
ion Ni -0.250000000000000   0.250000000000000  -0.150000000000000 0
ion Co  0.500000000000000   0.000000000000000   0.150000000000000 1
ion Co  0.250000000000000   0.750000000000000  -0.150000000000000 0
ion Cr  0.500000000000000   0.500000000000000   0.150000000000000 1
ion Cr -0.250000000000000   0.750000000000000  -0.150000000000000 0
ion V  0.250000000000000   0.250000000000000   0.050000000000000 1
ion V  0.250000000000000   0.750000000000000   0.050000000000000 1
ion V -0.250000000000000   0.250000000000000   0.050000000000000 1
ion V -0.250000000000000   0.750000000000000   0.050000000000000 1
ion V  0.000000000000000   0.000000000000000  -0.050000000000000 0
ion V  0.500000000000000   0.000000000000000  -0.050000000000000 0
ion V  0.000000000000000   0.500000000000000  -0.050000000000000 0
ion V  0.500000000000000   0.500000000000000  -0.050000000000000 0
ion O  0.250000000000000   0.250000000000000   0.150000000000000 1
ion O  0.250000000000000   0.750000000000000   0.150000000000000 1
ion O -0.250000000000000   0.250000000000000   0.150000000000000 1
ion O -0.250000000000000   0.750000000000000   0.150000000000000 1
ion O  0.000000000000000   0.000000000000000   0.050000000000000 1
ion O  0.500000000000000   0.000000000000000   0.050000000000000 1
ion O  0.000000000000000   0.500000000000000   0.050000000000000 1
ion O  0.500000000000000   0.500000000000000   0.050000000000000 1
ion O  0.250000000000000   0.250000000000000  -0.050000000000000 0
ion O  0.250000000000000   0.750000000000000  -0.050000000000000 0
ion O -0.250000000000000   0.250000000000000  -0.050000000000000 0
ion O -0.250000000000000   0.750000000000000  -0.050000000000000 0
ion O  0.000000000000000   0.000000000000000  -0.150000000000000 0
ion O  0.500000000000000   0.000000000000000  -0.150000000000000 0
ion O  0.000000000000000   0.500000000000000  -0.150000000000000 0
ion O  0.500000000000000   0.500000000000000  -0.150000000000000 0
ion O -0.008040138212305  -0.008269777577920   0.235000196603227 1
ion H  0.095742872057713   0.094897636790041   0.252810710255288 1
ion-species SG15/$ID_ONCV_PBE.upf
ion-width 0
ionic-minimize  \
	dirUpdateScheme      L-BFGS \
	linminMethod         DirUpdateRecommended \
	nIterations          1000 \
	history              15 \
	knormThreshold       0.0001 \
	energyDiffThreshold  0.0001 \
	nEnergyDiff          3 \
	alphaTstart          1 \
	alphaTmin            1e-10 \
	updateTestStepSize   yes \
	alphaTreduceFactor   0.1 \
	alphaTincreaseFactor 3 \
	nAlphaAdjustMax      3 \
	wolfeEnergy          0.0001 \
	wolfeGradient        0.9 \
	fdTest               no
kpoint   0.500000000000   0.500000000000   0.500000000000  1.00000000000000
kpoint-folding 3 3 1 
latt-move-scale 1 1 1
latt-scale 1 1 1 
lattice  \
	   8.140000000000001    8.140000000000001    0.000000000000000  \
	   8.140000000000001   -8.140000000000001    0.000000000000000  \
	   0.000000000000000    0.000000000000000   40.700000000000003 
lattice-minimize  \
	dirUpdateScheme      L-BFGS \
	linminMethod         DirUpdateRecommended \
	nIterations          0 \
	history              15 \
	knormThreshold       0 \
	energyDiffThreshold  1e-06 \
	nEnergyDiff          2 \
	alphaTstart          1 \
	alphaTmin            1e-10 \
	updateTestStepSize   yes \
	alphaTreduceFactor   0.1 \
	alphaTincreaseFactor 3 \
	nAlphaAdjustMax      3 \
	wolfeEnergy          0.0001 \
	wolfeGradient        0.9 \
	fdTest               no
lcao-params -1 1e-06 0.001
pcm-variant GLSSA13
spintype z-spin
subspace-rotation-factor 1 yes
symmetries none
symmetry-threshold 0.0001


Applied RMS atom displacement 0 bohrs to make symmetries exact.

---------- Initializing the Grid ----------
R = 
[         8.14         8.14            0  ]
[         8.14        -8.14            0  ]
[            0            0         40.7  ]
unit cell volume = 5393.53
G =
[   0.385945   0.385945         -0  ]
[   0.385945  -0.385945         -0  ]
[         -0         -0   0.154378  ]
Minimum fftbox size, Smin = [  60  60  204  ]
Chosen fftbox size, S = [  60  60  210  ]

---------- Exchange Correlation functional ----------
Initialized LibXC exchange functional 'Hammer, Hansen, and Norskov'
Initialized LibXC correlation functional 'Perdew, Burke & Ernzerhof'

---------- Setting up pseudopotentials ----------
Width of ionic core gaussian charges (only for fluid interactions / plotting) set to 0

Reading pseudopotential file '/data2/jt577/jdftx_eat_withLibXC/build/pseudopotentials/SG15/Ni_ONCV_PBE.upf':
  'Ni' pseudopotential, 'PBE' functional
  Generated using ONCVPSP code by D. R. Hamann
  Author: Martin Schlipf and Francois Gygi  Date: 150915.
  18 valence electrons, 4 orbitals, 6 projectors, 1292 radial grid points, with lMax = 2
  Transforming local potential to a uniform radial grid of dG=0.02 with 1419 points.
  Transforming nonlocal projectors to a uniform radial grid of dG=0.02 with 528 points.
    3S    l: 0   occupation:  2.0   eigenvalue: -4.081355
    3P    l: 1   occupation:  6.0   eigenvalue: -2.623460
    4S    l: 0   occupation:  2.0   eigenvalue: -0.207378
    3D    l: 2   occupation:  8.0   eigenvalue: -0.326118
  Transforming atomic orbitals to a uniform radial grid of dG=0.02 with 528 points.
  WARNING: large normalization error in atomic orbital 1s (integral: 0.000006).
  Core radius for overlap checks: 1.99 bohrs.
  Reading pulay file /data2/jt577/jdftx_eat_withLibXC/build/pseudopotentials/SG15/Ni_ONCV_PBE.pulay ... using dE_dnG = -7.250568e-04 computed for Ecut = 30.

Reading pseudopotential file '/data2/jt577/jdftx_eat_withLibXC/build/pseudopotentials/SG15/Co_ONCV_PBE.upf':
  'Co' pseudopotential, 'PBE' functional
  Generated using ONCVPSP code by D. R. Hamann
  Author: Martin Schlipf and Francois Gygi  Date: 150915.
  17 valence electrons, 4 orbitals, 6 projectors, 1388 radial grid points, with lMax = 2
  Transforming local potential to a uniform radial grid of dG=0.02 with 1419 points.
  Transforming nonlocal projectors to a uniform radial grid of dG=0.02 with 528 points.
    3S    l: 0   occupation:  2.0   eigenvalue: -3.763303
    3P    l: 1   occupation:  6.0   eigenvalue: -2.412101
    4S    l: 0   occupation:  2.0   eigenvalue: -0.201022
    3D    l: 2   occupation:  7.0   eigenvalue: -0.301498
  Transforming atomic orbitals to a uniform radial grid of dG=0.02 with 528 points.
  Core radius for overlap checks: 1.94 bohrs.
  Reading pulay file /data2/jt577/jdftx_eat_withLibXC/build/pseudopotentials/SG15/Co_ONCV_PBE.pulay ... using dE_dnG = -9.787391e-05 computed for Ecut = 30.

Reading pseudopotential file '/data2/jt577/jdftx_eat_withLibXC/build/pseudopotentials/SG15/Cr_ONCV_PBE.upf':
  'Cr' pseudopotential, 'PBE' functional
  Generated using ONCVPSP code by D. R. Hamann
  Author: Martin Schlipf and Francois Gygi  Date: 150915.
  14 valence electrons, 4 orbitals, 6 projectors, 1160 radial grid points, with lMax = 2
  Transforming local potential to a uniform radial grid of dG=0.02 with 1419 points.
  Transforming nonlocal projectors to a uniform radial grid of dG=0.02 with 528 points.
    3S    l: 0   occupation:  2.0   eigenvalue: -2.865131
    3P    l: 1   occupation:  6.0   eigenvalue: -1.810600
    4S    l: 0   occupation:  2.0   eigenvalue: -0.180525
    3D    l: 2   occupation:  4.0   eigenvalue: -0.220312
  Transforming atomic orbitals to a uniform radial grid of dG=0.02 with 528 points.
  WARNING: large normalization error in atomic orbital 1s (integral: 0.000001).
  Core radius for overlap checks: 2.10 bohrs.
  Reading pulay file /data2/jt577/jdftx_eat_withLibXC/build/pseudopotentials/SG15/Cr_ONCV_PBE.pulay ... using dE_dnG = -9.817895e-06 computed for Ecut = 30.

Reading pseudopotential file '/data2/jt577/jdftx_eat_withLibXC/build/pseudopotentials/SG15/V_ONCV_PBE.upf':
  'V' pseudopotential, 'PBE' functional
  Generated using ONCVPSP code by D. R. Hamann
  Author: Martin Schlipf and Francois Gygi  Date: 150915.
  13 valence electrons, 4 orbitals, 6 projectors, 1536 radial grid points, with lMax = 2
  Transforming local potential to a uniform radial grid of dG=0.02 with 1419 points.
  Transforming nonlocal projectors to a uniform radial grid of dG=0.02 with 528 points.
    3S    l: 0   occupation:  2.0   eigenvalue: -2.581105
    3P    l: 1   occupation:  6.0   eigenvalue: -1.618486
    4S    l: 0   occupation:  2.0   eigenvalue: -0.172804
    3D    l: 2   occupation:  3.0   eigenvalue: -0.189795
  Transforming atomic orbitals to a uniform radial grid of dG=0.02 with 528 points.
  Core radius for overlap checks: 1.80 bohrs.
  Reading pulay file /data2/jt577/jdftx_eat_withLibXC/build/pseudopotentials/SG15/V_ONCV_PBE.pulay ... using dE_dnG = -1.698632e-04 computed for Ecut = 30.

Reading pseudopotential file '/data2/jt577/jdftx_eat_withLibXC/build/pseudopotentials/SG15/O_ONCV_PBE.upf':
  'O' pseudopotential, 'PBE' functional
  Generated using ONCVPSP code by D. R. Hamann
  Author: Martin Schlipf and Francois Gygi  Date: 150915.
  6 valence electrons, 2 orbitals, 4 projectors, 936 radial grid points, with lMax = 1
  Transforming local potential to a uniform radial grid of dG=0.02 with 1419 points.
  Transforming nonlocal projectors to a uniform radial grid of dG=0.02 with 528 points.
    2S    l: 0   occupation:  2.0   eigenvalue: -0.880572
    2P    l: 1   occupation:  4.0   eigenvalue: -0.331869
  Transforming atomic orbitals to a uniform radial grid of dG=0.02 with 528 points.
  Core radius for overlap checks: 1.29 bohrs.
  Reading pulay file /data2/jt577/jdftx_eat_withLibXC/build/pseudopotentials/SG15/O_ONCV_PBE.pulay ... using dE_dnG = -8.209514e-03 computed for Ecut = 30.

Reading pseudopotential file '/data2/jt577/jdftx_eat_withLibXC/build/pseudopotentials/SG15/H_ONCV_PBE.upf':
  'H' pseudopotential, 'PBE' functional
  Generated using ONCVPSP code by D. R. Hamann
  Author: Martin Schlipf and Francois Gygi  Date: 150915.
  1 valence electrons, 1 orbitals, 2 projectors, 1166 radial grid points, with lMax = 0
  Transforming local potential to a uniform radial grid of dG=0.02 with 1419 points.
  Transforming nonlocal projectors to a uniform radial grid of dG=0.02 with 528 points.
    1S    l: 0   occupation:  1.0   eigenvalue: -0.238602
  Transforming atomic orbitals to a uniform radial grid of dG=0.02 with 528 points.
  Core radius for overlap checks: 1.01 bohrs.
  Reading pulay file /data2/jt577/jdftx_eat_withLibXC/build/pseudopotentials/SG15/H_ONCV_PBE.pulay ... using dE_dnG = -8.245991e-05 computed for Ecut = 30.

Initialized 6 species with 34 total atoms.

Folded 1 k-points by 3x3x1 to 9 k-points.

---------- Setting up k-points, bands, fillings ----------
No reducable k-points. 
Computing the number of bands and number of electrons
Calculating initial fillings.
nElectrons: 341.000000   nBands: 229   nStates: 18

----- Setting up reduced wavefunction bases (one per k-point) -----
average nbasis = 42312.000 , ideal nbasis = 42330.081

---------- Setting up ewald sum ----------
Optimum gaussian width for ewald sums = 3.887061 bohr.
Real space sum over 605 unit cells with max indices [  5  5  2  ]
Reciprocal space sum over 5915 terms with max indices [  6  6  17  ]

---------- Allocating electronic variables ----------
Initializing wave functions:  linear combination of atomic orbitals
Ni (M=1) pseudo-atom majority spin occupations:   s ( 1 0.5 )  p ( 3 )  d ( 5 )
Ni (M=1) pseudo-atom minority spin occupations:   s ( 1 0 )  p ( 3 )  d ( 4.5 )
Co (M=1) pseudo-atom majority spin occupations:   s ( 1 0 )  p ( 3 )  d ( 5 )
Co (M=1) pseudo-atom minority spin occupations:   s ( 1 0 )  p ( 3 )  d ( 4 )
Cr (M=1) pseudo-atom majority spin occupations:   s ( 1 0 )  p ( 3 )  d ( 3.5 )
Cr (M=1) pseudo-atom minority spin occupations:   s ( 1 0 )  p ( 3 )  d ( 2.5 )
V (M=1) pseudo-atom majority spin occupations:   s ( 1 0 )  p ( 3 )  d ( 3 )
V (M=1) pseudo-atom minority spin occupations:   s ( 1 0 )  p ( 3 )  d ( 2 )
O pseudo-atom occupations:   s ( 2 )  p ( 4 )
H pseudo-atom occupations:   s ( 1 )
	FillingsUpdate:  mu: -0.612696474  nElectrons: 341.000000  magneticMoment: [ Abs: 0.81375  Tot: -0.00000 ]
LCAOMinimize: Iter:   0  F: -1759.9286766763570995  |grad|_K:  1.138e-02  alpha:  1.000e+00
	FillingsUpdate:  mu: -0.432720236  nElectrons: 341.000000  magneticMoment: [ Abs: 2.76125  Tot: -0.00000 ]
LCAOMinimize: Iter:   1  F: -1773.2429220023486778  |grad|_K:  3.046e-02  alpha:  9.430e-02  linmin:  2.836e-02  cgtest:  2.631e-01  t[s]:     43.35
LCAOMinimize: 	Bad step direction: g.d > 0.
LCAOMinimize: 	Undoing step.
LCAOMinimize: 	Step failed: resetting search direction.
	FillingsUpdate:  mu: -0.432720236  nElectrons: 341.000000  magneticMoment: [ Abs: 2.76125  Tot: -0.00000 ]
LCAOMinimize: Iter:   2  F: -1773.2429220023486778  |grad|_K:  3.046e-02  alpha:  0.000e+00
LCAOMinimize: 	Step increased F by 3.679215e+00, reducing alpha to 4.362476e-03.
	FillingsUpdate:  mu: -0.457273818  nElectrons: 341.000000  magneticMoment: [ Abs: 3.03405  Tot: -0.00000 ]
LCAOMinimize: Iter:   3  F: -1778.0527475089481868  |grad|_K:  2.827e-02  alpha:  4.362e-03  linmin: -9.683e-02  cgtest:  7.834e-01  t[s]:     78.28
LCAOMinimize: 	Wrong curvature in test step, increasing alphaT to 1.308743e-02.
	FillingsUpdate:  mu: -0.428583643  nElectrons: 341.000000  magneticMoment: [ Abs: 4.46787  Tot: +0.00000 ]
LCAOMinimize: Iter:   4  F: -1782.2143081813794652  |grad|_K:  2.798e-02  alpha: -3.391e-02  linmin: -9.522e-02  cgtest:  6.662e-01  t[s]:     91.78
LCAOMinimize: 	Step increased F by 4.072227e+02, reducing alpha to 3.077504e-02.
LCAOMinimize: 	Step increased F by 1.089475e+01, reducing alpha to 3.077504e-03.
	FillingsUpdate:  mu: -0.555514377  nElectrons: 341.000000  magneticMoment: [ Abs: 5.25971  Tot: +0.00000 ]
LCAOMinimize: Iter:   5  F: -1785.2536109468828727  |grad|_K:  2.042e-02  alpha:  3.078e-03  linmin: -9.581e-02  cgtest:  8.665e-01  t[s]:    126.60
LCAOMinimize: Encountered beta<0, resetting CG.
LCAOMinimize: 	Wrong curvature in test step, increasing alphaT to 9.232511e-03.
	FillingsUpdate:  mu: -0.478224777  nElectrons: 341.000000  magneticMoment: [ Abs: 5.37628  Tot: +0.00000 ]
LCAOMinimize: Iter:   6  F: -1786.5169030690590262  |grad|_K:  1.782e-02  alpha: -4.584e-02  linmin: -5.772e-02  cgtest:  8.616e-01  t[s]:    140.55
LCAOMinimize: 	Step increased F by 1.202465e+02, reducing alpha to 1.902315e-02.
	FillingsUpdate:  mu: -0.382404944  nElectrons: 341.000000  magneticMoment: [ Abs: 4.59375  Tot: +0.00000 ]
LCAOMinimize: Iter:   7  F: -1787.6759413611175660  |grad|_K:  3.386e-02  alpha:  1.902e-02  linmin:  1.261e-02  cgtest: -3.184e-01  t[s]:    165.57
LCAOMinimize: 	Wrong curvature in test step, increasing alphaT to 5.706944e-02.
	FillingsUpdate:  mu: +0.448349508  nElectrons: 341.000000  magneticMoment: [ Abs: 7.52526  Tot: +0.00000 ]
LCAOMinimize: Iter:   8  F: -1813.0008229750562805  |grad|_K:  1.564e-02  alpha: -2.400e-03  linmin:  2.230e-02  cgtest:  3.764e-01  t[s]:    179.33
LCAOMinimize: 	Step increased F by 1.222562e+02, reducing alpha to 2.434817e-02.
	FillingsUpdate:  mu: +0.419357562  nElectrons: 341.000000  magneticMoment: [ Abs: 8.63891  Tot: -0.00000 ]
LCAOMinimize: Iter:   9  F: -1816.9933754715759733  |grad|_K:  1.132e-02  alpha:  2.435e-02  linmin: -3.141e-02  cgtest:  5.986e-01  t[s]:    204.60
	FillingsUpdate:  mu: +0.210702528  nElectrons: 341.000000  magneticMoment: [ Abs: 8.69646  Tot: -0.00000 ]
LCAOMinimize: Iter:  10  F: -1819.8105250329329010  |grad|_K:  1.617e-02  alpha:  3.614e-02  linmin: -2.872e-02  cgtest: -3.444e-01  t[s]:    219.49
	FillingsUpdate:  mu: +0.046512609  nElectrons: 341.000000  magneticMoment: [ Abs: 10.36002  Tot: +0.00000 ]
LCAOMinimize: Iter:  11  F: -1820.3092720623608329  |grad|_K:  1.759e-02  alpha:  8.071e-03  linmin:  4.098e-02  cgtest:  7.072e-01  t[s]:    234.33
LCAOMinimize: 	Predicted alpha/alphaT>3.000000, increasing alphaT to 2.421255e-02.
	FillingsUpdate:  mu: -0.023293469  nElectrons: 341.000000  magneticMoment: [ Abs: 11.31475  Tot: -0.00000 ]
LCAOMinimize: Iter:  12  F: -1822.0745622992185417  |grad|_K:  6.433e-03  alpha:  1.244e-02  linmin: -2.093e-02  cgtest:  2.861e-01  t[s]:    253.58
	FillingsUpdate:  mu: -0.065354660  nElectrons: 341.000000  magneticMoment: [ Abs: 11.39541  Tot: -0.00000 ]
LCAOMinimize: Iter:  13  F: -1822.7693713155806563  |grad|_K:  3.809e-03  alpha:  3.004e-02  linmin: -6.787e-02  cgtest:  5.381e-01  t[s]:    268.28
LCAOMinimize: 	Step increased F by 2.471962e+00, reducing alpha to 8.773547e-03.
	FillingsUpdate:  mu: -0.070668565  nElectrons: 341.000000  magneticMoment: [ Abs: 11.54844  Tot: +0.00000 ]
LCAOMinimize: Iter:  14  F: -1822.8829558548056866  |grad|_K:  3.323e-03  alpha:  8.774e-03  linmin: -1.116e-01  cgtest:  8.591e-01  t[s]:    293.56
LCAOMinimize: 	Wrong curvature in test step, increasing alphaT to 2.632064e-02.
	FillingsUpdate:  mu: -0.067262134  nElectrons: 341.000000  magneticMoment: [ Abs: 11.66929  Tot: +0.00000 ]
LCAOMinimize: Iter:  15  F: -1822.9854696608174436  |grad|_K:  3.628e-03  alpha: -4.521e-02  linmin: -1.052e-01  cgtest:  8.564e-01  t[s]:    307.32
LCAOMinimize: 	Step increased F by 1.652671e+00, reducing alpha to 9.337406e-03.
	FillingsUpdate:  mu: -0.030445325  nElectrons: 341.000000  magneticMoment: [ Abs: 11.95108  Tot: +0.00000 ]
LCAOMinimize: Iter:  16  F: -1823.1862062123177566  |grad|_K:  4.010e-03  alpha:  9.337e-03  linmin: -1.008e-01  cgtest:  7.326e-01  t[s]:    332.61
LCAOMinimize: 	Predicted alpha/alphaT>3.000000, increasing alphaT to 2.801222e-02.
	FillingsUpdate:  mu: +0.091058006  nElectrons: 341.000000  magneticMoment: [ Abs: 12.49302  Tot: +0.00000 ]
LCAOMinimize: Iter:  17  F: -1823.3979287543681949  |grad|_K:  4.327e-03  alpha:  1.385e-02  linmin:  2.092e-02  cgtest:  1.928e-01  t[s]:    351.42
	FillingsUpdate:  mu: +0.115021816  nElectrons: 341.000000  magneticMoment: [ Abs: 12.56700  Tot: -0.00000 ]
LCAOMinimize: Iter:  18  F: -1823.4429326242532170  |grad|_K:  4.961e-03  alpha:  8.332e-03  linmin:  7.703e-04  cgtest:  9.298e-01  t[s]:    366.15
	FillingsUpdate:  mu: +0.028003439  nElectrons: 341.000000  magneticMoment: [ Abs: 12.78363  Tot: +0.00000 ]
LCAOMinimize: Iter:  19  F: -1823.6368368837024718  |grad|_K:  4.498e-03  alpha:  1.944e-02  linmin:  1.728e-02  cgtest: -2.609e-01  t[s]:    380.74
	FillingsUpdate:  mu: -0.077379919  nElectrons: 341.000000  magneticMoment: [ Abs: 13.27964  Tot: -0.00000 ]
LCAOMinimize: Iter:  20  F: -1823.8927195211588241  |grad|_K:  4.723e-03  alpha:  3.378e-02  linmin: -5.595e-03  cgtest:  7.185e-01  t[s]:    395.29
	FillingsUpdate:  mu: +0.034289618  nElectrons: 341.000000  magneticMoment: [ Abs: 14.26751  Tot: +0.00000 ]
LCAOMinimize: Iter:  21  F: -1824.0765057091073231  |grad|_K:  3.541e-03  alpha:  1.666e-02  linmin:  1.227e-02  cgtest: -2.373e-01  t[s]:    409.86
	FillingsUpdate:  mu: +0.069948609  nElectrons: 341.000000  magneticMoment: [ Abs: 15.18514  Tot: +0.00000 ]
LCAOMinimize: Iter:  22  F: -1824.1763975496958210  |grad|_K:  2.586e-03  alpha:  2.186e-02  linmin:  9.785e-03  cgtest:  2.034e-01  t[s]:    424.23
	FillingsUpdate:  mu: +0.037625008  nElectrons: 341.000000  magneticMoment: [ Abs: 15.76890  Tot: +0.00000 ]
LCAOMinimize: Iter:  23  F: -1824.2832787089328122  |grad|_K:  2.235e-03  alpha:  3.441e-02  linmin: -1.188e-02  cgtest:  3.834e-01  t[s]:    438.83
	FillingsUpdate:  mu: +0.020251283  nElectrons: 341.000000  magneticMoment: [ Abs: 16.04825  Tot: +0.00000 ]
LCAOMinimize: Iter:  24  F: -1824.3257570069606572  |grad|_K:  1.162e-03  alpha:  1.613e-02  linmin:  9.889e-04  cgtest: -3.412e-01  t[s]:    453.28
LCAOMinimize: 	Predicted alpha/alphaT>3.000000, increasing alphaT to 4.838279e-02.
	FillingsUpdate:  mu: +0.051117417  nElectrons: 341.000000  magneticMoment: [ Abs: 18.54385  Tot: +0.00000 ]
LCAOMinimize: Iter:  25  F: -1824.4199549863437824  |grad|_K:  2.092e-03  alpha:  1.444e-01  linmin: -8.835e-04  cgtest:  7.975e-01  t[s]:    471.91
	FillingsUpdate:  mu: +0.042599827  nElectrons: 341.000000  magneticMoment: [ Abs: 19.35544  Tot: -0.00000 ]
LCAOMinimize: Iter:  26  F: -1824.4442208453754120  |grad|_K:  1.933e-03  alpha:  2.363e-02  linmin:  1.141e-02  cgtest: -6.913e-01  t[s]:    486.68
	FillingsUpdate:  mu: +0.044916427  nElectrons: 341.000000  magneticMoment: [ Abs: 19.70204  Tot: -0.00000 ]
LCAOMinimize: Iter:  27  F: -1824.4453550542484663  |grad|_K:  2.226e-03  alpha:  6.496e-03  linmin:  3.261e-04  cgtest:  1.014e+00  t[s]:    501.31
	FillingsUpdate:  mu: +0.022693183  nElectrons: 341.000000  magneticMoment: [ Abs: 19.90818  Tot: -0.00000 ]
LCAOMinimize: Iter:  28  F: -1824.4801371056671542  |grad|_K:  8.433e-04  alpha:  1.470e-02  linmin: -3.156e-03  cgtest: -2.937e-02  t[s]:    515.98
LCAOMinimize: 	Predicted alpha/alphaT>3.000000, increasing alphaT to 4.409052e-02.
LCAOMinimize: 	Predicted alpha/alphaT>3.000000, increasing alphaT to 1.322716e-01.
	FillingsUpdate:  mu: +0.011600203  nElectrons: 341.000000  magneticMoment: [ Abs: 21.34412  Tot: -0.00000 ]
LCAOMinimize: Iter:  29  F: -1824.5561724043875529  |grad|_K:  7.998e-04  alpha:  2.085e-01  linmin: -8.117e-03  cgtest:  2.099e-01  t[s]:    538.92
	FillingsUpdate:  mu: +0.028870403  nElectrons: 341.000000  magneticMoment: [ Abs: 22.24767  Tot: +0.00000 ]
LCAOMinimize: Iter:  30  F: -1824.5801307842839378  |grad|_K:  6.801e-04  alpha:  6.937e-02  linmin: -2.839e-03  cgtest:  6.609e-04  t[s]:    553.45
LCAOMinimize: None of the convergence criteria satisfied after 30 iterations.


---- Citations for features of the code used in this run ----

   Software package:
      R. Sundararaman, K. Letchworth-Weaver, K.A. Schwarz, D. Gunceler, Y. Ozhabes and T.A. Arias, 'JDFTx: software for joint density-functional theory', SoftwareX 6, 278 (2017)

   Simplified rotationally-invariant DFT+U:
      S. L. Dudarev et al., Phys. Rev. B 57, 1505 (1998)

   LibXC library of exchange-correlation functions:
      M. A. L. Marques, M. J. T. Oliveira and T. Burnus, Comput. Phys. Commun. 183, 2272 (2012)

   Hammer, Hansen, and Norskov exchange functional:
      B. Hammer, L. B. Hansen, and J. K. Nørskov, Phys. Rev. B 59, 7413 (1999)

   Perdew, Burke & Ernzerhof correlation functional:
      J. P. Perdew, K. Burke, and M. Ernzerhof, Phys. Rev. Lett. 77, 3865 (1996)

   Pseudopotentials:
      M Schlipf and F Gygi, Comput. Phys. Commun. 196, 36 (2015)

   Total energy minimization with Auxiliary Hamiltonian:
      C. Freysoldt, S. Boeck, and J. Neugebauer, Phys. Rev. B 79, 241103(R) (2009)

This list may not be complete. Please suggest additional citations or
report any other bugs at https://github.com/shankar1729/jdftx/issues

Initialization completed successfully at t[s]:    559.99


-------- Electronic minimization -----------
	FillingsUpdate:  mu: +0.028870417  nElectrons: 341.000000  magneticMoment: [ Abs: 22.24767  Tot: +0.00000 ]
ElecMinimize: Iter:   0  F: -1824.580130784279618  |grad|_K:  8.610e-04  alpha:  1.000e+00
	FillingsUpdate:  mu: +0.255012258  nElectrons: 341.000000  magneticMoment: [ Abs: 23.21524  Tot: +0.00000 ]
	SubspaceRotationAdjust: set factor to 0.993
ElecMinimize: Iter:   1  F: -1860.905429267374529  |grad|_K:  1.043e-03  alpha:  4.785e-01  linmin:  7.013e-03  t[s]:    652.20
	FillingsUpdate:  mu: +0.466671021  nElectrons: 341.000000  magneticMoment: [ Abs: 24.07586  Tot: +0.00000 ]
	SubspaceRotationAdjust: set factor to 0.719
ElecMinimize: Iter:   2  F: -1864.673550160291825  |grad|_K:  9.776e-04  alpha:  4.519e-02  linmin:  1.607e-03  t[s]:    729.98
	FillingsUpdate:  mu: +0.607864923  nElectrons: 341.000000  magneticMoment: [ Abs: 26.90699  Tot: -0.00000 ]
	SubspaceRotationAdjust: set factor to 0.42
ElecMinimize: Iter:   3  F: -1871.960876916431516  |grad|_K:  9.709e-04  alpha:  5.271e-02  linmin:  5.481e-04  t[s]:    806.00
	FillingsUpdate:  mu: +0.529183046  nElectrons: 341.000000  magneticMoment: [ Abs: 28.78352  Tot: +0.00000 ]
	SubspaceRotationAdjust: set factor to 0.248
ElecMinimize: Iter:   4  F: -1879.678225078052719  |grad|_K:  6.843e-04  alpha:  5.131e-02  linmin: -1.684e-04  t[s]:    882.61
	FillingsUpdate:  mu: +0.282462596  nElectrons: 341.000000  magneticMoment: [ Abs: 27.46983  Tot: +0.00000 ]
	SubspaceRotationAdjust: set factor to 0.144
ElecMinimize: Iter:   5  F: -1886.466948424953443  |grad|_K:  4.396e-04  alpha:  8.229e-02  linmin:  3.243e-04  t[s]:    959.48
	FillingsUpdate:  mu: +0.299317956  nElectrons: 341.000000  magneticMoment: [ Abs: 29.25291  Tot: +0.00000 ]
	SubspaceRotationAdjust: set factor to 0.129
	SubspaceRotationAdjust: resetting CG because factor has changed by 0.128755
ElecMinimize: 	State modified externally: resetting search direction.
ElecMinimize: Iter:   6  F: -1889.054539023127745  |grad|_K:  3.474e-04  alpha:  9.082e-02
	FillingsUpdate:  mu: +0.239580824  nElectrons: 341.000000  magneticMoment: [ Abs: 28.78789  Tot: +0.00000 ]
	SubspaceRotationAdjust: set factor to 0.0674
ElecMinimize: Iter:   7  F: -1893.292447978801420  |grad|_K:  1.167e-04  alpha:  2.042e-01  linmin:  1.968e-03  t[s]:   1128.13
	FillingsUpdate:  mu: +0.206954967  nElectrons: 341.000000  magneticMoment: [ Abs: 28.91711  Tot: +0.00000 ]
	SubspaceRotationAdjust: set factor to 0.0498
ElecMinimize: Iter:   8  F: -1893.827098475984712  |grad|_K:  7.928e-05  alpha:  2.268e-01  linmin: -1.172e-03  t[s]:   1204.22
	FillingsUpdate:  mu: +0.131563099  nElectrons: 341.000000  magneticMoment: [ Abs: 29.11404  Tot: +0.00000 ]
	SubspaceRotationAdjust: set factor to 0.0611
ElecMinimize: Iter:   9  F: -1894.166227428277352  |grad|_K:  5.207e-05  alpha:  2.849e-01  linmin: -5.262e-04  t[s]:   1279.69
	FillingsUpdate:  mu: +0.140286467  nElectrons: 341.000000  magneticMoment: [ Abs: 29.23516  Tot: +0.00000 ]
	SubspaceRotationAdjust: set factor to 0.0674
ElecMinimize: Iter:  10  F: -1894.351045450640413  |grad|_K:  4.616e-05  alpha:  3.699e-01  linmin: -4.999e-05  t[s]:   1355.59
	FillingsUpdate:  mu: +0.107674213  nElectrons: 341.000000  magneticMoment: [ Abs: 29.31182  Tot: -0.00000 ]
	SubspaceRotationAdjust: set factor to 0.0752
ElecMinimize: Iter:  11  F: -1894.493991952638453  |grad|_K:  3.663e-05  alpha:  3.803e-01  linmin: -1.670e-04  t[s]:   1433.21
	FillingsUpdate:  mu: +0.111552781  nElectrons: 341.000000  magneticMoment: [ Abs: 29.54022  Tot: +0.00000 ]
	SubspaceRotationAdjust: set factor to 0.0906
ElecMinimize: Iter:  12  F: -1894.591742811137010  |grad|_K:  3.614e-05  alpha:  4.017e-01  linmin: -6.067e-05  t[s]:   1510.44
	FillingsUpdate:  mu: +0.123554145  nElectrons: 341.000000  magneticMoment: [ Abs: 29.95529  Tot: +0.00000 ]
	SubspaceRotationAdjust: set factor to 0.0969
ElecMinimize: Iter:  13  F: -1894.686816291459081  |grad|_K:  3.617e-05  alpha:  4.069e-01  linmin: -9.303e-05  t[s]:   1584.94
	FillingsUpdate:  mu: +0.109859959  nElectrons: 341.000000  magneticMoment: [ Abs: 30.32582  Tot: -0.00000 ]
	SubspaceRotationAdjust: set factor to 0.112
ElecMinimize: Iter:  14  F: -1894.774512606948974  |grad|_K:  3.477e-05  alpha:  3.681e-01  linmin: -1.331e-04  t[s]:   1660.04
	FillingsUpdate:  mu: +0.114632140  nElectrons: 341.000000  magneticMoment: [ Abs: 30.90516  Tot: -0.00000 ]
	SubspaceRotationAdjust: set factor to 0.126
ElecMinimize: Iter:  15  F: -1894.878249128905964  |grad|_K:  3.938e-05  alpha:  4.484e-01  linmin: -8.037e-05  t[s]:   1733.45
	FillingsUpdate:  mu: +0.155570717  nElectrons: 341.000000  magneticMoment: [ Abs: 31.60980  Tot: +0.00000 ]
	SubspaceRotationAdjust: set factor to 0.101
ElecMinimize: Iter:  16  F: -1894.985776243473993  |grad|_K:  6.222e-05  alpha:  3.900e-01  linmin: -1.401e-04  t[s]:   1804.73
ElecMinimize: 	Step increased F by 1.139130e-01, reducing alpha to 7.544680e-04.
ElecMinimize: 	Step increased F by 1.257710e-01, reducing alpha to 7.544680e-05.
ElecMinimize: 	Step increased F by 1.269719e-01, reducing alpha to 7.544680e-06.
ElecMinimize: 	Step failed to reduce F after 3 attempts. Quitting step.
ElecMinimize: 	Undoing step.
ElecMinimize: 	Step failed: resetting search direction.
	FillingsUpdate:  mu: +0.148163570  nElectrons: 341.000000  magneticMoment: [ Abs: 31.59748  Tot: +0.00000 ]
	SubspaceRotationAdjust: set factor to 0.0887
ElecMinimize: Iter:  17  F: -1894.858790938438688  |grad|_K:  5.868e-05  alpha:  7.545e-06
	FillingsUpdate:  mu: +0.110438532  nElectrons: 341.000000  magneticMoment: [ Abs: 31.60499  Tot: +0.00000 ]
	SubspaceRotationAdjust: set factor to 0.0632
ElecMinimize: Iter:  18  F: -1894.929710748355546  |grad|_K:  3.346e-05  alpha:  1.014e-01  linmin: -4.474e-03  t[s]:   2088.27
	FillingsUpdate:  mu: +0.110945220  nElectrons: 341.000000  magneticMoment: [ Abs: 31.61056  Tot: -0.00000 ]
	SubspaceRotationAdjust: set factor to 0.0863
ElecMinimize: Iter:  19  F: -1894.994357672115029  |grad|_K:  2.826e-05  alpha:  2.920e-01  linmin: -2.814e-04  t[s]:   2163.94
	FillingsUpdate:  mu: +0.118747229  nElectrons: 341.000000  magneticMoment: [ Abs: 31.69889  Tot: +0.00000 ]
	SubspaceRotationAdjust: set factor to 0.0746
ElecMinimize: Iter:  20  F: -1895.035180577159053  |grad|_K:  3.009e-05  alpha:  2.849e-01  linmin: -3.154e-04  t[s]:   2242.34
	FillingsUpdate:  mu: +0.101152526  nElectrons: 341.000000  magneticMoment: [ Abs: 31.92231  Tot: +0.00000 ]
	SubspaceRotationAdjust: set factor to 0.0722
ElecMinimize: Iter:  21  F: -1895.073938724483696  |grad|_K:  2.495e-05  alpha:  2.333e-01  linmin: -9.830e-05  t[s]:   2320.50
	FillingsUpdate:  mu: +0.108213618  nElectrons: 341.000000  magneticMoment: [ Abs: 32.28823  Tot: +0.00000 ]
	SubspaceRotationAdjust: set factor to 0.081
ElecMinimize: Iter:  22  F: -1895.121245539269694  |grad|_K:  2.594e-05  alpha:  4.322e-01  linmin:  1.718e-05  t[s]:   2397.41
	FillingsUpdate:  mu: +0.106172360  nElectrons: 341.000000  magneticMoment: [ Abs: 32.53628  Tot: -0.00000 ]
	SubspaceRotationAdjust: set factor to 0.0699
ElecMinimize: Iter:  23  F: -1895.148367700398467  |grad|_K:  2.684e-05  alpha:  2.451e-01  linmin: -2.179e-05  t[s]:   2473.07
	FillingsUpdate:  mu: +0.086128907  nElectrons: 341.000000  magneticMoment: [ Abs: 33.09157  Tot: -0.00000 ]
	SubspaceRotationAdjust: set factor to 0.0742
ElecMinimize: Iter:  24  F: -1895.197548653250578  |grad|_K:  2.592e-05  alpha:  3.923e-01  linmin:  5.430e-06  t[s]:   2549.66
	FillingsUpdate:  mu: +0.110012326  nElectrons: 341.000000  magneticMoment: [ Abs: 33.77219  Tot: -0.00000 ]
	SubspaceRotationAdjust: set factor to 0.0803
ElecMinimize: Iter:  25  F: -1895.242557758758267  |grad|_K:  3.184e-05  alpha:  3.832e-01  linmin:  4.603e-05  t[s]:   2627.46
	FillingsUpdate:  mu: +0.105583132  nElectrons: 341.000000  magneticMoment: [ Abs: 34.81287  Tot: -0.00000 ]
	SubspaceRotationAdjust: set factor to 0.0968
ElecMinimize: Iter:  26  F: -1895.298980105905912  |grad|_K:  3.477e-05  alpha:  3.342e-01  linmin: -1.169e-04  t[s]:   2702.67
	FillingsUpdate:  mu: +0.112550195  nElectrons: 341.000000  magneticMoment: [ Abs: 35.44039  Tot: +0.00000 ]
	SubspaceRotationAdjust: set factor to 0.113
ElecMinimize: Iter:  27  F: -1895.353470573395498  |grad|_K:  2.984e-05  alpha:  1.647e-01  linmin: -7.601e-04  t[s]:   2782.55
	FillingsUpdate:  mu: +0.111350230  nElectrons: 341.000000  magneticMoment: [ Abs: 35.83358  Tot: -0.00000 ]
	SubspaceRotationAdjust: set factor to 0.133
ElecMinimize: Iter:  28  F: -1895.387849225637865  |grad|_K:  2.645e-05  alpha:  1.452e-01  linmin:  4.120e-04  t[s]:   2859.17
	FillingsUpdate:  mu: +0.109661164  nElectrons: 341.000000  magneticMoment: [ Abs: 35.89242  Tot: -0.00000 ]
	SubspaceRotationAdjust: set factor to 0.168
ElecMinimize: Iter:  29  F: -1895.391498571990951  |grad|_K:  2.590e-05  alpha:  2.546e-02  linmin: -7.494e-04  t[s]:   2938.39
	FillingsUpdate:  mu: +0.104361892  nElectrons: 341.000000  magneticMoment: [ Abs: 36.01980  Tot: +0.00000 ]
	SubspaceRotationAdjust: set factor to 0.217
ElecMinimize: Iter:  30  F: -1895.398982332642845  |grad|_K:  2.333e-05  alpha:  5.090e-02  linmin:  4.898e-04  t[s]:   3010.45
	FillingsUpdate:  mu: +0.102731252  nElectrons: 341.000000  magneticMoment: [ Abs: 36.07134  Tot: -0.00000 ]
	SubspaceRotationAdjust: set factor to 0.231
ElecMinimize: Iter:  31  F: -1895.400754011048321  |grad|_K:  2.365e-05  alpha:  2.097e-02  linmin: -1.512e-04  t[s]:   3090.29
	FillingsUpdate:  mu: +0.100502879  nElectrons: 341.000000  magneticMoment: [ Abs: 36.14163  Tot: +0.00000 ]
	SubspaceRotationAdjust: set factor to 0.214
ElecMinimize: Iter:  32  F: -1895.403020110367834  |grad|_K:  2.288e-05  alpha:  2.211e-02  linmin:  1.209e-04  t[s]:   3169.03
	FillingsUpdate:  mu: +0.098712095  nElectrons: 341.000000  magneticMoment: [ Abs: 36.20084  Tot: -0.00000 ]
	SubspaceRotationAdjust: set factor to 0.192
ElecMinimize: Iter:  33  F: -1895.404503786601936  |grad|_K:  2.166e-05  alpha:  1.652e-02  linmin:  1.872e-05  t[s]:   3246.77
	FillingsUpdate:  mu: +0.096735174  nElectrons: 341.000000  magneticMoment: [ Abs: 36.26036  Tot: -0.00000 ]
	SubspaceRotationAdjust: set factor to 0.17
ElecMinimize: Iter:  34  F: -1895.405808850488256  |grad|_K:  2.055e-05  alpha:  1.596e-02  linmin:  8.291e-05  t[s]:   3322.52
	FillingsUpdate:  mu: +0.094604309  nElectrons: 341.000000  magneticMoment: [ Abs: 36.31665  Tot: -0.00000 ]
	SubspaceRotationAdjust: set factor to 0.148
ElecMinimize: Iter:  35  F: -1895.406898657082365  |grad|_K:  1.966e-05  alpha:  1.500e-02  linmin:  7.841e-05  t[s]:   3399.85
	FillingsUpdate:  mu: +0.092505161  nElectrons: 341.000000  magneticMoment: [ Abs: 36.37087  Tot: -0.00000 ]
	SubspaceRotationAdjust: set factor to 0.127
ElecMinimize: Iter:  36  F: -1895.407865748137965  |grad|_K:  1.886e-05  alpha:  1.453e-02  linmin:  9.490e-05  t[s]:   3477.61
	FillingsUpdate:  mu: +0.090465251  nElectrons: 341.000000  magneticMoment: [ Abs: 36.42186  Tot: +0.00000 ]
	SubspaceRotationAdjust: set factor to 0.11
ElecMinimize: Iter:  37  F: -1895.408720264627391  |grad|_K:  1.808e-05  alpha:  1.397e-02  linmin:  1.049e-04  t[s]:   3555.58
	FillingsUpdate:  mu: +0.088436320  nElectrons: 341.000000  magneticMoment: [ Abs: 36.46894  Tot: +0.00000 ]
	SubspaceRotationAdjust: set factor to 0.094
ElecMinimize: Iter:  38  F: -1895.409474101656542  |grad|_K:  1.733e-05  alpha:  1.341e-02  linmin:  1.223e-04  t[s]:   3634.18
	FillingsUpdate:  mu: +0.086439158  nElectrons: 341.000000  magneticMoment: [ Abs: 36.51141  Tot: +0.00000 ]
	SubspaceRotationAdjust: set factor to 0.0801
ElecMinimize: Iter:  39  F: -1895.410129961860093  |grad|_K:  1.661e-05  alpha:  1.272e-02  linmin:  1.496e-04  t[s]:   3710.43
	FillingsUpdate:  mu: +0.084459345  nElectrons: 341.000000  magneticMoment: [ Abs: 36.54855  Tot: +0.00000 ]
	SubspaceRotationAdjust: set factor to 0.0676
ElecMinimize: Iter:  40  F: -1895.410686605751152  |grad|_K:  1.596e-05  alpha:  1.174e-02  linmin:  1.823e-04  t[s]:   3791.28
	FillingsUpdate:  mu: +0.082476154  nElectrons: 341.000000  magneticMoment: [ Abs: 36.58022  Tot: -0.00000 ]
	SubspaceRotationAdjust: set factor to 0.0565
ElecMinimize: Iter:  41  F: -1895.411148857703438  |grad|_K:  1.535e-05  alpha:  1.058e-02  linmin:  1.950e-04  t[s]:   3868.02
	FillingsUpdate:  mu: +0.080575859  nElectrons: 341.000000  magneticMoment: [ Abs: 36.60760  Tot: +0.00000 ]
	SubspaceRotationAdjust: set factor to 0.0468
ElecMinimize: Iter:  42  F: -1895.411538268688219  |grad|_K:  1.478e-05  alpha:  9.645e-03  linmin:  1.963e-04  t[s]:   3943.18
	FillingsUpdate:  mu: +0.078806593  nElectrons: 341.000000  magneticMoment: [ Abs: 36.63231  Tot: +0.00000 ]
	SubspaceRotationAdjust: set factor to 0.0385
ElecMinimize: Iter:  43  F: -1895.411879739518781  |grad|_K:  1.421e-05  alpha:  9.156e-03  linmin:  1.847e-04  t[s]:   4022.31
	FillingsUpdate:  mu: +0.077156295  nElectrons: 341.000000  magneticMoment: [ Abs: 36.65584  Tot: -0.00000 ]
	SubspaceRotationAdjust: set factor to 0.0314
ElecMinimize: Iter:  44  F: -1895.412194188659896  |grad|_K:  1.362e-05  alpha:  9.132e-03  linmin:  1.581e-04  t[s]:   4101.66
	FillingsUpdate:  mu: +0.075574908  nElectrons: 341.000000  magneticMoment: [ Abs: 36.67943  Tot: -0.00000 ]
	SubspaceRotationAdjust: set factor to 0.0256
ElecMinimize: Iter:  45  F: -1895.412496617027045  |grad|_K:  1.301e-05  alpha:  9.535e-03  linmin:  1.207e-04  t[s]:   4178.17
	FillingsUpdate:  mu: +0.074035959  nElectrons: 341.000000  magneticMoment: [ Abs: 36.70409  Tot: +0.00000 ]
	SubspaceRotationAdjust: set factor to 0.0208
ElecMinimize: Iter:  46  F: -1895.412796850474251  |grad|_K:  1.238e-05  alpha:  1.033e-02  linmin:  7.986e-05  t[s]:   4254.25
	FillingsUpdate:  mu: +0.072563461  nElectrons: 341.000000  magneticMoment: [ Abs: 36.73022  Tot: +0.00000 ]
	SubspaceRotationAdjust: set factor to 0.017
	SubspaceRotationAdjust: resetting CG because factor has changed by 0.13193
ElecMinimize: 	State modified externally: resetting search direction.
ElecMinimize: Iter:  47  F: -1895.413100785089910  |grad|_K:  1.106e-05  alpha:  1.148e-02
ElecMinimize: 	Predicted alpha/alphaT>3.000000, increasing alphaT to 3.444256e-02.
ElecMinimize: 	Predicted alpha/alphaT>3.000000, increasing alphaT to 1.033277e-01.
ElecMinimize: 	Predicted alpha/alphaT>3.000000, increasing alphaT to 3.099830e-01.
	FillingsUpdate:  mu: +0.087622318  nElectrons: 341.000000  magneticMoment: [ Abs: 36.81192  Tot: -0.00000 ]
	SubspaceRotationAdjust: set factor to 0.0243
ElecMinimize: Iter:  48  F: -1895.432326936120717  |grad|_K:  1.219e-05  alpha:  8.215e-01  linmin: -2.297e-02  t[s]:   4483.79
	FillingsUpdate:  mu: +0.092375775  nElectrons: 341.000000  magneticMoment: [ Abs: 36.87656  Tot: -0.00000 ]
	SubspaceRotationAdjust: set factor to 0.0284
ElecMinimize: Iter:  49  F: -1895.444760536102876  |grad|_K:  1.339e-05  alpha:  4.311e-01  linmin:  3.386e-04  t[s]:   4560.44
	FillingsUpdate:  mu: +0.094012658  nElectrons: 341.000000  magneticMoment: [ Abs: 36.98535  Tot: +0.00000 ]
	SubspaceRotationAdjust: set factor to 0.034
ElecMinimize: Iter:  50  F: -1895.462289352376274  |grad|_K:  1.293e-05  alpha:  5.541e-01  linmin: -2.860e-03  t[s]:   4638.83
	FillingsUpdate:  mu: +0.094500900  nElectrons: 341.000000  magneticMoment: [ Abs: 37.07566  Tot: +0.00000 ]
	SubspaceRotationAdjust: set factor to 0.04
ElecMinimize: Iter:  51  F: -1895.476654965155831  |grad|_K:  1.319e-05  alpha:  4.706e-01  linmin: -8.162e-04  t[s]:   4712.47
	FillingsUpdate:  mu: +0.097558408  nElectrons: 341.000000  magneticMoment: [ Abs: 37.17528  Tot: -0.00000 ]
	SubspaceRotationAdjust: set factor to 0.0447
ElecMinimize: Iter:  52  F: -1895.492899161592049  |grad|_K:  1.417e-05  alpha:  5.218e-01  linmin: -8.583e-04  t[s]:   4789.91
	FillingsUpdate:  mu: +0.099446994  nElectrons: 341.000000  magneticMoment: [ Abs: 37.28356  Tot: -0.00000 ]
	SubspaceRotationAdjust: set factor to 0.0496
ElecMinimize: Iter:  53  F: -1895.509025939797993  |grad|_K:  1.404e-05  alpha:  4.479e-01  linmin: -4.798e-04  t[s]:   4867.16
	FillingsUpdate:  mu: +0.098838354  nElectrons: 341.000000  magneticMoment: [ Abs: 37.44048  Tot: +0.00000 ]
	SubspaceRotationAdjust: set factor to 0.0539
ElecMinimize: Iter:  54  F: -1895.527512499890008  |grad|_K:  1.459e-05  alpha:  5.226e-01  linmin: -5.287e-04  t[s]:   4942.41
	FillingsUpdate:  mu: +0.098552487  nElectrons: 341.000000  magneticMoment: [ Abs: 37.65138  Tot: +0.00000 ]
	SubspaceRotationAdjust: set factor to 0.0576
ElecMinimize: Iter:  55  F: -1895.548100871558745  |grad|_K:  1.443e-05  alpha:  5.377e-01  linmin: -3.440e-04  t[s]:   5019.72
	FillingsUpdate:  mu: +0.101777752  nElectrons: 341.000000  magneticMoment: [ Abs: 37.85788  Tot: +0.00000 ]
	SubspaceRotationAdjust: set factor to 0.0631
ElecMinimize: Iter:  56  F: -1895.563461058414759  |grad|_K:  1.216e-05  alpha:  4.152e-01  linmin: -1.015e-04  t[s]:   5097.63
	FillingsUpdate:  mu: +0.104293393  nElectrons: 341.000000  magneticMoment: [ Abs: 38.03843  Tot: -0.00000 ]
	SubspaceRotationAdjust: set factor to 0.0695
ElecMinimize: Iter:  57  F: -1895.573044441531238  |grad|_K:  9.660e-06  alpha:  3.689e-01  linmin: -5.727e-05  t[s]:   5175.04
	FillingsUpdate:  mu: +0.105408811  nElectrons: 341.000000  magneticMoment: [ Abs: 38.24499  Tot: -0.00000 ]
	SubspaceRotationAdjust: set factor to 0.0775
ElecMinimize: Iter:  58  F: -1895.580976101218312  |grad|_K:  8.921e-06  alpha:  4.839e-01  linmin: -6.891e-05  t[s]:   5255.67
	FillingsUpdate:  mu: +0.105545843  nElectrons: 341.000000  magneticMoment: [ Abs: 38.44213  Tot: +0.00000 ]
	SubspaceRotationAdjust: set factor to 0.0853
ElecMinimize: Iter:  59  F: -1895.587021448529867  |grad|_K:  8.671e-06  alpha:  4.326e-01  linmin:  1.092e-05  t[s]:   5331.33
	FillingsUpdate:  mu: +0.104332222  nElectrons: 341.000000  magneticMoment: [ Abs: 38.67659  Tot: -0.00000 ]
	SubspaceRotationAdjust: set factor to 0.0932
ElecMinimize: Iter:  60  F: -1895.592626698873801  |grad|_K:  8.242e-06  alpha:  4.264e-01  linmin:  2.720e-04  t[s]:   5410.02
	FillingsUpdate:  mu: +0.103040092  nElectrons: 341.000000  magneticMoment: [ Abs: 39.00049  Tot: +0.00000 ]
	SubspaceRotationAdjust: set factor to 0.11
ElecMinimize: Iter:  61  F: -1895.597937259986793  |grad|_K:  8.583e-06  alpha:  4.633e-01  linmin:  1.460e-03  t[s]:   5487.80
	FillingsUpdate:  mu: +0.101913529  nElectrons: 341.000000  magneticMoment: [ Abs: 39.37258  Tot: -0.00000 ]
	SubspaceRotationAdjust: set factor to 0.122
ElecMinimize: Iter:  62  F: -1895.602820224519519  |grad|_K:  9.316e-06  alpha:  4.302e-01  linmin: -1.789e-04  t[s]:   5565.74
	FillingsUpdate:  mu: +0.102693137  nElectrons: 341.000000  magneticMoment: [ Abs: 39.67338  Tot: -0.00000 ]
	SubspaceRotationAdjust: set factor to 0.153
	SubspaceRotationAdjust: resetting CG because factor has changed by 8.98849
ElecMinimize: 	State modified externally: resetting search direction.
ElecMinimize: Iter:  63  F: -1895.608857201862975  |grad|_K:  9.598e-06  alpha:  3.907e-01
	FillingsUpdate:  mu: +0.102759187  nElectrons: 341.000000  magneticMoment: [ Abs: 39.69813  Tot: -0.00000 ]
	SubspaceRotationAdjust: set factor to 0.19
ElecMinimize: Iter:  64  F: -1895.613336157099639  |grad|_K:  8.109e-06  alpha:  2.782e-01  linmin: -1.062e-05  t[s]:   5735.60
	FillingsUpdate:  mu: +0.105311847  nElectrons: 341.000000  magneticMoment: [ Abs: 39.71106  Tot: -0.00000 ]
	SubspaceRotationAdjust: set factor to 0.165
ElecMinimize: Iter:  65  F: -1895.618062390355817  |grad|_K:  9.496e-06  alpha:  4.100e-01  linmin: -1.329e-04  t[s]:   5814.96
	FillingsUpdate:  mu: +0.103791115  nElectrons: 341.000000  magneticMoment: [ Abs: 39.77657  Tot: +0.00000 ]
	SubspaceRotationAdjust: set factor to 0.132
ElecMinimize: Iter:  66  F: -1895.621904189830730  |grad|_K:  9.146e-06  alpha:  2.383e-01  linmin: -8.055e-05  t[s]:   5891.56
	FillingsUpdate:  mu: +0.100209051  nElectrons: 341.000000  magneticMoment: [ Abs: 39.84393  Tot: -0.00000 ]
	SubspaceRotationAdjust: set factor to 0.139
ElecMinimize: Iter:  67  F: -1895.626710945799005  |grad|_K:  8.080e-06  alpha:  3.277e-01  linmin:  1.007e-04  t[s]:   5969.42
	FillingsUpdate:  mu: +0.100488294  nElectrons: 341.000000  magneticMoment: [ Abs: 39.94244  Tot: +0.00000 ]
	SubspaceRotationAdjust: set factor to 0.172
ElecMinimize: Iter:  68  F: -1895.631274764238242  |grad|_K:  7.881e-06  alpha:  4.056e-01  linmin:  1.131e-04  t[s]:   6048.36
	FillingsUpdate:  mu: +0.100315360  nElectrons: 341.000000  magneticMoment: [ Abs: 40.02030  Tot: -0.00000 ]
	SubspaceRotationAdjust: set factor to 0.149
ElecMinimize: Iter:  69  F: -1895.634768722309900  |grad|_K:  8.782e-06  alpha:  3.280e-01  linmin: -7.030e-05  t[s]:   6124.25
	FillingsUpdate:  mu: +0.100556400  nElectrons: 341.000000  magneticMoment: [ Abs: 40.07045  Tot: +0.00000 ]
	SubspaceRotationAdjust: set factor to 0.125
ElecMinimize: Iter:  70  F: -1895.637935638409317  |grad|_K:  6.860e-06  alpha:  2.393e-01  linmin: -1.053e-04  t[s]:   6201.01
	FillingsUpdate:  mu: +0.099287228  nElectrons: 341.000000  magneticMoment: [ Abs: 40.12048  Tot: +0.00000 ]
	SubspaceRotationAdjust: set factor to 0.143
ElecMinimize: Iter:  71  F: -1895.641107594437699  |grad|_K:  5.984e-06  alpha:  3.799e-01  linmin: -4.880e-05  t[s]:   6279.60
	FillingsUpdate:  mu: +0.099638731  nElectrons: 341.000000  magneticMoment: [ Abs: 40.17263  Tot: -0.00000 ]
	SubspaceRotationAdjust: set factor to 0.161
ElecMinimize: Iter:  72  F: -1895.643427871055110  |grad|_K:  5.208e-06  alpha:  3.686e-01  linmin: -3.610e-05  t[s]:   6356.73
	FillingsUpdate:  mu: +0.101859449  nElectrons: 341.000000  magneticMoment: [ Abs: 40.23353  Tot: +0.00000 ]
	SubspaceRotationAdjust: set factor to 0.164
ElecMinimize: Iter:  73  F: -1895.645130944363927  |grad|_K:  4.504e-06  alpha:  3.585e-01  linmin: -4.855e-04  t[s]:   6432.56
	FillingsUpdate:  mu: +0.101445235  nElectrons: 341.000000  magneticMoment: [ Abs: 40.28185  Tot: -0.00000 ]
	SubspaceRotationAdjust: set factor to 0.155
ElecMinimize: Iter:  74  F: -1895.646431768345565  |grad|_K:  4.504e-06  alpha:  3.572e-01  linmin:  2.943e-04  t[s]:   6509.98
	FillingsUpdate:  mu: +0.101696297  nElectrons: 341.000000  magneticMoment: [ Abs: 40.35772  Tot: -0.00000 ]
	SubspaceRotationAdjust: set factor to 0.198
ElecMinimize: Iter:  75  F: -1895.647747333593315  |grad|_K:  3.779e-06  alpha:  3.748e-01  linmin: -7.358e-04  t[s]:   6586.10
	FillingsUpdate:  mu: +0.101931434  nElectrons: 341.000000  magneticMoment: [ Abs: 40.43962  Tot: -0.00000 ]
	SubspaceRotationAdjust: set factor to 0.233
ElecMinimize: Iter:  76  F: -1895.648854979179077  |grad|_K:  3.831e-06  alpha:  4.289e-01  linmin:  1.814e-04  t[s]:   6661.26
	FillingsUpdate:  mu: +0.103347478  nElectrons: 341.000000  magneticMoment: [ Abs: 40.50533  Tot: +0.00000 ]
	SubspaceRotationAdjust: set factor to 0.193
ElecMinimize: Iter:  77  F: -1895.649699700111796  |grad|_K:  4.342e-06  alpha:  3.204e-01  linmin:  2.023e-04  t[s]:   6738.57
	FillingsUpdate:  mu: +0.102795152  nElectrons: 341.000000  magneticMoment: [ Abs: 40.55337  Tot: -0.00000 ]
	SubspaceRotationAdjust: set factor to 0.237
ElecMinimize: Iter:  78  F: -1895.650464602762668  |grad|_K:  3.644e-06  alpha:  2.457e-01  linmin: -2.933e-04  t[s]:   6814.18
	FillingsUpdate:  mu: +0.103297636  nElectrons: 341.000000  magneticMoment: [ Abs: 40.59615  Tot: -0.00000 ]
	SubspaceRotationAdjust: set factor to 0.283
ElecMinimize: Iter:  79  F: -1895.651276805528141  |grad|_K:  3.296e-06  alpha:  3.337e-01  linmin: -2.764e-04  t[s]:   6891.00
	FillingsUpdate:  mu: +0.103607164  nElectrons: 341.000000  magneticMoment: [ Abs: 40.63487  Tot: +0.00000 ]
	SubspaceRotationAdjust: set factor to 0.21
ElecMinimize: Iter:  80  F: -1895.651832192247639  |grad|_K:  4.013e-06  alpha:  2.713e-01  linmin:  3.222e-04  t[s]:   6968.47
	FillingsUpdate:  mu: +0.102768220  nElectrons: 341.000000  magneticMoment: [ Abs: 40.64885  Tot: -0.00000 ]
	SubspaceRotationAdjust: set factor to 0.291
ElecMinimize: Iter:  81  F: -1895.652279316780550  |grad|_K:  3.074e-06  alpha:  1.679e-01  linmin: -4.411e-05  t[s]:   7045.21
	FillingsUpdate:  mu: +0.101661395  nElectrons: 341.000000  magneticMoment: [ Abs: 40.67016  Tot: +0.00000 ]
	SubspaceRotationAdjust: set factor to 0.223
ElecMinimize: Iter:  82  F: -1895.652751470870726  |grad|_K:  3.590e-06  alpha:  2.775e-01  linmin: -3.211e-04  t[s]:   7120.55
	FillingsUpdate:  mu: +0.101984749  nElectrons: 341.000000  magneticMoment: [ Abs: 40.70594  Tot: +0.00000 ]
	SubspaceRotationAdjust: set factor to 0.223
ElecMinimize: Iter:  83  F: -1895.653048799393446  |grad|_K:  2.938e-06  alpha:  1.155e-01  linmin: -4.677e-04  t[s]:   7197.71
	FillingsUpdate:  mu: +0.103819237  nElectrons: 341.000000  magneticMoment: [ Abs: 40.76427  Tot: +0.00000 ]
	SubspaceRotationAdjust: set factor to 0.215
ElecMinimize: Iter:  84  F: -1895.653534692830362  |grad|_K:  3.402e-06  alpha:  2.958e-01  linmin: -2.399e-04  t[s]:   7274.37
	FillingsUpdate:  mu: +0.102566082  nElectrons: 341.000000  magneticMoment: [ Abs: 40.77856  Tot: -0.00000 ]
	SubspaceRotationAdjust: set factor to 0.186
ElecMinimize: Iter:  85  F: -1895.653845584475903  |grad|_K:  3.152e-06  alpha:  1.452e-01  linmin: -8.656e-05  t[s]:   7350.54
	FillingsUpdate:  mu: +0.102630555  nElectrons: 341.000000  magneticMoment: [ Abs: 40.80566  Tot: -0.00000 ]
	SubspaceRotationAdjust: set factor to 0.24
ElecMinimize: Iter:  86  F: -1895.654244436819454  |grad|_K:  2.757e-06  alpha:  2.307e-01  linmin:  3.063e-04  t[s]:   7427.26
	FillingsUpdate:  mu: +0.103112426  nElectrons: 341.000000  magneticMoment: [ Abs: 40.85073  Tot: +0.00000 ]
	SubspaceRotationAdjust: set factor to 0.187
ElecMinimize: Iter:  87  F: -1895.654489927964732  |grad|_K:  3.448e-06  alpha:  1.928e-01  linmin:  5.904e-05  t[s]:   7503.53
	FillingsUpdate:  mu: +0.104564426  nElectrons: 341.000000  magneticMoment: [ Abs: 40.90805  Tot: +0.00000 ]
	SubspaceRotationAdjust: set factor to 0.251
ElecMinimize: Iter:  88  F: -1895.654830620533858  |grad|_K:  2.558e-06  alpha:  1.663e-01  linmin: -8.301e-05  t[s]:   7581.09
	FillingsUpdate:  mu: +0.104269804  nElectrons: 341.000000  magneticMoment: [ Abs: 40.94105  Tot: -0.00000 ]
	SubspaceRotationAdjust: set factor to 0.189
ElecMinimize: Iter:  89  F: -1895.655138767130211  |grad|_K:  3.668e-06  alpha:  2.668e-01  linmin:  9.320e-05  t[s]:   7655.48
	FillingsUpdate:  mu: +0.104104559  nElectrons: 341.000000  magneticMoment: [ Abs: 40.99863  Tot: +0.00000 ]
	SubspaceRotationAdjust: set factor to 0.184
ElecMinimize: Iter:  90  F: -1895.655480136791311  |grad|_K:  3.148e-06  alpha:  1.635e-01  linmin:  5.664e-05  t[s]:   7732.05
	FillingsUpdate:  mu: +0.103365388  nElectrons: 341.000000  magneticMoment: [ Abs: 41.14694  Tot: +0.00000 ]
	SubspaceRotationAdjust: set factor to 0.202
ElecMinimize: Iter:  91  F: -1895.656058451328136  |grad|_K:  4.158e-06  alpha:  4.651e-01  linmin:  1.403e-03  t[s]:   7811.23
	FillingsUpdate:  mu: +0.103514040  nElectrons: 341.000000  magneticMoment: [ Abs: 41.18638  Tot: +0.00000 ]
	SubspaceRotationAdjust: set factor to 0.231
ElecMinimize: Iter:  92  F: -1895.656233626564472  |grad|_K:  4.280e-06  alpha:  8.503e-02  linmin: -2.461e-04  t[s]:   7890.13
	FillingsUpdate:  mu: +0.102663603  nElectrons: 341.000000  magneticMoment: [ Abs: 41.24471  Tot: +0.00000 ]
	SubspaceRotationAdjust: set factor to 0.304
ElecMinimize: Iter:  93  F: -1895.656634764296314  |grad|_K:  3.676e-06  alpha:  1.176e-01  linmin:  5.999e-05  t[s]:   7966.00
	FillingsUpdate:  mu: +0.102437285  nElectrons: 341.000000  magneticMoment: [ Abs: 41.28886  Tot: +0.00000 ]
	SubspaceRotationAdjust: set factor to 0.348
ElecMinimize: Iter:  94  F: -1895.656873135174010  |grad|_K:  3.920e-06  alpha:  1.017e-01  linmin:  5.096e-05  t[s]:   8041.70
	FillingsUpdate:  mu: +0.103487321  nElectrons: 341.000000  magneticMoment: [ Abs: 41.34704  Tot: +0.00000 ]
	SubspaceRotationAdjust: set factor to 0.364
ElecMinimize: Iter:  95  F: -1895.657169170614452  |grad|_K:  4.320e-06  alpha:  1.113e-01  linmin: -1.107e-06  t[s]:   8118.49
	FillingsUpdate:  mu: +0.104264220  nElectrons: 341.000000  magneticMoment: [ Abs: 41.39064  Tot: +0.00000 ]
	SubspaceRotationAdjust: set factor to 0.445
ElecMinimize: Iter:  96  F: -1895.657436181624234  |grad|_K:  3.925e-06  alpha:  8.425e-02  linmin: -8.756e-05  t[s]:   8195.45
	FillingsUpdate:  mu: +0.103094974  nElectrons: 341.000000  magneticMoment: [ Abs: 41.43614  Tot: +0.00000 ]
	SubspaceRotationAdjust: set factor to 0.551
ElecMinimize: Iter:  97  F: -1895.657804850337016  |grad|_K:  4.184e-06  alpha:  1.360e-01  linmin:  2.953e-04  t[s]:   8273.36
	FillingsUpdate:  mu: +0.102242486  nElectrons: 341.000000  magneticMoment: [ Abs: 41.45010  Tot: +0.00000 ]
	SubspaceRotationAdjust: set factor to 0.541
ElecMinimize: Iter:  98  F: -1895.657949843247479  |grad|_K:  4.554e-06  alpha:  3.219e-02  linmin: -2.655e-03  t[s]:   8349.33
	FillingsUpdate:  mu: +0.102131087  nElectrons: 341.000000  magneticMoment: [ Abs: 41.48177  Tot: -0.00000 ]
	SubspaceRotationAdjust: set factor to 0.317
ElecMinimize: Iter:  99  F: -1895.658204417240768  |grad|_K:  8.291e-06  alpha:  6.613e-02  linmin:  4.521e-03  t[s]:   8427.18
	FillingsUpdate:  mu: +0.102161857  nElectrons: 341.000000  magneticMoment: [ Abs: 41.48424  Tot: +0.00000 ]
	SubspaceRotationAdjust: set factor to 0.2
ElecMinimize: Iter: 100  F: -1895.658205491012041  |grad|_K:  7.031e-06  alpha:  2.351e-03  linmin:  5.516e-04  t[s]:   8506.03
ElecMinimize: 	Predicted alpha/alphaT>3.000000, increasing alphaT to 7.054334e-03.
	FillingsUpdate:  mu: +0.101654911  nElectrons: 341.000000  magneticMoment: [ Abs: 41.49755  Tot: -0.00000 ]
	SubspaceRotationAdjust: set factor to 0.14
ElecMinimize: Iter: 101  F: -1895.658336439160166  |grad|_K:  6.419e-06  alpha:  1.577e-02  linmin: -6.217e-04  t[s]:   8611.67
	FillingsUpdate:  mu: +0.100327309  nElectrons: 341.000000  magneticMoment: [ Abs: 41.53309  Tot: -0.00000 ]
	SubspaceRotationAdjust: set factor to 0.155
ElecMinimize: Iter: 102  F: -1895.658702180545788  |grad|_K:  5.495e-06  alpha:  4.037e-02  linmin: -6.902e-04  t[s]:   8693.22
	FillingsUpdate:  mu: +0.100432240  nElectrons: 341.000000  magneticMoment: [ Abs: 41.57158  Tot: -0.00000 ]
	SubspaceRotationAdjust: set factor to 0.206
ElecMinimize: Iter: 103  F: -1895.659008133614634  |grad|_K:  5.226e-06  alpha:  4.971e-02  linmin:  7.611e-05  t[s]:   8771.29
	FillingsUpdate:  mu: +0.101826107  nElectrons: 341.000000  magneticMoment: [ Abs: 41.59938  Tot: +0.00000 ]
	SubspaceRotationAdjust: set factor to 0.253
ElecMinimize: Iter: 104  F: -1895.659192543053450  |grad|_K:  5.147e-06  alpha:  3.949e-02  linmin: -1.265e-05  t[s]:   8850.87
	FillingsUpdate:  mu: +0.103927894  nElectrons: 341.000000  magneticMoment: [ Abs: 41.62477  Tot: -0.00000 ]
	SubspaceRotationAdjust: set factor to 0.328
ElecMinimize: Iter: 105  F: -1895.659367905254157  |grad|_K:  5.086e-06  alpha:  3.772e-02  linmin:  1.715e-08  t[s]:   8929.23
	FillingsUpdate:  mu: +0.105336602  nElectrons: 341.000000  magneticMoment: [ Abs: 41.64791  Tot: -0.00000 ]
	SubspaceRotationAdjust: set factor to 0.294
ElecMinimize: Iter: 106  F: -1895.659533438682274  |grad|_K:  5.331e-06  alpha:  3.660e-02  linmin: -4.826e-06  t[s]:   9007.55
	FillingsUpdate:  mu: +0.105868948  nElectrons: 341.000000  magneticMoment: [ Abs: 41.66943  Tot: -0.00000 ]
	SubspaceRotationAdjust: set factor to 0.264
ElecMinimize: Iter: 107  F: -1895.659702350262933  |grad|_K:  4.970e-06  alpha:  3.401e-02  linmin: -4.433e-05  t[s]:   9085.90
	FillingsUpdate:  mu: +0.105160765  nElectrons: 341.000000  magneticMoment: [ Abs: 41.68758  Tot: +0.00000 ]
	SubspaceRotationAdjust: set factor to 0.324
ElecMinimize: Iter: 108  F: -1895.659865796749045  |grad|_K:  4.377e-06  alpha:  3.739e-02  linmin: -7.872e-05  t[s]:   9161.61
	FillingsUpdate:  mu: +0.103789233  nElectrons: 341.000000  magneticMoment: [ Abs: 41.70179  Tot: +0.00000 ]
	SubspaceRotationAdjust: set factor to 0.428
ElecMinimize: Iter: 109  F: -1895.660009064502219  |grad|_K:  3.990e-06  alpha:  4.194e-02  linmin: -6.006e-05  t[s]:   9236.53
	FillingsUpdate:  mu: +0.102769459  nElectrons: 341.000000  magneticMoment: [ Abs: 41.71297  Tot: -0.00000 ]
	SubspaceRotationAdjust: set factor to 0.5
ElecMinimize: Iter: 110  F: -1895.660129410598984  |grad|_K:  3.880e-06  alpha:  4.264e-02  linmin: -3.015e-05  t[s]:   9316.09
	FillingsUpdate:  mu: +0.102581596  nElectrons: 341.000000  magneticMoment: [ Abs: 41.72319  Tot: +0.00000 ]
	SubspaceRotationAdjust: set factor to 0.544
ElecMinimize: Iter: 111  F: -1895.660250424883770  |grad|_K:  4.190e-06  alpha:  4.566e-02  linmin: -1.337e-05  t[s]:   9395.90
	FillingsUpdate:  mu: +0.102561440  nElectrons: 341.000000  magneticMoment: [ Abs: 41.73217  Tot: -0.00000 ]
	SubspaceRotationAdjust: set factor to 0.491
ElecMinimize: Iter: 112  F: -1895.660388754984979  |grad|_K:  4.503e-06  alpha:  4.492e-02  linmin: -4.459e-06  t[s]:   9474.51
	FillingsUpdate:  mu: +0.102659160  nElectrons: 341.000000  magneticMoment: [ Abs: 41.73742  Tot: -0.00000 ]
	SubspaceRotationAdjust: set factor to 0.591
ElecMinimize: Iter: 113  F: -1895.660528561772708  |grad|_K:  4.235e-06  alpha:  3.938e-02  linmin:  2.851e-06  t[s]:   9551.27
	FillingsUpdate:  mu: +0.103053644  nElectrons: 341.000000  magneticMoment: [ Abs: 41.74032  Tot: +0.00000 ]
	SubspaceRotationAdjust: set factor to 0.768
ElecMinimize: Iter: 114  F: -1895.660652105653526  |grad|_K:  4.126e-06  alpha:  3.942e-02  linmin:  1.195e-06  t[s]:   9628.30
	FillingsUpdate:  mu: +0.104000679  nElectrons: 341.000000  magneticMoment: [ Abs: 41.74473  Tot: +0.00000 ]
	SubspaceRotationAdjust: set factor to 0.926
ElecMinimize: Iter: 115  F: -1895.660768046366684  |grad|_K:  4.444e-06  alpha:  3.895e-02  linmin: -2.440e-06  t[s]:   9705.04
	FillingsUpdate:  mu: +0.104962543  nElectrons: 341.000000  magneticMoment: [ Abs: 41.75725  Tot: +0.00000 ]
	SubspaceRotationAdjust: set factor to 0.821
ElecMinimize: Iter: 116  F: -1895.660904105274540  |grad|_K:  5.138e-06  alpha:  3.937e-02  linmin:  1.592e-05  t[s]:   9780.47
	FillingsUpdate:  mu: +0.105055824  nElectrons: 341.000000  magneticMoment: [ Abs: 41.77657  Tot: +0.00000 ]
	SubspaceRotationAdjust: set factor to 0.85
ElecMinimize: Iter: 117  F: -1895.661042781137667  |grad|_K:  4.845e-06  alpha:  3.006e-02  linmin:  5.166e-06  t[s]:   9857.92
	FillingsUpdate:  mu: +0.104023148  nElectrons: 341.000000  magneticMoment: [ Abs: 41.79187  Tot: -0.00000 ]
	SubspaceRotationAdjust: set factor to 1.19
	SubspaceRotationAdjust: resetting CG because factor has changed by 7.82398
ElecMinimize: 	State modified externally: resetting search direction.
ElecMinimize: Iter: 118  F: -1895.661161437417832  |grad|_K:  4.826e-06  alpha:  2.896e-02
ElecMinimize: 	Predicted alpha/alphaT>3.000000, increasing alphaT to 8.688994e-02.
	FillingsUpdate:  mu: +0.104433836  nElectrons: 341.000000  magneticMoment: [ Abs: 41.77090  Tot: +0.00000 ]
	SubspaceRotationAdjust: set factor to 0.683
ElecMinimize: Iter: 119  F: -1895.661549143645743  |grad|_K:  7.293e-06  alpha:  9.443e-02  linmin: -1.172e-03  t[s]:  10058.94
	FillingsUpdate:  mu: +0.102905131  nElectrons: 341.000000  magneticMoment: [ Abs: 41.79488  Tot: -0.00000 ]
	SubspaceRotationAdjust: set factor to 0.432
ElecMinimize: Iter: 120  F: -1895.661978135048003  |grad|_K:  4.214e-06  alpha:  4.041e-02  linmin: -1.217e-03  t[s]:  10135.97
ElecMinimize: 	Predicted alpha/alphaT>3.000000, increasing alphaT to 1.212379e-01.
	FillingsUpdate:  mu: +0.104655072  nElectrons: 341.000000  magneticMoment: [ Abs: 41.79465  Tot: +0.00000 ]
	SubspaceRotationAdjust: set factor to 0.426
ElecMinimize: Iter: 121  F: -1895.662416950589432  |grad|_K:  2.781e-06  alpha:  1.337e-01  linmin: -1.347e-04  t[s]:  10240.02
	FillingsUpdate:  mu: +0.105025016  nElectrons: 341.000000  magneticMoment: [ Abs: 41.78533  Tot: +0.00000 ]
	SubspaceRotationAdjust: set factor to 0.268
ElecMinimize: Iter: 122  F: -1895.662722967821537  |grad|_K:  3.452e-06  alpha:  2.198e-01  linmin: -7.153e-04  t[s]:  10313.91
	FillingsUpdate:  mu: +0.103735112  nElectrons: 341.000000  magneticMoment: [ Abs: 41.79981  Tot: +0.00000 ]
	SubspaceRotationAdjust: set factor to 0.186
ElecMinimize: Iter: 123  F: -1895.662912186936182  |grad|_K:  1.962e-06  alpha:  8.254e-02  linmin: -4.860e-04  t[s]:  10391.48
ElecMinimize: 	Predicted alpha/alphaT>3.000000, increasing alphaT to 2.476057e-01.
	FillingsUpdate:  mu: +0.103143193  nElectrons: 341.000000  magneticMoment: [ Abs: 41.79407  Tot: -0.00000 ]
	SubspaceRotationAdjust: set factor to 0.188
ElecMinimize: Iter: 124  F: -1895.663100204964849  |grad|_K:  1.775e-06  alpha:  2.692e-01  linmin:  5.616e-05  t[s]:  10495.82
	FillingsUpdate:  mu: +0.103584961  nElectrons: 341.000000  magneticMoment: [ Abs: 41.77681  Tot: -0.00000 ]
	SubspaceRotationAdjust: set factor to 0.158
	SubspaceRotationAdjust: resetting CG because factor has changed by 0.132338
ElecMinimize: 	State modified externally: resetting search direction.
ElecMinimize: Iter: 125  F: -1895.663218504608039  |grad|_K:  1.530e-06  alpha:  2.171e-01
	FillingsUpdate:  mu: +0.103398728  nElectrons: 341.000000  magneticMoment: [ Abs: 41.78659  Tot: +0.00000 ]
	SubspaceRotationAdjust: set factor to 0.137
ElecMinimize: Iter: 126  F: -1895.663286149344685  |grad|_K:  8.158e-07  alpha:  1.649e-01  linmin:  1.877e-04  t[s]:  10663.36
	FillingsUpdate:  mu: +0.103885376  nElectrons: 341.000000  magneticMoment: [ Abs: 41.78480  Tot: +0.00000 ]
	SubspaceRotationAdjust: set factor to 0.124
ElecMinimize: Iter: 127  F: -1895.663322333482483  |grad|_K:  5.875e-07  alpha:  3.107e-01  linmin: -2.365e-04  t[s]:  10742.33
	FillingsUpdate:  mu: +0.103944387  nElectrons: 341.000000  magneticMoment: [ Abs: 41.78882  Tot: -0.00000 ]
	SubspaceRotationAdjust: set factor to 0.144
ElecMinimize: Iter: 128  F: -1895.663353808794000  |grad|_K:  6.358e-07  alpha:  5.195e-01  linmin:  3.737e-06  t[s]:  10819.42
	FillingsUpdate:  mu: +0.103818024  nElectrons: 341.000000  magneticMoment: [ Abs: 41.79017  Tot: -0.00000 ]
	SubspaceRotationAdjust: set factor to 0.174
ElecMinimize: Iter: 129  F: -1895.663378524463496  |grad|_K:  6.031e-07  alpha:  3.497e-01  linmin:  6.266e-07  t[s]:  10894.38
	FillingsUpdate:  mu: +0.103721255  nElectrons: 341.000000  magneticMoment: [ Abs: 41.79113  Tot: -0.00000 ]
	SubspaceRotationAdjust: set factor to 0.187
ElecMinimize: Iter: 130  F: -1895.663415470530254  |grad|_K:  7.885e-07  alpha:  5.799e-01  linmin: -7.398e-05  t[s]:  10970.70
	FillingsUpdate:  mu: +0.103864652  nElectrons: 341.000000  magneticMoment: [ Abs: 41.80299  Tot: +0.00000 ]
	SubspaceRotationAdjust: set factor to 0.166
ElecMinimize: Iter: 131  F: -1895.663459666756125  |grad|_K:  9.079e-07  alpha:  4.013e-01  linmin:  2.321e-05  t[s]:  11048.34
	FillingsUpdate:  mu: +0.104247503  nElectrons: 341.000000  magneticMoment: [ Abs: 41.80623  Tot: -0.00000 ]
	SubspaceRotationAdjust: set factor to 0.138
ElecMinimize: Iter: 132  F: -1895.663499823999928  |grad|_K:  7.865e-07  alpha:  2.818e-01  linmin: -3.696e-05  t[s]:  11122.12
	FillingsUpdate:  mu: +0.104309497  nElectrons: 341.000000  magneticMoment: [ Abs: 41.81972  Tot: +0.00000 ]
	SubspaceRotationAdjust: set factor to 0.148
ElecMinimize: Iter: 133  F: -1895.663544815809018  |grad|_K:  7.731e-07  alpha:  4.172e-01  linmin:  1.916e-04  t[s]:  11197.43
	FillingsUpdate:  mu: +0.104171620  nElectrons: 341.000000  magneticMoment: [ Abs: 41.83392  Tot: +0.00000 ]
	SubspaceRotationAdjust: set factor to 0.164
ElecMinimize: Iter: 134  F: -1895.663596150823423  |grad|_K:  8.832e-07  alpha:  4.994e-01  linmin:  1.488e-04  t[s]:  11274.81
	FillingsUpdate:  mu: +0.104225475  nElectrons: 341.000000  magneticMoment: [ Abs: 41.84157  Tot: +0.00000 ]
	SubspaceRotationAdjust: set factor to 0.147
ElecMinimize: Iter: 135  F: -1895.663654429588860  |grad|_K:  9.832e-07  alpha:  4.363e-01  linmin: -2.368e-04  t[s]:  11351.47
	FillingsUpdate:  mu: +0.104070866  nElectrons: 341.000000  magneticMoment: [ Abs: 41.86537  Tot: +0.00000 ]
	SubspaceRotationAdjust: set factor to 0.127
ElecMinimize: Iter: 136  F: -1895.663717260255908  |grad|_K:  1.080e-06  alpha:  3.532e-01  linmin:  3.290e-04  t[s]:  11427.73
	FillingsUpdate:  mu: +0.104145387  nElectrons: 341.000000  magneticMoment: [ Abs: 41.89032  Tot: +0.00000 ]
	SubspaceRotationAdjust: set factor to 0.174
ElecMinimize: Iter: 137  F: -1895.663795639299678  |grad|_K:  1.134e-06  alpha:  3.997e-01  linmin:  3.121e-04  t[s]:  11502.63
	FillingsUpdate:  mu: +0.104372322  nElectrons: 341.000000  magneticMoment: [ Abs: 41.90662  Tot: +0.00000 ]
	SubspaceRotationAdjust: set factor to 0.173
ElecMinimize: Iter: 138  F: -1895.663856631361568  |grad|_K:  1.029e-06  alpha:  2.870e-01  linmin: -1.144e-04  t[s]:  11580.51
	FillingsUpdate:  mu: +0.104362047  nElectrons: 341.000000  magneticMoment: [ Abs: 41.93057  Tot: +0.00000 ]
	SubspaceRotationAdjust: set factor to 0.23
ElecMinimize: Iter: 139  F: -1895.663911681835316  |grad|_K:  9.169e-07  alpha:  2.946e-01  linmin: -6.164e-05  t[s]:  11657.68
	FillingsUpdate:  mu: +0.104563477  nElectrons: 341.000000  magneticMoment: [ Abs: 41.95279  Tot: -0.00000 ]
	SubspaceRotationAdjust: set factor to 0.289
ElecMinimize: Iter: 140  F: -1895.663966444415792  |grad|_K:  9.508e-07  alpha:  3.670e-01  linmin: -3.727e-04  t[s]:  11733.71
	FillingsUpdate:  mu: +0.104838146  nElectrons: 341.000000  magneticMoment: [ Abs: 41.96653  Tot: -0.00000 ]
	SubspaceRotationAdjust: set factor to 0.27
ElecMinimize: Iter: 141  F: -1895.664019065659886  |grad|_K:  1.100e-06  alpha:  3.248e-01  linmin: -2.469e-04  t[s]:  11808.64
	FillingsUpdate:  mu: +0.104675846  nElectrons: 341.000000  magneticMoment: [ Abs: 41.98822  Tot: +0.00000 ]
	SubspaceRotationAdjust: set factor to 0.249
ElecMinimize: Iter: 142  F: -1895.664058844983856  |grad|_K:  1.121e-06  alpha:  1.725e-01  linmin: -3.086e-04  t[s]:  11885.80
	FillingsUpdate:  mu: +0.104746483  nElectrons: 341.000000  magneticMoment: [ Abs: 42.00893  Tot: -0.00000 ]
	SubspaceRotationAdjust: set factor to 0.335
ElecMinimize: Iter: 143  F: -1895.664124480306555  |grad|_K:  1.141e-06  alpha:  2.878e-01  linmin: -1.269e-04  t[s]:  11962.79
	FillingsUpdate:  mu: +0.105096844  nElectrons: 341.000000  magneticMoment: [ Abs: 42.01584  Tot: +0.00000 ]
	SubspaceRotationAdjust: set factor to 0.288
ElecMinimize: Iter: 144  F: -1895.664178008345061  |grad|_K:  1.382e-06  alpha:  2.357e-01  linmin: -1.783e-04  t[s]:  12036.89
	FillingsUpdate:  mu: +0.104801728  nElectrons: 341.000000  magneticMoment: [ Abs: 42.03773  Tot: +0.00000 ]
	SubspaceRotationAdjust: set factor to 0.245
ElecMinimize: Iter: 145  F: -1895.664232045457766  |grad|_K:  1.131e-06  alpha:  1.537e-01  linmin: -5.888e-06  t[s]:  12113.13
	FillingsUpdate:  mu: +0.104727064  nElectrons: 341.000000  magneticMoment: [ Abs: 42.04597  Tot: +0.00000 ]
	SubspaceRotationAdjust: set factor to 0.313
ElecMinimize: Iter: 146  F: -1895.664297017425270  |grad|_K:  9.745e-07  alpha:  2.869e-01  linmin: -1.301e-04  t[s]:  12189.26
	FillingsUpdate:  mu: +0.104910584  nElectrons: 341.000000  magneticMoment: [ Abs: 42.04989  Tot: +0.00000 ]
	SubspaceRotationAdjust: set factor to 0.327
ElecMinimize: Iter: 147  F: -1895.664354369514967  |grad|_K:  1.071e-06  alpha:  3.378e-01  linmin: -2.749e-05  t[s]:  12264.56
	FillingsUpdate:  mu: +0.104943865  nElectrons: 341.000000  magneticMoment: [ Abs: 42.06352  Tot: -0.00000 ]
	SubspaceRotationAdjust: set factor to 0.286
ElecMinimize: Iter: 148  F: -1895.664388707085436  |grad|_K:  1.156e-06  alpha:  1.706e-01  linmin:  5.796e-06  t[s]:  12340.46
	FillingsUpdate:  mu: +0.105006069  nElectrons: 341.000000  magneticMoment: [ Abs: 42.06278  Tot: +0.00000 ]
	SubspaceRotationAdjust: set factor to 0.314
ElecMinimize: Iter: 149  F: -1895.664438631175244  |grad|_K:  9.287e-07  alpha:  2.141e-01  linmin:  9.089e-06  t[s]:  12418.36
	FillingsUpdate:  mu: +0.104800839  nElectrons: 341.000000  magneticMoment: [ Abs: 42.06349  Tot: -0.00000 ]
	SubspaceRotationAdjust: set factor to 0.406
ElecMinimize: Iter: 150  F: -1895.664491613803193  |grad|_K:  9.136e-07  alpha:  3.524e-01  linmin:  3.203e-05  t[s]:  12496.51
	FillingsUpdate:  mu: +0.104747675  nElectrons: 341.000000  magneticMoment: [ Abs: 42.06977  Tot: -0.00000 ]
	SubspaceRotationAdjust: set factor to 0.298
ElecMinimize: Iter: 151  F: -1895.664530644075285  |grad|_K:  1.170e-06  alpha:  2.701e-01  linmin: -3.393e-05  t[s]:  12572.25
	FillingsUpdate:  mu: +0.104706496  nElectrons: 341.000000  magneticMoment: [ Abs: 42.06152  Tot: -0.00000 ]
	SubspaceRotationAdjust: set factor to 0.265
ElecMinimize: Iter: 152  F: -1895.664558644703220  |grad|_K:  9.576e-07  alpha:  1.147e-01  linmin: -8.663e-05  t[s]:  12645.22
	FillingsUpdate:  mu: +0.104818519  nElectrons: 341.000000  magneticMoment: [ Abs: 42.06204  Tot: +0.00000 ]
	SubspaceRotationAdjust: set factor to 0.377
ElecMinimize: Iter: 153  F: -1895.664610786148614  |grad|_K:  9.590e-07  alpha:  3.202e-01  linmin: -7.347e-05  t[s]:  12724.56
	FillingsUpdate:  mu: +0.104894753  nElectrons: 341.000000  magneticMoment: [ Abs: 42.06856  Tot: +0.00000 ]
	SubspaceRotationAdjust: set factor to 0.278
ElecMinimize: Iter: 154  F: -1895.664646762917982  |grad|_K:  1.237e-06  alpha:  2.232e-01  linmin: -1.235e-05  t[s]:  12805.34
	FillingsUpdate:  mu: +0.104778832  nElectrons: 341.000000  magneticMoment: [ Abs: 42.05732  Tot: -0.00000 ]
	SubspaceRotationAdjust: set factor to 0.27
ElecMinimize: Iter: 155  F: -1895.664684726662472  |grad|_K:  9.332e-07  alpha:  1.411e-01  linmin: -2.001e-06  t[s]:  12883.63
	FillingsUpdate:  mu: +0.104816869  nElectrons: 341.000000  magneticMoment: [ Abs: 42.05148  Tot: -0.00000 ]
	SubspaceRotationAdjust: set factor to 0.352
ElecMinimize: Iter: 156  F: -1895.664739909944956  |grad|_K:  9.578e-07  alpha:  3.628e-01  linmin:  2.140e-05  t[s]:  12960.42
	FillingsUpdate:  mu: +0.104982504  nElectrons: 341.000000  magneticMoment: [ Abs: 42.05495  Tot: +0.00000 ]
	SubspaceRotationAdjust: set factor to 0.273
ElecMinimize: Iter: 157  F: -1895.664779610239293  |grad|_K:  1.246e-06  alpha:  2.418e-01  linmin: -2.076e-05  t[s]:  13036.31
	FillingsUpdate:  mu: +0.104860073  nElectrons: 341.000000  magneticMoment: [ Abs: 42.04230  Tot: +0.00000 ]
	SubspaceRotationAdjust: set factor to 0.276
ElecMinimize: Iter: 158  F: -1895.664820325345772  |grad|_K:  9.565e-07  alpha:  1.534e-01  linmin:  2.309e-05  t[s]:  13111.64
	FillingsUpdate:  mu: +0.104723623  nElectrons: 341.000000  magneticMoment: [ Abs: 42.03488  Tot: -0.00000 ]
	SubspaceRotationAdjust: set factor to 0.354
ElecMinimize: Iter: 159  F: -1895.664871017617770  |grad|_K:  8.851e-07  alpha:  3.198e-01  linmin:  8.924e-05  t[s]:  13187.15
	FillingsUpdate:  mu: +0.104712443  nElectrons: 341.000000  magneticMoment: [ Abs: 42.03476  Tot: -0.00000 ]
	SubspaceRotationAdjust: set factor to 0.263
ElecMinimize: Iter: 160  F: -1895.664907529420361  |grad|_K:  1.136e-06  alpha:  2.674e-01  linmin:  1.153e-04  t[s]:  13264.16
	FillingsUpdate:  mu: +0.104594730  nElectrons: 341.000000  magneticMoment: [ Abs: 42.02466  Tot: -0.00000 ]
	SubspaceRotationAdjust: set factor to 0.253
ElecMinimize: Iter: 161  F: -1895.664934686544484  |grad|_K:  8.666e-07  alpha:  1.264e-01  linmin:  1.198e-04  t[s]:  13340.71
	FillingsUpdate:  mu: +0.104557270  nElectrons: 341.000000  magneticMoment: [ Abs: 42.02193  Tot: +0.00000 ]
	SubspaceRotationAdjust: set factor to 0.349
ElecMinimize: Iter: 162  F: -1895.664975908221777  |grad|_K:  8.357e-07  alpha:  3.198e-01  linmin:  1.938e-05  t[s]:  13417.35
	FillingsUpdate:  mu: +0.104618235  nElectrons: 341.000000  magneticMoment: [ Abs: 42.02647  Tot: +0.00000 ]
	SubspaceRotationAdjust: set factor to 0.257
ElecMinimize: Iter: 163  F: -1895.665005190764077  |grad|_K:  1.085e-06  alpha:  2.390e-01  linmin:  2.184e-05  t[s]:  13495.52
	FillingsUpdate:  mu: +0.104645224  nElectrons: 341.000000  magneticMoment: [ Abs: 42.02095  Tot: -0.00000 ]
	SubspaceRotationAdjust: set factor to 0.26
ElecMinimize: Iter: 164  F: -1895.665033106270130  |grad|_K:  8.508e-07  alpha:  1.370e-01  linmin:  1.930e-05  t[s]:  13571.13
	FillingsUpdate:  mu: +0.104833988  nElectrons: 341.000000  magneticMoment: [ Abs: 42.02302  Tot: +0.00000 ]
	SubspaceRotationAdjust: set factor to 0.353
ElecMinimize: Iter: 165  F: -1895.665073851681427  |grad|_K:  8.662e-07  alpha:  3.224e-01  linmin: -1.180e-05  t[s]:  13646.75
	FillingsUpdate:  mu: +0.104951567  nElectrons: 341.000000  magneticMoment: [ Abs: 42.03247  Tot: -0.00000 ]
	SubspaceRotationAdjust: set factor to 0.272
ElecMinimize: Iter: 166  F: -1895.665102600600676  |grad|_K:  1.137e-06  alpha:  2.182e-01  linmin:  4.615e-07  t[s]:  13726.05
	FillingsUpdate:  mu: +0.104991301  nElectrons: 341.000000  magneticMoment: [ Abs: 42.03217  Tot: -0.00000 ]
	SubspaceRotationAdjust: set factor to 0.282
ElecMinimize: Iter: 167  F: -1895.665137262675444  |grad|_K:  8.715e-07  alpha:  1.539e-01  linmin: -4.940e-06  t[s]:  13804.36
	FillingsUpdate:  mu: +0.104943055  nElectrons: 341.000000  magneticMoment: [ Abs: 42.04116  Tot: -0.00000 ]
	SubspaceRotationAdjust: set factor to 0.363
ElecMinimize: Iter: 168  F: -1895.665183613508134  |grad|_K:  9.038e-07  alpha:  3.489e-01  linmin:  6.318e-06  t[s]:  13882.05
	FillingsUpdate:  mu: +0.104963095  nElectrons: 341.000000  magneticMoment: [ Abs: 42.05601  Tot: -0.00000 ]
	SubspaceRotationAdjust: set factor to 0.287
ElecMinimize: Iter: 169  F: -1895.665217906184580  |grad|_K:  1.174e-06  alpha:  2.390e-01  linmin:  3.065e-06  t[s]:  13957.45
	FillingsUpdate:  mu: +0.105005137  nElectrons: 341.000000  magneticMoment: [ Abs: 42.05887  Tot: +0.00000 ]
	SubspaceRotationAdjust: set factor to 0.27
ElecMinimize: Iter: 170  F: -1895.665251226485225  |grad|_K:  9.380e-07  alpha:  1.409e-01  linmin:  2.857e-05  t[s]:  14035.00
	FillingsUpdate:  mu: +0.105089254  nElectrons: 341.000000  magneticMoment: [ Abs: 42.07339  Tot: -0.00000 ]
	SubspaceRotationAdjust: set factor to 0.357
ElecMinimize: Iter: 171  F: -1895.665297807502611  |grad|_K:  8.522e-07  alpha:  3.049e-01  linmin:  3.247e-05  t[s]:  14110.52
	FillingsUpdate:  mu: +0.105131304  nElectrons: 341.000000  magneticMoment: [ Abs: 42.08904  Tot: -0.00000 ]
	SubspaceRotationAdjust: set factor to 0.29
ElecMinimize: Iter: 172  F: -1895.665334442398034  |grad|_K:  1.114e-06  alpha:  2.896e-01  linmin:  5.437e-05  t[s]:  14184.59
	FillingsUpdate:  mu: +0.105123374  nElectrons: 341.000000  magneticMoment: [ Abs: 42.08948  Tot: +0.00000 ]
	SubspaceRotationAdjust: set factor to 0.266
ElecMinimize: Iter: 173  F: -1895.665362635834299  |grad|_K:  9.167e-07  alpha:  1.344e-01  linmin:  8.016e-05  t[s]:  14261.95
	FillingsUpdate:  mu: +0.105147925  nElectrons: 341.000000  magneticMoment: [ Abs: 42.10197  Tot: -0.00000 ]
	SubspaceRotationAdjust: set factor to 0.359
ElecMinimize: Iter: 174  F: -1895.665404499815168  |grad|_K:  8.513e-07  alpha:  2.893e-01  linmin:  3.150e-05  t[s]:  14339.99
	FillingsUpdate:  mu: +0.105332709  nElectrons: 341.000000  magneticMoment: [ Abs: 42.11614  Tot: +0.00000 ]
	SubspaceRotationAdjust: set factor to 0.288
ElecMinimize: Iter: 175  F: -1895.665440164592610  |grad|_K:  1.090e-06  alpha:  2.827e-01  linmin:  2.715e-05  t[s]:  14417.90
	FillingsUpdate:  mu: +0.105398294  nElectrons: 341.000000  magneticMoment: [ Abs: 42.11406  Tot: +0.00000 ]
	SubspaceRotationAdjust: set factor to 0.264
ElecMinimize: Iter: 176  F: -1895.665466725854230  |grad|_K:  8.975e-07  alpha:  1.291e-01  linmin:  1.383e-05  t[s]:  14492.78
	FillingsUpdate:  mu: +0.105352506  nElectrons: 341.000000  magneticMoment: [ Abs: 42.12047  Tot: -0.00000 ]
	SubspaceRotationAdjust: set factor to 0.368
ElecMinimize: Iter: 177  F: -1895.665508114397880  |grad|_K:  8.449e-07  alpha:  2.947e-01  linmin:  8.818e-06  t[s]:  14568.14
	FillingsUpdate:  mu: +0.105355854  nElectrons: 341.000000  magneticMoment: [ Abs: 42.13002  Tot: -0.00000 ]
	SubspaceRotationAdjust: set factor to 0.28
ElecMinimize: Iter: 178  F: -1895.665536274010719  |grad|_K:  1.078e-06  alpha:  2.258e-01  linmin:  1.848e-06  t[s]:  14647.12
	FillingsUpdate:  mu: +0.105340640  nElectrons: 341.000000  magneticMoment: [ Abs: 42.12577  Tot: -0.00000 ]
	SubspaceRotationAdjust: set factor to 0.277
ElecMinimize: Iter: 179  F: -1895.665564060092038  |grad|_K:  8.139e-07  alpha:  1.360e-01  linmin: -1.012e-05  t[s]:  14721.34
	FillingsUpdate:  mu: +0.105413925  nElectrons: 341.000000  magneticMoment: [ Abs: 42.12728  Tot: +0.00000 ]
	SubspaceRotationAdjust: set factor to 0.374
ElecMinimize: Iter: 180  F: -1895.665600954157071  |grad|_K:  8.204e-07  alpha:  3.180e-01  linmin:  1.987e-06  t[s]:  14798.14
	FillingsUpdate:  mu: +0.105374309  nElectrons: 341.000000  magneticMoment: [ Abs: 42.13411  Tot: -0.00000 ]
	SubspaceRotationAdjust: set factor to 0.301
ElecMinimize: Iter: 181  F: -1895.665624498390571  |grad|_K:  9.952e-07  alpha:  2.004e-01  linmin:  1.489e-06  t[s]:  14875.45
	FillingsUpdate:  mu: +0.105309521  nElectrons: 341.000000  magneticMoment: [ Abs: 42.12772  Tot: -0.00000 ]
	SubspaceRotationAdjust: set factor to 0.297
ElecMinimize: Iter: 182  F: -1895.665650195929175  |grad|_K:  7.696e-07  alpha:  1.479e-01  linmin:  9.304e-06  t[s]:  14954.97
	FillingsUpdate:  mu: +0.105275963  nElectrons: 341.000000  magneticMoment: [ Abs: 42.12758  Tot: +0.00000 ]
	SubspaceRotationAdjust: set factor to 0.389
ElecMinimize: Iter: 183  F: -1895.665683081494308  |grad|_K:  7.401e-07  alpha:  3.181e-01  linmin:  5.199e-06  t[s]:  15032.35
	FillingsUpdate:  mu: +0.105337058  nElectrons: 341.000000  magneticMoment: [ Abs: 42.13111  Tot: -0.00000 ]
	SubspaceRotationAdjust: set factor to 0.325
ElecMinimize: Iter: 184  F: -1895.665710007126336  |grad|_K:  9.132e-07  alpha:  2.815e-01  linmin: -1.031e-05  t[s]:  15106.64
	FillingsUpdate:  mu: +0.105367978  nElectrons: 341.000000  magneticMoment: [ Abs: 42.12372  Tot: +0.00000 ]
	SubspaceRotationAdjust: set factor to 0.279
ElecMinimize: Iter: 185  F: -1895.665726849078283  |grad|_K:  7.853e-07  alpha:  1.148e-01  linmin: -2.025e-05  t[s]:  15182.64
	FillingsUpdate:  mu: +0.105263728  nElectrons: 341.000000  magneticMoment: [ Abs: 42.12231  Tot: -0.00000 ]
	SubspaceRotationAdjust: set factor to 0.39
ElecMinimize: Iter: 186  F: -1895.665755180274346  |grad|_K:  6.899e-07  alpha:  2.621e-01  linmin:  6.237e-06  t[s]:  15259.48
	FillingsUpdate:  mu: +0.105278071  nElectrons: 341.000000  magneticMoment: [ Abs: 42.12480  Tot: -0.00000 ]
	SubspaceRotationAdjust: set factor to 0.291
ElecMinimize: Iter: 187  F: -1895.665775909413924  |grad|_K:  8.914e-07  alpha:  2.492e-01  linmin:  1.449e-05  t[s]:  15335.89
	FillingsUpdate:  mu: +0.105297471  nElectrons: 341.000000  magneticMoment: [ Abs: 42.11774  Tot: +0.00000 ]
	SubspaceRotationAdjust: set factor to 0.268
[...]
	SubspaceRotationAdjust: set factor to 0.151
ElecMinimize: Iter:   9  F: -1895.743810884868026  |grad|_K:  2.920e-06  alpha:  3.665e-01  linmin: -2.211e-06  t[s]: 120188.50
	FillingsUpdate:  mu: +0.109956298  nElectrons: 341.000000  magneticMoment: [ Abs: 41.58701  Tot: +0.00000 ]
	SubspaceRotationAdjust: set factor to 0.155
ElecMinimize: Iter:  10  F: -1895.744244675288655  |grad|_K:  1.853e-06  alpha:  2.909e-01  linmin:  1.097e-06  t[s]: 120263.94
	FillingsUpdate:  mu: +0.110510864  nElectrons: 341.000000  magneticMoment: [ Abs: 41.58617  Tot: +0.00000 ]
	SubspaceRotationAdjust: set factor to 0.173
ElecMinimize: Iter:  11  F: -1895.744463907531554  |grad|_K:  1.369e-06  alpha:  3.651e-01  linmin: -5.271e-06  t[s]: 120343.05
	FillingsUpdate:  mu: +0.110445705  nElectrons: 341.000000  magneticMoment: [ Abs: 41.58657  Tot: -0.00000 ]
	SubspaceRotationAdjust: set factor to 0.206
ElecMinimize: Iter:  12  F: -1895.744594257567087  |grad|_K:  1.112e-06  alpha:  3.978e-01  linmin:  4.530e-07  t[s]: 120422.73
	FillingsUpdate:  mu: +0.110331569  nElectrons: 341.000000  magneticMoment: [ Abs: 41.58722  Tot: -0.00000 ]
	SubspaceRotationAdjust: set factor to 0.242
ElecMinimize: Iter:  13  F: -1895.744676125977549  |grad|_K:  9.622e-07  alpha:  3.785e-01  linmin:  7.854e-07  t[s]: 120501.08
	FillingsUpdate:  mu: +0.110556160  nElectrons: 341.000000  magneticMoment: [ Abs: 41.58715  Tot: +0.00000 ]
	SubspaceRotationAdjust: set factor to 0.261
ElecMinimize: Iter:  14  F: -1895.744745023692758  |grad|_K:  8.847e-07  alpha:  4.256e-01  linmin:  4.447e-07  t[s]: 120578.66
	FillingsUpdate:  mu: +0.110198051  nElectrons: 341.000000  magneticMoment: [ Abs: 41.58812  Tot: -0.00000 ]
	SubspaceRotationAdjust: set factor to 0.233
ElecMinimize: Iter:  15  F: -1895.744787221892693  |grad|_K:  7.279e-07  alpha:  3.082e-01  linmin:  1.254e-06  t[s]: 120658.48
	FillingsUpdate:  mu: +0.110549182  nElectrons: 341.000000  magneticMoment: [ Abs: 41.58725  Tot: +0.00000 ]
	SubspaceRotationAdjust: set factor to 0.183
ElecMinimize: Iter:  16  F: -1895.744813031983313  |grad|_K:  5.722e-07  alpha:  2.787e-01  linmin: -6.252e-06  t[s]: 120736.86
	FillingsUpdate:  mu: +0.110402756  nElectrons: 341.000000  magneticMoment: [ Abs: 41.58778  Tot: -0.00000 ]
	SubspaceRotationAdjust: set factor to 0.175
ElecMinimize: Iter:  17  F: -1895.744830441057047  |grad|_K:  3.751e-07  alpha:  3.038e-01  linmin:  1.634e-06  t[s]: 120811.87
	FillingsUpdate:  mu: +0.110403376  nElectrons: 341.000000  magneticMoment: [ Abs: 41.58781  Tot: +0.00000 ]
	SubspaceRotationAdjust: set factor to 0.195
ElecMinimize: Iter:  18  F: -1895.744838199585956  |grad|_K:  2.615e-07  alpha:  3.154e-01  linmin:  1.906e-07  t[s]: 120892.51
	FillingsUpdate:  mu: +0.110471345  nElectrons: 341.000000  magneticMoment: [ Abs: 41.58760  Tot: -0.00000 ]
	SubspaceRotationAdjust: set factor to 0.196
ElecMinimize: Iter:  19  F: -1895.744842222507941  |grad|_K:  1.961e-07  alpha:  3.364e-01  linmin: -5.517e-07  t[s]: 120969.68
	FillingsUpdate:  mu: +0.110417580  nElectrons: 341.000000  magneticMoment: [ Abs: 41.58774  Tot: +0.00000 ]
	SubspaceRotationAdjust: set factor to 0.193
ElecMinimize: Iter:  20  F: -1895.744844351547954  |grad|_K:  1.469e-07  alpha:  3.166e-01  linmin:  1.058e-06  t[s]: 121045.70
	FillingsUpdate:  mu: +0.110464959  nElectrons: 341.000000  magneticMoment: [ Abs: 41.58764  Tot: -0.00000 ]
	SubspaceRotationAdjust: set factor to 0.218
ElecMinimize: Iter:  21  F: -1895.744845694861169  |grad|_K:  1.250e-07  alpha:  3.561e-01  linmin: -3.469e-06  t[s]: 121122.11
	FillingsUpdate:  mu: +0.110466047  nElectrons: 341.000000  magneticMoment: [ Abs: 41.58762  Tot: -0.00000 ]
	SubspaceRotationAdjust: set factor to 0.266
ElecMinimize: Iter:  22  F: -1895.744846844019321  |grad|_K:  1.175e-07  alpha:  4.208e-01  linmin:  1.992e-06  t[s]: 121199.61
	FillingsUpdate:  mu: +0.110450378  nElectrons: 341.000000  magneticMoment: [ Abs: 41.58761  Tot: +0.00000 ]
	SubspaceRotationAdjust: set factor to 0.304
ElecMinimize: Iter:  23  F: -1895.744847926236162  |grad|_K:  1.274e-07  alpha:  4.479e-01  linmin:  3.631e-07  t[s]: 121276.65
	FillingsUpdate:  mu: +0.110516306  nElectrons: 341.000000  magneticMoment: [ Abs: 41.58736  Tot: -0.00000 ]
	SubspaceRotationAdjust: set factor to 0.292
ElecMinimize: Iter:  24  F: -1895.744849099322664  |grad|_K:  1.560e-07  alpha:  4.131e-01  linmin: -8.116e-07  t[s]: 121356.12
	FillingsUpdate:  mu: +0.110450146  nElectrons: 341.000000  magneticMoment: [ Abs: 41.58745  Tot: -0.00000 ]
	SubspaceRotationAdjust: set factor to 0.236
ElecMinimize: Iter:  25  F: -1895.744850287052486  |grad|_K:  1.529e-07  alpha:  2.792e-01  linmin: -2.831e-07  t[s]: 121431.05
	FillingsUpdate:  mu: +0.110514880  nElectrons: 341.000000  magneticMoment: [ Abs: 41.58719  Tot: -0.00000 ]
	SubspaceRotationAdjust: set factor to 0.229
ElecMinimize: Iter:  26  F: -1895.744851739020760  |grad|_K:  1.395e-07  alpha:  3.553e-01  linmin:  2.230e-06  t[s]: 121508.87
	FillingsUpdate:  mu: +0.110524721  nElectrons: 341.000000  magneticMoment: [ Abs: 41.58715  Tot: -0.00000 ]
	SubspaceRotationAdjust: set factor to 0.253
ElecMinimize: Iter:  27  F: -1895.744853175329808  |grad|_K:  1.277e-07  alpha:  4.219e-01  linmin:  9.883e-08  t[s]: 121586.43
	FillingsUpdate:  mu: +0.110503636  nElectrons: 341.000000  magneticMoment: [ Abs: 41.58719  Tot: -0.00000 ]
	SubspaceRotationAdjust: set factor to 0.269
ElecMinimize: Iter:  28  F: -1895.744854230951205  |grad|_K:  1.143e-07  alpha:  3.699e-01  linmin: -9.621e-07  t[s]: 121660.17
	FillingsUpdate:  mu: +0.110554849  nElectrons: 341.000000  magneticMoment: [ Abs: 41.58701  Tot: -0.00000 ]
	SubspaceRotationAdjust: set factor to 0.251
ElecMinimize: Iter:  29  F: -1895.744854991307193  |grad|_K:  1.124e-07  alpha:  3.328e-01  linmin: -2.036e-06  t[s]: 121735.96
	FillingsUpdate:  mu: +0.110510258  nElectrons: 341.000000  magneticMoment: [ Abs: 41.58712  Tot: +0.00000 ]
	SubspaceRotationAdjust: set factor to 0.233
ElecMinimize: Iter:  30  F: -1895.744855628903679  |grad|_K:  9.889e-08  alpha:  2.888e-01  linmin:  7.292e-07  t[s]: 121811.48
	FillingsUpdate:  mu: +0.110537573  nElectrons: 341.000000  magneticMoment: [ Abs: 41.58708  Tot: +0.00000 ]
	SubspaceRotationAdjust: set factor to 0.27
ElecMinimize: Iter:  31  F: -1895.744856257047559  |grad|_K:  8.855e-08  alpha:  3.675e-01  linmin:  5.822e-06  t[s]: 121882.02
	FillingsUpdate:  mu: +0.110540072  nElectrons: 341.000000  magneticMoment: [ Abs: 41.58708  Tot: +0.00000 ]
	SubspaceRotationAdjust: set factor to 0.32
ElecMinimize: Iter:  32  F: -1895.744856870302101  |grad|_K:  9.255e-08  alpha:  4.476e-01  linmin:  2.046e-06  t[s]: 121960.56
	FillingsUpdate:  mu: +0.110505497  nElectrons: 341.000000  magneticMoment: [ Abs: 41.58721  Tot: +0.00000 ]
	SubspaceRotationAdjust: set factor to 0.335
ElecMinimize: Iter:  33  F: -1895.744857494729331  |grad|_K:  1.063e-07  alpha:  4.169e-01  linmin: -6.492e-08  t[s]: 122038.80
ElecMinimize: Converged (|Delta F|<1.000000e-06 for 5 iters).
Setting wave functions to eigenvectors of Hamiltonian
IonicMinimize: 	Wolfe criterion not satisfied: alpha: 0.531753  (E-E0)/|gdotd0|: 0.0267269  gdotd/gdotd0: -0.86467 (taking cubic step)

-------- Electronic minimization -----------
	FillingsUpdate:  mu: +0.111397269  nElectrons: 341.000000  magneticMoment: [ Abs: 41.58462  Tot: -0.00000 ]
ElecMinimize: Iter:   0  F: -1895.643597263989705  |grad|_K:  5.331e-05  alpha:  1.000e+00
	FillingsUpdate:  mu: +0.107136836  nElectrons: 341.000000  magneticMoment: [ Abs: 41.59169  Tot: +0.00000 ]
	SubspaceRotationAdjust: set factor to 0.302
ElecMinimize: Iter:   1  F: -1895.740253880267801  |grad|_K:  8.915e-06  alpha:  1.965e-01  linmin:  4.391e-03  t[s]: 122176.52
	FillingsUpdate:  mu: +0.113647920  nElectrons: 341.000000  magneticMoment: [ Abs: 41.58059  Tot: +0.00000 ]
	SubspaceRotationAdjust: set factor to 0.199
ElecMinimize: Iter:   2  F: -1895.742680105115824  |grad|_K:  6.115e-06  alpha:  1.771e-01  linmin: -8.645e-04  t[s]: 122254.04
	FillingsUpdate:  mu: +0.109463130  nElectrons: 341.000000  magneticMoment: [ Abs: 41.58690  Tot: -0.00000 ]
	SubspaceRotationAdjust: set factor to 0.13
ElecMinimize: Iter:   3  F: -1895.743885242655551  |grad|_K:  3.237e-06  alpha:  1.818e-01  linmin:  5.365e-04  t[s]: 122332.83
	FillingsUpdate:  mu: +0.109615826  nElectrons: 341.000000  magneticMoment: [ Abs: 41.58690  Tot: -0.00000 ]
	SubspaceRotationAdjust: set factor to 0.162
ElecMinimize: Iter:   4  F: -1895.744375142984381  |grad|_K:  2.093e-06  alpha:  2.717e-01  linmin:  3.708e-08  t[s]: 122409.75
	FillingsUpdate:  mu: +0.110506922  nElectrons: 341.000000  magneticMoment: [ Abs: 41.58502  Tot: +0.00000 ]
	SubspaceRotationAdjust: set factor to 0.149
ElecMinimize: Iter:   5  F: -1895.744596086286492  |grad|_K:  1.380e-06  alpha:  2.884e-01  linmin: -2.475e-05  t[s]: 122487.41
	FillingsUpdate:  mu: +0.110258009  nElectrons: 341.000000  magneticMoment: [ Abs: 41.58583  Tot: +0.00000 ]
	SubspaceRotationAdjust: set factor to 0.16
ElecMinimize: Iter:   6  F: -1895.744703043574191  |grad|_K:  9.830e-07  alpha:  3.206e-01  linmin:  4.558e-06  t[s]: 122563.73
	FillingsUpdate:  mu: +0.110207906  nElectrons: 341.000000  magneticMoment: [ Abs: 41.58618  Tot: +0.00000 ]
	SubspaceRotationAdjust: set factor to 0.193
ElecMinimize: Iter:   7  F: -1895.744763742499572  |grad|_K:  7.800e-07  alpha:  3.593e-01  linmin: -2.309e-08  t[s]: 122642.44
	FillingsUpdate:  mu: +0.110437782  nElectrons: 341.000000  magneticMoment: [ Abs: 41.58579  Tot: -0.00000 ]
	SubspaceRotationAdjust: set factor to 0.211
ElecMinimize: Iter:   8  F: -1895.744800012294490  |grad|_K:  6.677e-07  alpha:  3.409e-01  linmin: -1.575e-06  t[s]: 122717.47
	FillingsUpdate:  mu: +0.110239954  nElectrons: 341.000000  magneticMoment: [ Abs: 41.58641  Tot: +0.00000 ]
	SubspaceRotationAdjust: set factor to 0.231
ElecMinimize: Iter:   9  F: -1895.744829114973754  |grad|_K:  5.933e-07  alpha:  3.732e-01  linmin:  1.403e-06  t[s]: 122793.27
	FillingsUpdate:  mu: +0.110334869  nElectrons: 341.000000  magneticMoment: [ Abs: 41.58617  Tot: +0.00000 ]
	SubspaceRotationAdjust: set factor to 0.263
ElecMinimize: Iter:  10  F: -1895.744852909035899  |grad|_K:  5.352e-07  alpha:  3.867e-01  linmin:  1.070e-07  t[s]: 122871.11
	FillingsUpdate:  mu: +0.110347677  nElectrons: 341.000000  magneticMoment: [ Abs: 41.58629  Tot: +0.00000 ]
	SubspaceRotationAdjust: set factor to 0.296
ElecMinimize: Iter:  11  F: -1895.744872394968525  |grad|_K:  4.488e-07  alpha:  3.890e-01  linmin:  3.136e-07  t[s]: 122949.60
	FillingsUpdate:  mu: +0.110223332  nElectrons: 341.000000  magneticMoment: [ Abs: 41.58672  Tot: -0.00000 ]
	SubspaceRotationAdjust: set factor to 0.288
ElecMinimize: Iter:  12  F: -1895.744884011990507  |grad|_K:  3.778e-07  alpha:  3.298e-01  linmin:  4.492e-07  t[s]: 123027.94
	FillingsUpdate:  mu: +0.110383496  nElectrons: 341.000000  magneticMoment: [ Abs: 41.58627  Tot: -0.00000 ]
	SubspaceRotationAdjust: set factor to 0.215
ElecMinimize: Iter:  13  F: -1895.744889924415247  |grad|_K:  3.166e-07  alpha:  2.370e-01  linmin: -4.763e-07  t[s]: 123104.02
	FillingsUpdate:  mu: +0.110273487  nElectrons: 341.000000  magneticMoment: [ Abs: 41.58663  Tot: -0.00000 ]
	SubspaceRotationAdjust: set factor to 0.175
ElecMinimize: Iter:  14  F: -1895.744894142359271  |grad|_K:  2.180e-07  alpha:  2.406e-01  linmin:  1.673e-06  t[s]: 123179.92
	FillingsUpdate:  mu: +0.110279722  nElectrons: 341.000000  magneticMoment: [ Abs: 41.58663  Tot: +0.00000 ]
	SubspaceRotationAdjust: set factor to 0.199
ElecMinimize: Iter:  15  F: -1895.744896658853804  |grad|_K:  1.607e-07  alpha:  3.029e-01  linmin: -8.868e-07  t[s]: 123257.88
	FillingsUpdate:  mu: +0.110322240  nElectrons: 341.000000  magneticMoment: [ Abs: 41.58649  Tot: -0.00000 ]
	SubspaceRotationAdjust: set factor to 0.194
ElecMinimize: Iter:  16  F: -1895.744898021950121  |grad|_K:  1.217e-07  alpha:  3.016e-01  linmin: -3.221e-07  t[s]: 123334.14
	FillingsUpdate:  mu: +0.110281507  nElectrons: 341.000000  magneticMoment: [ Abs: 41.58659  Tot: -0.00000 ]
	SubspaceRotationAdjust: set factor to 0.195
ElecMinimize: Iter:  17  F: -1895.744898802214038  |grad|_K:  9.615e-08  alpha:  3.012e-01  linmin: -2.009e-06  t[s]: 123411.69
	FillingsUpdate:  mu: +0.110292016  nElectrons: 341.000000  magneticMoment: [ Abs: 41.58654  Tot: +0.00000 ]
	SubspaceRotationAdjust: set factor to 0.235
ElecMinimize: Iter:  18  F: -1895.744899381151072  |grad|_K:  8.496e-08  alpha:  3.580e-01  linmin:  3.592e-06  t[s]: 123490.57
	FillingsUpdate:  mu: +0.110303245  nElectrons: 341.000000  magneticMoment: [ Abs: 41.58648  Tot: +0.00000 ]
	SubspaceRotationAdjust: set factor to 0.279
ElecMinimize: Iter:  19  F: -1895.744899834757462  |grad|_K:  8.106e-08  alpha:  3.593e-01  linmin: -3.201e-08  t[s]: 123569.30
	FillingsUpdate:  mu: +0.110268463  nElectrons: 341.000000  magneticMoment: [ Abs: 41.58654  Tot: +0.00000 ]
	SubspaceRotationAdjust: set factor to 0.283
ElecMinimize: Iter:  20  F: -1895.744900255804396  |grad|_K:  8.868e-08  alpha:  3.665e-01  linmin: -3.425e-06  t[s]: 123647.97
	FillingsUpdate:  mu: +0.110301879  nElectrons: 341.000000  magneticMoment: [ Abs: 41.58643  Tot: +0.00000 ]
	SubspaceRotationAdjust: set factor to 0.267
ElecMinimize: Iter:  21  F: -1895.744900673974598  |grad|_K:  8.506e-08  alpha:  3.040e-01  linmin:  1.998e-07  t[s]: 123723.17
ElecMinimize: Converged (|Delta F|<1.000000e-06 for 5 iters).
Setting wave functions to eigenvectors of Hamiltonian

# Ionic positions in lattice coordinates:
ion Ni   0.018805240439798   0.011323925330214   0.180544960822853 1
ion Ni   0.002849669867035   0.498174005644845   0.171123221530868 1
ion Ni   0.250000000000000   0.250000000000000  -0.150000000000000 0
ion Ni  -0.250000000000000   0.250000000000000  -0.150000000000000 0
ion Co   0.507765859891959   0.002967631530128   0.178267780683215 1
ion Co   0.250000000000000   0.750000000000000  -0.150000000000000 0
ion Cr   0.498487776633123   0.500019270170145   0.178467588914855 1
ion Cr  -0.250000000000000   0.750000000000000  -0.150000000000000 0
ion V   0.242127179954804   0.249316010056657   0.064465513836563 1
ion V   0.244456537159888   0.748881818413052   0.064021022199082 1
ion V  -0.253889128831928   0.249829934647344   0.064331987817113 1
ion V  -0.252529075448035   0.744632325724164   0.065980483156255 1
ion V   0.000000000000000   0.000000000000000  -0.050000000000000 0
ion V   0.500000000000000   0.000000000000000  -0.050000000000000 0
ion V   0.000000000000000   0.500000000000000  -0.050000000000000 0
ion V   0.500000000000000   0.500000000000000  -0.050000000000000 0
ion O   0.255499547561448   0.248612123024845   0.162824386231267 1
ion O   0.260759526749979   0.756235548162779   0.162112344633921 1
ion O  -0.260039425081026   0.252050160555993   0.165170110130242 1
ion O  -0.258748939220719   0.742567790552159   0.156135912182434 1
ion O  -0.006206827953912  -0.009437786242755   0.053440865367310 1
ion O   0.506486032252933  -0.019212563744970   0.054296945594585 1
ion O  -0.011629479995488   0.513671289085959   0.048884905448153 1
ion O   0.491674985701775   0.506694678772974   0.051551371112102 1
ion O   0.250000000000000   0.250000000000000  -0.050000000000000 0
ion O   0.250000000000000   0.750000000000000  -0.050000000000000 0
ion O  -0.250000000000000   0.250000000000000  -0.050000000000000 0
ion O  -0.250000000000000   0.750000000000000  -0.050000000000000 0
ion O   0.000000000000000   0.000000000000000  -0.150000000000000 0
ion O   0.500000000000000   0.000000000000000  -0.150000000000000 0
ion O   0.000000000000000   0.500000000000000  -0.150000000000000 0
ion O   0.500000000000000   0.500000000000000  -0.150000000000000 0
ion O  -0.024069654326202  -0.019221396850976   0.266807183747061 1
ion H  -0.009845261065109   0.125695688952562   0.285867655315099 1

# Forces in Lattice coordinates:
force Ni  -0.010380524851846   0.001883694353859  -0.014361045288782 1
force Ni   0.000965667407501   0.008588903237791  -0.001394741573306 1
force Ni   0.001418774086485   0.002158020609051  -0.081249601576938 0
force Ni   0.001323567273829   0.002669584746060   0.026155443896080 0
force Co  -0.005717250441034  -0.009798173628606  -0.024289583809464 1
force Co   0.032205643781596  -0.002505454960815  -0.757813766281730 0
force Cr  -0.001411217072712  -0.001468934662858   0.000328452409401 1
force Cr   0.017079712833639  -0.001500856738984  -1.909232057249624 0
force V   0.003450060349469  -0.001537154937325  -0.049544152487748 1
force V   0.005198119534785   0.006425505905091  -0.036729175149812 1
force V   0.001060945848633  -0.004131908679456  -0.017543432669511 1
force V   0.004808997669120   0.003445192526054   0.030260894256682 1
force V   0.002677979054982   0.020269624645973   0.045446441895368 0
force V   0.002579733564381   0.039599477406180   0.092850669309851 0
force V  -0.008336305039490  -0.013914411929737  -0.263655792700876 0
force V  -0.013921047750439  -0.051796715700762   0.113323886250608 0
force O   0.014951032113925  -0.006561925546454   0.051894478194935 1
force O  -0.006843862208427   0.005881036608867   0.029621003132378 1
force O  -0.002901249524502  -0.005262970007589  -0.119975185345341 1
force O   0.003241640717175   0.005672311971322   0.009804859045122 1
force O  -0.007521297722598   0.028286471593642   0.060332446362684 1
force O   0.005598785005876   0.024815791218084  -0.036126881657818 1
force O  -0.017307423246540  -0.016635387420437   0.065329774133868 1
force O   0.015662940693312  -0.026147845873672   0.008633359340454 1
force O  -0.028247518696144  -0.001206177798789   0.425921705950841 0
force O  -0.051652524813748  -0.002128420832761   0.430153998296199 0
force O   0.058920686604313  -0.000127314549817   0.117516658725229 0
force O   0.024972467744373   0.001097063800288   1.374067212476027 0
force O  -0.022814451680279   0.047639647806153   0.152745353144910 0
force O   0.015920267104469   0.021824327142532   0.101400825730675 0
force O  -0.020642092598348  -0.050775006266091   0.120033083717985 0
force O   0.019670178933710  -0.018934328720171   0.055533979916145 0
force O  -0.001091169428221   0.063972172296474   0.100895376644763 1
force H  -0.019025754017834  -0.068737060488302  -0.097871148403545 1

# Energy components:
   Eewald =     4420.8232477960009419
       EH =     6124.6966890475005130
     Eloc =   -12616.2802865383655444
      Enl =     -464.7568134665904722
   Epulay =       -0.0004831230919240
      Exc =     -236.9973938148958439
       KE =      875.4648647638007333
        U =        1.3063235563238995
-------------------------------------
     Etot =    -1895.7438517793166284
       TS =        0.0010488946580542
-------------------------------------
        F =    -1895.7449006739745982

IonicMinimize: Iter:  31  F: -1895.744900673974598  |grad|_K:  1.555e-03  alpha:  2.354e-01  linmin:  3.619e-03  t[s]: 123734.68
IonicMinimize: Converged (|Delta F|<1.000000e-04 for 3 iters).

#--- Lowdin population analysis ---
# oxidation-state Ni +3.843 +3.408 +3.761 +3.824
# magnetic-moments Ni -1.057 -0.672 -1.001 +1.032
# oxidation-state Co +1.303 +1.276
# magnetic-moments Co -2.797 -2.735
# oxidation-state Cr +2.975 +2.900
# magnetic-moments Cr +4.029 +3.990
# oxidation-state V +1.082 +1.123 +1.029 +1.281 +1.079 +1.054 +1.085 +1.058
# magnetic-moments V +2.839 +2.640 -2.927 -2.074 -2.664 +2.762 -2.629 +2.743
# oxidation-state O -0.849 -0.857 -0.879 -0.810 -0.918 -0.932 -0.903 -0.931 -0.898 -0.950 -0.890 -0.923 -0.863 -0.866 -0.864 -0.868 -0.757
# magnetic-moments O -0.254 -0.222 -0.176 -0.079 -0.016 -0.015 +0.013 -0.023 -0.069 -0.031 +0.097 +0.030 -0.013 -0.064 -0.013 -0.062 -0.318
# oxidation-state H +0.378
# magnetic-moments H +0.005


Dumping 'run.ionpos' ... done
Dumping 'run.lattice' ... done
Dumping 'run.Ecomponents' ... done
End date and time: Sun May 11 11:49:45 2025  (Duration: 1-10:22:17.91)
Done!
