/var/spool/slurmd/job44424/slurm_script: line 9: module: command not found
/var/spool/slurmd/job44424/slurm_script: line 10: module: command not found

*************** JDFTx 1.7.0  ***************

Start date and time: Tue May 20 00:10:47 2025
Executable /data2/jt577/jdftx_eat_withLibXC/build/jdftx with command-line: -i /data2/jt577/May_2025/Relax_Mag_litU/rel15+1_6/O/runs/calc_/run.in
Running on hosts (process indices):  node3401 (0-8)
Divided in process groups (process indices):  0 (0)  1 (1)  2 (2)  3 (3)  4 (4)  5 (5)  6 (6)  7 (7)  8 (8)
Resource initialization completed at t[s]:      0.00
Run totals: 9 processes, 90 threads, 0 GPUs


Input parsed successfully to the following command list (including defaults):

add-mix 
add-U 	Ni d 0.235196 \
	Cr d 0.128623 \
	V d 0.113923 \
	Co d 0.121273
basis kpoint-dependent
coords-type Lattice
core-overlap-check vector
coulomb-interaction Periodic
davidson-band-ratio 1.1
dump End IonicPositions Lattice Ecomponents
dump-name run.$VAR
elec-cutoff 30
elec-eigen-algo Davidson
elec-ex-corr gga-x-rpbe gga-c-pbe
elec-smearing Fermi 0.001
electronic-minimize  \
	dirUpdateScheme      FletcherReeves \
	linminMethod         DirUpdateRecommended \
	nIterations          1000 \
	history              15 \
	knormThreshold       0 \
	energyDiffThreshold  1e-06 \
	nEnergyDiff          5 \
	alphaTstart          1 \
	alphaTmin            1e-10 \
	updateTestStepSize   yes \
	alphaTreduceFactor   0.1 \
	alphaTincreaseFactor 3 \
	nAlphaAdjustMax      3 \
	wolfeEnergy          0.0001 \
	wolfeGradient        0.9 \
	fdTest               no
exchange-regularization WignerSeitzTruncated
fluid None
fluid-ex-corr (null) lda-PZ
fluid-gummel-loop 10 1.000000e-05
fluid-minimize  \
	dirUpdateScheme      PolakRibiere \
	linminMethod         DirUpdateRecommended \
	nIterations          100 \
	history              15 \
	knormThreshold       0 \
	energyDiffThreshold  0 \
	nEnergyDiff          2 \
	alphaTstart          1 \
	alphaTmin            1e-10 \
	updateTestStepSize   yes \
	alphaTreduceFactor   0.1 \
	alphaTincreaseFactor 3 \
	nAlphaAdjustMax      3 \
	wolfeEnergy          0.0001 \
	wolfeGradient        0.9 \
	fdTest               no
fluid-solvent H2O 55.338 ScalarEOS \
	epsBulk 78.4 \
	pMol 0.92466 \
	epsInf 1.77 \
	Pvap 1.06736e-10 \
	sigmaBulk 4.62e-05 \
	Rvdw 2.61727 \
	Res 1.42 \
	tauNuc 343133 \
	poleEl 15 7 1
forces-output-coords Positions
initial-magnetic-moments  \
	Ni 1 -1 1 -1 1 1 -1 1 \
	Cr 1 \
	V -1 1 -1 -1 -1 \
	Co -1 1
initial-state run.$VAR
ion Ni  0.000000000000000   0.000000000000000   0.150000000000000 1
ion Ni  0.500000000000000   0.000000000000000   0.150000000000000 1
ion Ni  0.250000000000000   0.750000000000000   0.050000000000000 1
ion Ni -0.250000000000000   0.250000000000000   0.050000000000000 1
ion Ni  0.500000000000000   0.000000000000000  -0.050000000000000 0
ion Ni  0.500000000000000   0.500000000000000  -0.050000000000000 0
ion Ni  0.250000000000000   0.750000000000000  -0.150000000000000 0
ion Ni -0.250000000000000   0.750000000000000  -0.150000000000000 0
ion Cr  0.000000000000000   0.500000000000000   0.150000000000000 1
ion V  0.500000000000000   0.500000000000000   0.150000000000000 1
ion V  0.250000000000000   0.250000000000000   0.050000000000000 1
ion V -0.250000000000000   0.750000000000000   0.050000000000000 1
ion V  0.000000000000000   0.000000000000000  -0.050000000000000 0
ion V  0.000000000000000   0.500000000000000  -0.050000000000000 0
ion Co  0.250000000000000   0.250000000000000  -0.150000000000000 0
ion Co -0.250000000000000   0.250000000000000  -0.150000000000000 0
ion O  0.250000000000000   0.250000000000000   0.150000000000000 1
ion O  0.250000000000000   0.750000000000000   0.150000000000000 1
ion O -0.250000000000000   0.250000000000000   0.150000000000000 1
ion O -0.250000000000000   0.750000000000000   0.150000000000000 1
ion O  0.000000000000000   0.000000000000000   0.050000000000000 1
ion O  0.500000000000000   0.000000000000000   0.050000000000000 1
ion O  0.000000000000000   0.500000000000000   0.050000000000000 1
ion O  0.500000000000000   0.500000000000000   0.050000000000000 1
ion O  0.250000000000000   0.250000000000000  -0.050000000000000 0
ion O  0.250000000000000   0.750000000000000  -0.050000000000000 0
ion O -0.250000000000000   0.250000000000000  -0.050000000000000 0
ion O -0.250000000000000   0.750000000000000  -0.050000000000000 0
ion O  0.000000000000000   0.000000000000000  -0.150000000000000 0
ion O  0.500000000000000   0.000000000000000  -0.150000000000000 0
ion O  0.000000000000000   0.500000000000000  -0.150000000000000 0
ion O  0.500000000000000   0.500000000000000  -0.150000000000000 0
ion O -0.000095572322686   0.000198307128402   0.224876729873325 1
ion-species SG15/$ID_ONCV_PBE.upf
ion-width 0
ionic-minimize  \
	dirUpdateScheme      L-BFGS \
	linminMethod         DirUpdateRecommended \
	nIterations          1000 \
	history              15 \
	knormThreshold       0.0001 \
	energyDiffThreshold  0.0001 \
	nEnergyDiff          3 \
	alphaTstart          1 \
	alphaTmin            1e-10 \
	updateTestStepSize   yes \
	alphaTreduceFactor   0.1 \
	alphaTincreaseFactor 3 \
	nAlphaAdjustMax      3 \
	wolfeEnergy          0.0001 \
	wolfeGradient        0.9 \
	fdTest               no
kpoint   0.500000000000   0.500000000000   0.500000000000  1.00000000000000
kpoint-folding 3 3 1 
latt-move-scale 1 1 1
latt-scale 1 1 1 
lattice  \
	   8.140000000000001    8.140000000000001    0.000000000000000  \
	   8.140000000000001   -8.140000000000001    0.000000000000000  \
	   0.000000000000000    0.000000000000000   40.700000000000003 
lattice-minimize  \
	dirUpdateScheme      L-BFGS \
	linminMethod         DirUpdateRecommended \
	nIterations          0 \
	history              15 \
	knormThreshold       0 \
	energyDiffThreshold  1e-06 \
	nEnergyDiff          2 \
	alphaTstart          1 \
	alphaTmin            1e-10 \
	updateTestStepSize   yes \
	alphaTreduceFactor   0.1 \
	alphaTincreaseFactor 3 \
	nAlphaAdjustMax      3 \
	wolfeEnergy          0.0001 \
	wolfeGradient        0.9 \
	fdTest               no
lcao-params -1 1e-06 0.001
pcm-variant GLSSA13
spintype z-spin
subspace-rotation-factor 1 yes
symmetries none
symmetry-threshold 0.0001


Applied RMS atom displacement 0 bohrs to make symmetries exact.

---------- Initializing the Grid ----------
R = 
[         8.14         8.14            0  ]
[         8.14        -8.14            0  ]
[            0            0         40.7  ]
unit cell volume = 5393.53
G =
[   0.385945   0.385945         -0  ]
[   0.385945  -0.385945         -0  ]
[         -0         -0   0.154378  ]
Minimum fftbox size, Smin = [  60  60  204  ]
Chosen fftbox size, S = [  60  60  210  ]

---------- Exchange Correlation functional ----------
Initialized LibXC exchange functional 'Hammer, Hansen, and Norskov'
Initialized LibXC correlation functional 'Perdew, Burke & Ernzerhof'

---------- Setting up pseudopotentials ----------
Width of ionic core gaussian charges (only for fluid interactions / plotting) set to 0

Reading pseudopotential file '/data2/jt577/jdftx_eat_withLibXC/build/pseudopotentials/SG15/Ni_ONCV_PBE.upf':
  'Ni' pseudopotential, 'PBE' functional
  Generated using ONCVPSP code by D. R. Hamann
  Author: Martin Schlipf and Francois Gygi  Date: 150915.
  18 valence electrons, 4 orbitals, 6 projectors, 1292 radial grid points, with lMax = 2
  Transforming local potential to a uniform radial grid of dG=0.02 with 1419 points.
  Transforming nonlocal projectors to a uniform radial grid of dG=0.02 with 528 points.
    3S    l: 0   occupation:  2.0   eigenvalue: -4.081355
    3P    l: 1   occupation:  6.0   eigenvalue: -2.623460
    4S    l: 0   occupation:  2.0   eigenvalue: -0.207378
    3D    l: 2   occupation:  8.0   eigenvalue: -0.326118
  Transforming atomic orbitals to a uniform radial grid of dG=0.02 with 528 points.
  WARNING: large normalization error in atomic orbital 1s (integral: 0.000006).
  Core radius for overlap checks: 1.99 bohrs.
  Reading pulay file /data2/jt577/jdftx_eat_withLibXC/build/pseudopotentials/SG15/Ni_ONCV_PBE.pulay ... using dE_dnG = -7.250568e-04 computed for Ecut = 30.

Reading pseudopotential file '/data2/jt577/jdftx_eat_withLibXC/build/pseudopotentials/SG15/Cr_ONCV_PBE.upf':
  'Cr' pseudopotential, 'PBE' functional
  Generated using ONCVPSP code by D. R. Hamann
  Author: Martin Schlipf and Francois Gygi  Date: 150915.
  14 valence electrons, 4 orbitals, 6 projectors, 1160 radial grid points, with lMax = 2
  Transforming local potential to a uniform radial grid of dG=0.02 with 1419 points.
  Transforming nonlocal projectors to a uniform radial grid of dG=0.02 with 528 points.
    3S    l: 0   occupation:  2.0   eigenvalue: -2.865131
    3P    l: 1   occupation:  6.0   eigenvalue: -1.810600
    4S    l: 0   occupation:  2.0   eigenvalue: -0.180525
    3D    l: 2   occupation:  4.0   eigenvalue: -0.220312
  Transforming atomic orbitals to a uniform radial grid of dG=0.02 with 528 points.
  WARNING: large normalization error in atomic orbital 1s (integral: 0.000001).
  Core radius for overlap checks: 2.10 bohrs.
  Reading pulay file /data2/jt577/jdftx_eat_withLibXC/build/pseudopotentials/SG15/Cr_ONCV_PBE.pulay ... using dE_dnG = -9.817895e-06 computed for Ecut = 30.

Reading pseudopotential file '/data2/jt577/jdftx_eat_withLibXC/build/pseudopotentials/SG15/V_ONCV_PBE.upf':
  'V' pseudopotential, 'PBE' functional
  Generated using ONCVPSP code by D. R. Hamann
  Author: Martin Schlipf and Francois Gygi  Date: 150915.
  13 valence electrons, 4 orbitals, 6 projectors, 1536 radial grid points, with lMax = 2
  Transforming local potential to a uniform radial grid of dG=0.02 with 1419 points.
  Transforming nonlocal projectors to a uniform radial grid of dG=0.02 with 528 points.
    3S    l: 0   occupation:  2.0   eigenvalue: -2.581105
    3P    l: 1   occupation:  6.0   eigenvalue: -1.618486
    4S    l: 0   occupation:  2.0   eigenvalue: -0.172804
    3D    l: 2   occupation:  3.0   eigenvalue: -0.189795
  Transforming atomic orbitals to a uniform radial grid of dG=0.02 with 528 points.
  Core radius for overlap checks: 1.80 bohrs.
  Reading pulay file /data2/jt577/jdftx_eat_withLibXC/build/pseudopotentials/SG15/V_ONCV_PBE.pulay ... using dE_dnG = -1.698632e-04 computed for Ecut = 30.

Reading pseudopotential file '/data2/jt577/jdftx_eat_withLibXC/build/pseudopotentials/SG15/Co_ONCV_PBE.upf':
  'Co' pseudopotential, 'PBE' functional
  Generated using ONCVPSP code by D. R. Hamann
  Author: Martin Schlipf and Francois Gygi  Date: 150915.
  17 valence electrons, 4 orbitals, 6 projectors, 1388 radial grid points, with lMax = 2
  Transforming local potential to a uniform radial grid of dG=0.02 with 1419 points.
  Transforming nonlocal projectors to a uniform radial grid of dG=0.02 with 528 points.
    3S    l: 0   occupation:  2.0   eigenvalue: -3.763303
    3P    l: 1   occupation:  6.0   eigenvalue: -2.412101
    4S    l: 0   occupation:  2.0   eigenvalue: -0.201022
    3D    l: 2   occupation:  7.0   eigenvalue: -0.301498
  Transforming atomic orbitals to a uniform radial grid of dG=0.02 with 528 points.
  Core radius for overlap checks: 1.94 bohrs.
  Reading pulay file /data2/jt577/jdftx_eat_withLibXC/build/pseudopotentials/SG15/Co_ONCV_PBE.pulay ... using dE_dnG = -9.787391e-05 computed for Ecut = 30.

Reading pseudopotential file '/data2/jt577/jdftx_eat_withLibXC/build/pseudopotentials/SG15/O_ONCV_PBE.upf':
  'O' pseudopotential, 'PBE' functional
  Generated using ONCVPSP code by D. R. Hamann
  Author: Martin Schlipf and Francois Gygi  Date: 150915.
  6 valence electrons, 2 orbitals, 4 projectors, 936 radial grid points, with lMax = 1
  Transforming local potential to a uniform radial grid of dG=0.02 with 1419 points.
  Transforming nonlocal projectors to a uniform radial grid of dG=0.02 with 528 points.
    2S    l: 0   occupation:  2.0   eigenvalue: -0.880572
    2P    l: 1   occupation:  4.0   eigenvalue: -0.331869
  Transforming atomic orbitals to a uniform radial grid of dG=0.02 with 528 points.
  Core radius for overlap checks: 1.29 bohrs.
  Reading pulay file /data2/jt577/jdftx_eat_withLibXC/build/pseudopotentials/SG15/O_ONCV_PBE.pulay ... using dE_dnG = -8.209514e-03 computed for Ecut = 30.

Initialized 5 species with 33 total atoms.

Folded 1 k-points by 3x3x1 to 9 k-points.

---------- Setting up k-points, bands, fillings ----------
No reducable k-points. 
Computing the number of bands and number of electrons
Calculating initial fillings.
nElectrons: 359.000000   nBands: 228   nStates: 18

----- Setting up reduced wavefunction bases (one per k-point) -----
average nbasis = 42312.000 , ideal nbasis = 42330.081

---------- Setting up ewald sum ----------
Optimum gaussian width for ewald sums = 3.906449 bohr.
Real space sum over 605 unit cells with max indices [  5  5  2  ]
Reciprocal space sum over 5915 terms with max indices [  6  6  17  ]

---------- Allocating electronic variables ----------
Initializing wave functions:  linear combination of atomic orbitals
Ni (M=1) pseudo-atom majority spin occupations:   s ( 1 0.5 )  p ( 3 )  d ( 5 )
Ni (M=1) pseudo-atom minority spin occupations:   s ( 1 0 )  p ( 3 )  d ( 4.5 )
Cr (M=1) pseudo-atom majority spin occupations:   s ( 1 0 )  p ( 3 )  d ( 3.5 )
Cr (M=1) pseudo-atom minority spin occupations:   s ( 1 0 )  p ( 3 )  d ( 2.5 )
V (M=1) pseudo-atom majority spin occupations:   s ( 1 0 )  p ( 3 )  d ( 3 )
V (M=1) pseudo-atom minority spin occupations:   s ( 1 0 )  p ( 3 )  d ( 2 )
Co (M=1) pseudo-atom majority spin occupations:   s ( 1 0 )  p ( 3 )  d ( 5 )
Co (M=1) pseudo-atom minority spin occupations:   s ( 1 0 )  p ( 3 )  d ( 4 )
O pseudo-atom occupations:   s ( 2 )  p ( 4 )
	FillingsUpdate:  mu: +1.910839693  nElectrons: 359.000000  magneticMoment: [ Abs: 0.28829  Tot: -0.00000 ]
LCAOMinimize: Iter:   0  F: -2019.7652538984009425  |grad|_K:  1.921e-02  alpha:  1.000e+00
LCAOMinimize: 	Step increased F by 2.774396e+02, reducing alpha to 1.715492e-02.
	FillingsUpdate:  mu: +1.651602632  nElectrons: 359.000000  magneticMoment: [ Abs: 0.30884  Tot: +0.00000 ]
LCAOMinimize: Iter:   1  F: -2024.9393551994298832  |grad|_K:  1.532e-02  alpha:  1.715e-02  linmin: -6.039e-02  cgtest:  1.148e+00  t[s]:     53.64
LCAOMinimize: Encountered beta<0, resetting CG.
LCAOMinimize: 	Predicted alpha/alphaT>3.000000, increasing alphaT to 5.146477e-02.
LCAOMinimize: 	Wrong curvature in test step, increasing alphaT to 1.543943e-01.
	FillingsUpdate:  mu: +0.864680166  nElectrons: 359.000000  magneticMoment: [ Abs: 1.36697  Tot: +0.00000 ]
LCAOMinimize: Iter:   2  F: -2045.9767061427405679  |grad|_K:  4.206e-02  alpha: -3.048e-02  linmin: -8.127e-02  cgtest:  2.462e-01  t[s]:     71.71
LCAOMinimize: 	Step increased F by 1.088986e+03, reducing alpha to 4.664594e-02.
LCAOMinimize: 	Step increased F by 4.517758e+02, reducing alpha to 4.664594e-03.
LCAOMinimize: 	Step increased F by 3.560440e+01, reducing alpha to 4.664594e-04.
LCAOMinimize: 	Step failed to reduce F after 3 attempts. Quitting step.
LCAOMinimize: 	Undoing step.
LCAOMinimize: 	Step failed: resetting search direction.
	FillingsUpdate:  mu: +3.059145214  nElectrons: 359.000000  magneticMoment: [ Abs: 0.33547  Tot: -0.00000 ]
LCAOMinimize: Iter:   3  F: -2012.4839911709505031  |grad|_K:  2.889e-02  alpha:  4.665e-04
LCAOMinimize: 	Step increased F by 4.468054e+02, reducing alpha to 2.341189e-02.
	FillingsUpdate:  mu: +0.239213502  nElectrons: 359.000000  magneticMoment: [ Abs: 5.86396  Tot: +0.00000 ]
LCAOMinimize: Iter:   4  F: -2069.6918131140869264  |grad|_K:  2.997e-02  alpha:  2.341e-02  linmin:  5.893e-02  cgtest: -2.610e-01  t[s]:    142.62
LCAOMinimize: 	Bad step direction: g.d > 0.
LCAOMinimize: 	Undoing step.
LCAOMinimize: 	Step failed: resetting search direction.
	FillingsUpdate:  mu: +0.239213502  nElectrons: 359.000000  magneticMoment: [ Abs: 5.86396  Tot: +0.00000 ]
LCAOMinimize: Iter:   5  F: -2069.6918131140869264  |grad|_K:  2.997e-02  alpha:  0.000e+00
	FillingsUpdate:  mu: +0.155565064  nElectrons: 359.000000  magneticMoment: [ Abs: 7.17697  Tot: +0.00000 ]
LCAOMinimize: Iter:   6  F: -2077.7317495048000637  |grad|_K:  1.292e-02  alpha:  6.401e-03  linmin: -7.964e-02  cgtest:  3.566e-01  t[s]:    167.76
LCAOMinimize: 	Predicted alpha/alphaT>3.000000, increasing alphaT to 1.920220e-02.
	FillingsUpdate:  mu: +0.062683756  nElectrons: 359.000000  magneticMoment: [ Abs: 6.75952  Tot: +0.00000 ]
LCAOMinimize: Iter:   7  F: -2079.6132816480871952  |grad|_K:  1.031e-02  alpha:  1.567e-02  linmin:  2.172e-02  cgtest: -5.975e-03  t[s]:    186.84
	FillingsUpdate:  mu: +0.099977360  nElectrons: 359.000000  magneticMoment: [ Abs: 6.59004  Tot: -0.00000 ]
LCAOMinimize: Iter:   8  F: -2079.8158377754043613  |grad|_K:  1.469e-02  alpha:  5.179e-03  linmin: -3.237e-03  cgtest:  9.058e-01  t[s]:    201.44
	FillingsUpdate:  mu: -0.060804164  nElectrons: 359.000000  magneticMoment: [ Abs: 7.57534  Tot: +0.00000 ]
LCAOMinimize: Iter:   9  F: -2081.8529453629143973  |grad|_K:  1.082e-02  alpha:  1.540e-02  linmin: -1.505e-03  cgtest: -1.769e-01  t[s]:    216.07
	FillingsUpdate:  mu: -0.131508802  nElectrons: 359.000000  magneticMoment: [ Abs: 7.39713  Tot: +0.00000 ]
LCAOMinimize: Iter:  10  F: -2084.3379278834431716  |grad|_K:  8.830e-03  alpha:  2.658e-02  linmin: -3.140e-02  cgtest:  8.133e-01  t[s]:    230.74
	FillingsUpdate:  mu: +0.178245515  nElectrons: 359.000000  magneticMoment: [ Abs: 6.45628  Tot: +0.00000 ]
LCAOMinimize: Iter:  11  F: -2085.3269244695816269  |grad|_K:  1.803e-02  alpha:  2.591e-02  linmin:  1.463e-02  cgtest:  5.683e-02  t[s]:    245.52
	FillingsUpdate:  mu: +0.241929018  nElectrons: 359.000000  magneticMoment: [ Abs: 6.20222  Tot: -0.00000 ]
LCAOMinimize: Iter:  12  F: -2085.5613965846914653  |grad|_K:  1.626e-02  alpha:  2.329e-03  linmin: -8.651e-03  cgtest:  1.261e+00  t[s]:    260.22
LCAOMinimize: Encountered beta<0, resetting CG.
LCAOMinimize: 	Wrong curvature in test step, increasing alphaT to 6.985966e-03.
	FillingsUpdate:  mu: +0.072227926  nElectrons: 359.000000  magneticMoment: [ Abs: 6.73417  Tot: +0.00000 ]
LCAOMinimize: Iter:  13  F: -2086.2546169430088412  |grad|_K:  1.489e-02  alpha: -6.025e-03  linmin: -8.294e-02  cgtest:  7.676e-01  t[s]:    274.11
LCAOMinimize: 	Step increased F by 8.505284e+01, reducing alpha to 1.539381e-02.
LCAOMinimize: 	Step increased F by 5.915083e-01, reducing alpha to 1.539381e-03.
	FillingsUpdate:  mu: -0.001869975  nElectrons: 359.000000  magneticMoment: [ Abs: 7.06688  Tot: +0.00000 ]
LCAOMinimize: Iter:  14  F: -2086.6025213665802767  |grad|_K:  1.137e-02  alpha:  1.539e-03  linmin: -8.489e-02  cgtest:  9.198e-01  t[s]:    309.86
LCAOMinimize: Encountered beta<0, resetting CG.
LCAOMinimize: 	Predicted alpha/alphaT>3.000000, increasing alphaT to 4.618143e-03.
	FillingsUpdate:  mu: -0.000517423  nElectrons: 359.000000  magneticMoment: [ Abs: 7.58051  Tot: +0.00000 ]
LCAOMinimize: Iter:  15  F: -2087.1168712686571780  |grad|_K:  1.056e-02  alpha:  9.445e-03  linmin: -7.273e-04  cgtest: -2.310e-01  t[s]:    328.89
LCAOMinimize: 	Wrong curvature in test step, increasing alphaT to 2.833402e-02.
	FillingsUpdate:  mu: -0.003717030  nElectrons: 359.000000  magneticMoment: [ Abs: 7.99726  Tot: -0.00000 ]
LCAOMinimize: Iter:  16  F: -2088.3613952890614200  |grad|_K:  8.606e-03  alpha: -1.983e-02  linmin: -7.013e-02  cgtest:  9.798e-01  t[s]:    342.41
LCAOMinimize: Encountered beta<0, resetting CG.
LCAOMinimize: 	Step increased F by 2.321229e+01, reducing alpha to 1.624154e-02.
	FillingsUpdate:  mu: +0.128219383  nElectrons: 359.000000  magneticMoment: [ Abs: 7.41563  Tot: -0.00000 ]
LCAOMinimize: Iter:  17  F: -2088.8468170529786221  |grad|_K:  1.438e-02  alpha:  1.624e-02  linmin:  1.656e-02  cgtest:  3.184e-03  t[s]:    367.67
	FillingsUpdate:  mu: +0.629759411  nElectrons: 359.000000  magneticMoment: [ Abs: 8.75480  Tot: -0.00000 ]
LCAOMinimize: Iter:  18  F: -2089.7055166356440168  |grad|_K:  2.264e-02  alpha:  1.537e-02  linmin:  7.254e-03  cgtest:  1.004e+00  t[s]:    382.53
	FillingsUpdate:  mu: +0.275404847  nElectrons: 359.000000  magneticMoment: [ Abs: 9.55575  Tot: +0.00000 ]
LCAOMinimize: Iter:  19  F: -2091.9452027548386468  |grad|_K:  1.218e-02  alpha:  8.286e-03  linmin: -5.052e-03  cgtest:  5.601e-01  t[s]:    397.40
LCAOMinimize: Encountered beta<0, resetting CG.
	FillingsUpdate:  mu: +0.041562250  nElectrons: 359.000000  magneticMoment: [ Abs: 8.17837  Tot: -0.00000 ]
LCAOMinimize: Iter:  20  F: -2093.2403828427741246  |grad|_K:  9.774e-03  alpha:  1.852e-02  linmin: -5.528e-03  cgtest: -5.565e-02  t[s]:    412.11
	FillingsUpdate:  mu: +0.041299872  nElectrons: 359.000000  magneticMoment: [ Abs: 7.60701  Tot: -0.00000 ]
LCAOMinimize: Iter:  21  F: -2093.8682086585172328  |grad|_K:  5.869e-03  alpha:  1.266e-02  linmin:  1.808e-03  cgtest: -2.048e-01  t[s]:    426.86
LCAOMinimize: 	Predicted alpha/alphaT>3.000000, increasing alphaT to 3.799388e-02.
	FillingsUpdate:  mu: +0.101830010  nElectrons: 359.000000  magneticMoment: [ Abs: 8.34920  Tot: +0.00000 ]
LCAOMinimize: Iter:  22  F: -2094.4685069114766520  |grad|_K:  6.593e-03  alpha:  3.409e-02  linmin:  1.451e-02  cgtest:  2.596e-01  t[s]:    445.77
	FillingsUpdate:  mu: +0.098780499  nElectrons: 359.000000  magneticMoment: [ Abs: 8.49747  Tot: +0.00000 ]
LCAOMinimize: Iter:  23  F: -2094.5783827564946478  |grad|_K:  5.336e-03  alpha:  5.789e-03  linmin: -8.473e-03  cgtest:  8.177e-01  t[s]:    460.51
LCAOMinimize: Encountered beta<0, resetting CG.
LCAOMinimize: 	Predicted alpha/alphaT>3.000000, increasing alphaT to 1.736682e-02.
	FillingsUpdate:  mu: -0.015399427  nElectrons: 359.000000  magneticMoment: [ Abs: 8.13714  Tot: -0.00000 ]
LCAOMinimize: Iter:  24  F: -2094.8507407850061099  |grad|_K:  2.959e-03  alpha:  2.062e-02  linmin:  9.367e-03  cgtest: -7.803e-02  t[s]:    479.36
	FillingsUpdate:  mu: +0.001561334  nElectrons: 359.000000  magneticMoment: [ Abs: 8.19409  Tot: +0.00000 ]
LCAOMinimize: Iter:  25  F: -2094.9154542815185778  |grad|_K:  2.794e-03  alpha:  1.717e-02  linmin: -6.457e-04  cgtest:  6.240e-02  t[s]:    494.07
	FillingsUpdate:  mu: +0.020903023  nElectrons: 359.000000  magneticMoment: [ Abs: 8.81754  Tot: -0.00000 ]
LCAOMinimize: Iter:  26  F: -2095.0186455209927772  |grad|_K:  1.444e-03  alpha:  2.863e-02  linmin:  4.893e-03  cgtest: -3.529e-01  t[s]:    508.64
	FillingsUpdate:  mu: +0.018390376  nElectrons: 359.000000  magneticMoment: [ Abs: 8.98060  Tot: +0.00000 ]
LCAOMinimize: Iter:  27  F: -2095.0441878007572996  |grad|_K:  1.511e-03  alpha:  3.013e-02  linmin: -7.171e-04  cgtest:  2.722e-01  t[s]:    522.94
	FillingsUpdate:  mu: +0.009964912  nElectrons: 359.000000  magneticMoment: [ Abs: 9.10455  Tot: -0.00000 ]
LCAOMinimize: Iter:  28  F: -2095.0701324428191583  |grad|_K:  1.151e-03  alpha:  2.337e-02  linmin: -2.628e-05  cgtest: -1.223e-02  t[s]:    537.52
	FillingsUpdate:  mu: +0.006004719  nElectrons: 359.000000  magneticMoment: [ Abs: 9.14179  Tot: -0.00000 ]
LCAOMinimize: Iter:  29  F: -2095.0826212573206249  |grad|_K:  7.821e-04  alpha:  2.020e-02  linmin: -6.125e-04  cgtest:  9.611e-02  t[s]:    552.18
	FillingsUpdate:  mu: +0.010712912  nElectrons: 359.000000  magneticMoment: [ Abs: 9.44669  Tot: -0.00000 ]
LCAOMinimize: Iter:  30  F: -2095.0958091811162376  |grad|_K:  8.747e-04  alpha:  4.468e-02  linmin:  2.788e-05  cgtest: -8.486e-03  t[s]:    566.55
LCAOMinimize: None of the convergence criteria satisfied after 30 iterations.


---- Citations for features of the code used in this run ----

   Software package:
      R. Sundararaman, K. Letchworth-Weaver, K.A. Schwarz, D. Gunceler, Y. Ozhabes and T.A. Arias, 'JDFTx: software for joint density-functional theory', SoftwareX 6, 278 (2017)

   Simplified rotationally-invariant DFT+U:
      S. L. Dudarev et al., Phys. Rev. B 57, 1505 (1998)

   LibXC library of exchange-correlation functions:
      M. A. L. Marques, M. J. T. Oliveira and T. Burnus, Comput. Phys. Commun. 183, 2272 (2012)

   Hammer, Hansen, and Norskov exchange functional:
      B. Hammer, L. B. Hansen, and J. K. Nørskov, Phys. Rev. B 59, 7413 (1999)

   Perdew, Burke & Ernzerhof correlation functional:
      J. P. Perdew, K. Burke, and M. Ernzerhof, Phys. Rev. Lett. 77, 3865 (1996)

   Pseudopotentials:
      M Schlipf and F Gygi, Comput. Phys. Commun. 196, 36 (2015)

   Total energy minimization with Auxiliary Hamiltonian:
      C. Freysoldt, S. Boeck, and J. Neugebauer, Phys. Rev. B 79, 241103(R) (2009)

This list may not be complete. Please suggest additional citations or
report any other bugs at https://github.com/shankar1729/jdftx/issues

Initialization completed successfully at t[s]:    573.13


-------- Electronic minimization -----------
	FillingsUpdate:  mu: +0.010712930  nElectrons: 359.000000  magneticMoment: [ Abs: 9.44669  Tot: -0.00000 ]
ElecMinimize: Iter:   0  F: -2095.095809181117147  |grad|_K:  1.199e-03  alpha:  1.000e+00
	FillingsUpdate:  mu: +0.734223797  nElectrons: 359.000000  magneticMoment: [ Abs: 10.30409  Tot: -0.00000 ]
	SubspaceRotationAdjust: set factor to 0.992
ElecMinimize: Iter:   1  F: -2161.026183898970885  |grad|_K:  1.565e-03  alpha:  4.755e-01  linmin:  1.194e-02  t[s]:    665.19
ElecMinimize: 	Step increased F by 2.277234e+01, reducing alpha to 8.524314e-03.
	FillingsUpdate:  mu: +0.634688996  nElectrons: 359.000000  magneticMoment: [ Abs: 10.33596  Tot: +0.00000 ]
	SubspaceRotationAdjust: set factor to 1.22
ElecMinimize: Iter:   2  F: -2164.367109820050246  |grad|_K:  9.749e-04  alpha:  8.524e-03  linmin: -2.901e-03  t[s]:    782.55
ElecMinimize: 	Predicted alpha/alphaT>3.000000, increasing alphaT to 2.557294e-02.
	FillingsUpdate:  mu: +0.924686876  nElectrons: 359.000000  magneticMoment: [ Abs: 10.93642  Tot: +0.00000 ]
	SubspaceRotationAdjust: set factor to 0.741
ElecMinimize: Iter:   3  F: -2171.869680525765034  |grad|_K:  1.898e-03  alpha:  3.921e-02  linmin:  8.143e-04  t[s]:    889.07
	FillingsUpdate:  mu: +1.218108018  nElectrons: 359.000000  magneticMoment: [ Abs: 12.68890  Tot: -0.00000 ]
	SubspaceRotationAdjust: set factor to 0.411
ElecMinimize: Iter:   4  F: -2182.811139732854826  |grad|_K:  1.899e-03  alpha:  1.931e-02  linmin: -4.707e-05  t[s]:    965.93
	FillingsUpdate:  mu: +0.477849234  nElectrons: 359.000000  magneticMoment: [ Abs: 11.63956  Tot: -0.00000 ]
	SubspaceRotationAdjust: set factor to 0.363
ElecMinimize: Iter:   5  F: -2191.694212378476095  |grad|_K:  8.680e-04  alpha:  1.436e-02  linmin:  2.333e-04  t[s]:   1043.16
	FillingsUpdate:  mu: +0.391817228  nElectrons: 359.000000  magneticMoment: [ Abs: 11.94624  Tot: +0.00000 ]
	SubspaceRotationAdjust: set factor to 0.451
ElecMinimize: Iter:   6  F: -2195.598552531379028  |grad|_K:  6.632e-04  alpha:  3.073e-02  linmin: -5.103e-04  t[s]:   1121.34
ElecMinimize: 	Predicted alpha/alphaT>3.000000, increasing alphaT to 9.218160e-02.
	FillingsUpdate:  mu: +0.349120216  nElectrons: 359.000000  magneticMoment: [ Abs: 13.41687  Tot: -0.00000 ]
	SubspaceRotationAdjust: set factor to 0.395
ElecMinimize: Iter:   7  F: -2202.607816113541048  |grad|_K:  6.476e-04  alpha:  7.111e-02  linmin:  2.669e-04  t[s]:   1227.55
	FillingsUpdate:  mu: +0.282810008  nElectrons: 359.000000  magneticMoment: [ Abs: 14.28982  Tot: -0.00000 ]
	SubspaceRotationAdjust: set factor to 0.48
ElecMinimize: Iter:   8  F: -2204.020509172436959  |grad|_K:  5.171e-04  alpha:  2.070e-02  linmin: -2.673e-04  t[s]:   1303.77
	FillingsUpdate:  mu: +0.226146947  nElectrons: 359.000000  magneticMoment: [ Abs: 15.78571  Tot: +0.00000 ]
	SubspaceRotationAdjust: set factor to 0.44
ElecMinimize: Iter:   9  F: -2205.489553832959245  |grad|_K:  5.107e-04  alpha:  3.069e-02  linmin:  3.076e-04  t[s]:   1378.61
	FillingsUpdate:  mu: +0.377020693  nElectrons: 359.000000  magneticMoment: [ Abs: 17.08183  Tot: -0.00000 ]
	SubspaceRotationAdjust: set factor to 0.313
ElecMinimize: Iter:  10  F: -2206.619998983198457  |grad|_K:  5.385e-04  alpha:  2.696e-02  linmin:  3.494e-05  t[s]:   1457.26
	FillingsUpdate:  mu: +0.306237708  nElectrons: 359.000000  magneticMoment: [ Abs: 18.01004  Tot: +0.00000 ]
	SubspaceRotationAdjust: set factor to 0.264
ElecMinimize: Iter:  11  F: -2207.737908475093263  |grad|_K:  4.191e-04  alpha:  2.217e-02  linmin:  3.069e-05  t[s]:   1532.48
	FillingsUpdate:  mu: +0.234988576  nElectrons: 359.000000  magneticMoment: [ Abs: 18.40046  Tot: +0.00000 ]
	SubspaceRotationAdjust: set factor to 0.306
ElecMinimize: Iter:  12  F: -2208.462887418599621  |grad|_K:  3.452e-04  alpha:  2.396e-02  linmin: -1.671e-05  t[s]:   1609.32
	FillingsUpdate:  mu: +0.226410968  nElectrons: 359.000000  magneticMoment: [ Abs: 18.64202  Tot: -0.00000 ]
	SubspaceRotationAdjust: set factor to 0.332
ElecMinimize: Iter:  13  F: -2209.138777426188426  |grad|_K:  3.343e-04  alpha:  3.181e-02  linmin: -1.183e-04  t[s]:   1684.71
	FillingsUpdate:  mu: +0.191786152  nElectrons: 359.000000  magneticMoment: [ Abs: 18.48335  Tot: +0.00000 ]
	SubspaceRotationAdjust: set factor to 0.342
ElecMinimize: Iter:  14  F: -2209.914652543225657  |grad|_K:  3.141e-04  alpha:  3.759e-02  linmin: -6.143e-05  t[s]:   1762.30
	FillingsUpdate:  mu: +0.091889085  nElectrons: 359.000000  magneticMoment: [ Abs: 18.81066  Tot: -0.00000 ]
	SubspaceRotationAdjust: set factor to 0.447
ElecMinimize: Iter:  15  F: -2210.427625991049808  |grad|_K:  2.481e-04  alpha:  2.912e-02  linmin:  9.891e-06  t[s]:   1839.95
	FillingsUpdate:  mu: +0.089594827  nElectrons: 359.000000  magneticMoment: [ Abs: 19.24641  Tot: +0.00000 ]
	SubspaceRotationAdjust: set factor to 0.479
ElecMinimize: Iter:  16  F: -2210.856387157895369  |grad|_K:  2.634e-04  alpha:  3.911e-02  linmin: -1.524e-04  t[s]:   1915.09
	FillingsUpdate:  mu: +0.101128872  nElectrons: 359.000000  magneticMoment: [ Abs: 20.07616  Tot: +0.00000 ]
	SubspaceRotationAdjust: set factor to 0.623
ElecMinimize: Iter:  17  F: -2211.443383975534744  |grad|_K:  2.262e-04  alpha:  4.704e-02  linmin:  3.156e-04  t[s]:   1990.71
	FillingsUpdate:  mu: +0.163434406  nElectrons: 359.000000  magneticMoment: [ Abs: 21.16113  Tot: +0.00000 ]
	SubspaceRotationAdjust: set factor to 0.633
ElecMinimize: Iter:  18  F: -2211.627893980053159  |grad|_K:  2.432e-04  alpha:  2.810e-02  linmin:  3.266e-05  t[s]:   2066.40
	FillingsUpdate:  mu: +0.188943662  nElectrons: 359.000000  magneticMoment: [ Abs: 22.38310  Tot: -0.00000 ]
	SubspaceRotationAdjust: set factor to 0.859
ElecMinimize: Iter:  19  F: -2211.923513580242343  |grad|_K:  2.065e-04  alpha:  2.951e-02  linmin:  2.712e-05  t[s]:   2142.93
	FillingsUpdate:  mu: +0.207310170  nElectrons: 359.000000  magneticMoment: [ Abs: 22.91191  Tot: -0.00000 ]
	SubspaceRotationAdjust: set factor to 0.707
ElecMinimize: Iter:  20  F: -2212.126586012503594  |grad|_K:  2.468e-04  alpha:  2.766e-02  linmin:  8.307e-05  t[s]:   2219.41
	FillingsUpdate:  mu: +0.195656374  nElectrons: 359.000000  magneticMoment: [ Abs: 23.01579  Tot: +0.00000 ]
	SubspaceRotationAdjust: set factor to 0.512
ElecMinimize: Iter:  21  F: -2212.259145209757207  |grad|_K:  2.622e-04  alpha:  1.177e-02  linmin: -5.358e-05  t[s]:   2296.10
	FillingsUpdate:  mu: +0.130844607  nElectrons: 359.000000  magneticMoment: [ Abs: 22.79994  Tot: +0.00000 ]
	SubspaceRotationAdjust: set factor to 0.425
ElecMinimize: Iter:  22  F: -2212.405392187130019  |grad|_K:  2.178e-04  alpha:  1.157e-02  linmin:  6.485e-05  t[s]:   2372.40
	FillingsUpdate:  mu: +0.122287821  nElectrons: 359.000000  magneticMoment: [ Abs: 22.56016  Tot: -0.00000 ]
	SubspaceRotationAdjust: set factor to 0.381
ElecMinimize: Iter:  23  F: -2212.471683615033726  |grad|_K:  1.989e-04  alpha:  8.501e-03  linmin:  7.488e-06  t[s]:   2448.53
	FillingsUpdate:  mu: +0.104253055  nElectrons: 359.000000  magneticMoment: [ Abs: 22.39278  Tot: -0.00000 ]
	SubspaceRotationAdjust: set factor to 0.271
ElecMinimize: Iter:  24  F: -2212.553625160257525  |grad|_K:  2.258e-04  alpha:  1.201e-02  linmin:  8.386e-06  t[s]:   2524.99
	FillingsUpdate:  mu: +0.145213343  nElectrons: 359.000000  magneticMoment: [ Abs: 22.38707  Tot: +0.00000 ]
	SubspaceRotationAdjust: set factor to 0.176
ElecMinimize: Iter:  25  F: -2212.668424708424482  |grad|_K:  2.319e-04  alpha:  1.302e-02  linmin: -6.847e-06  t[s]:   2600.06
	FillingsUpdate:  mu: +0.167925373  nElectrons: 359.000000  magneticMoment: [ Abs: 22.66525  Tot: -0.00000 ]
	SubspaceRotationAdjust: set factor to 0.136
ElecMinimize: Iter:  26  F: -2212.804474924462284  |grad|_K:  1.856e-04  alpha:  1.441e-02  linmin: -6.666e-06  t[s]:   2678.17
	FillingsUpdate:  mu: +0.132615487  nElectrons: 359.000000  magneticMoment: [ Abs: 23.06728  Tot: +0.00000 ]
	SubspaceRotationAdjust: set factor to 0.161
ElecMinimize: Iter:  27  F: -2212.909739244410957  |grad|_K:  1.502e-04  alpha:  1.719e-02  linmin: -4.695e-05  t[s]:   2755.59
	FillingsUpdate:  mu: +0.123474947  nElectrons: 359.000000  magneticMoment: [ Abs: 23.57218  Tot: +0.00000 ]
	SubspaceRotationAdjust: set factor to 0.21
ElecMinimize: Iter:  28  F: -2213.024722235966692  |grad|_K:  1.373e-04  alpha:  2.691e-02  linmin: -5.622e-05  t[s]:   2830.53
	FillingsUpdate:  mu: +0.136735186  nElectrons: 359.000000  magneticMoment: [ Abs: 24.12666  Tot: -0.00000 ]
	SubspaceRotationAdjust: set factor to 0.23
ElecMinimize: Iter:  29  F: -2213.133212850847940  |grad|_K:  1.491e-04  alpha:  3.134e-02  linmin:  5.440e-05  t[s]:   2908.15
	FillingsUpdate:  mu: +0.116441811  nElectrons: 359.000000  magneticMoment: [ Abs: 24.67772  Tot: -0.00000 ]
	SubspaceRotationAdjust: set factor to 0.192
ElecMinimize: Iter:  30  F: -2213.217363729907447  |grad|_K:  1.614e-04  alpha:  2.267e-02  linmin:  1.010e-05  t[s]:   2986.61
	FillingsUpdate:  mu: +0.105030231  nElectrons: 359.000000  magneticMoment: [ Abs: 25.17200  Tot: +0.00000 ]
	SubspaceRotationAdjust: set factor to 0.198
ElecMinimize: Iter:  31  F: -2213.292022908886338  |grad|_K:  1.354e-04  alpha:  1.661e-02  linmin:  4.376e-06  t[s]:   3063.98
	FillingsUpdate:  mu: +0.096064735  nElectrons: 359.000000  magneticMoment: [ Abs: 25.49192  Tot: +0.00000 ]
	SubspaceRotationAdjust: set factor to 0.24
ElecMinimize: Iter:  32  F: -2213.350386635008817  |grad|_K:  1.210e-04  alpha:  1.828e-02  linmin: -3.549e-05  t[s]:   3139.15
	FillingsUpdate:  mu: +0.116688889  nElectrons: 359.000000  magneticMoment: [ Abs: 25.65935  Tot: -0.00000 ]
	SubspaceRotationAdjust: set factor to 0.25
ElecMinimize: Iter:  33  F: -2213.407357756602778  |grad|_K:  1.193e-04  alpha:  2.189e-02  linmin:  5.671e-05  t[s]:   3212.97
	FillingsUpdate:  mu: +0.117960373  nElectrons: 359.000000  magneticMoment: [ Abs: 25.67500  Tot: +0.00000 ]
	SubspaceRotationAdjust: set factor to 0.247
ElecMinimize: Iter:  34  F: -2213.436909887139791  |grad|_K:  1.160e-04  alpha:  9.864e-03  linmin: -2.505e-04  t[s]:   3288.38
	FillingsUpdate:  mu: +0.117904184  nElectrons: 359.000000  magneticMoment: [ Abs: 25.64581  Tot: -0.00000 ]
	SubspaceRotationAdjust: set factor to 0.248
ElecMinimize: Iter:  35  F: -2213.462471645662390  |grad|_K:  1.062e-04  alpha:  8.873e-03  linmin:  1.609e-04  t[s]:   3367.70
	FillingsUpdate:  mu: +0.113315859  nElectrons: 359.000000  magneticMoment: [ Abs: 25.62371  Tot: -0.00000 ]
	SubspaceRotationAdjust: set factor to 0.258
ElecMinimize: Iter:  36  F: -2213.469313564904041  |grad|_K:  1.002e-04  alpha:  3.355e-03  linmin: -1.690e-04  t[s]:   3442.22
	FillingsUpdate:  mu: +0.102919057  nElectrons: 359.000000  magneticMoment: [ Abs: 25.58981  Tot: -0.00000 ]
	SubspaceRotationAdjust: set factor to 0.293
ElecMinimize: Iter:  37  F: -2213.476527817841543  |grad|_K:  9.113e-05  alpha:  3.735e-03  linmin:  1.192e-04  t[s]:   3520.36
	FillingsUpdate:  mu: +0.094226942  nElectrons: 359.000000  magneticMoment: [ Abs: 25.56632  Tot: -0.00000 ]
	SubspaceRotationAdjust: set factor to 0.342
ElecMinimize: Iter:  38  F: -2213.479708709344777  |grad|_K:  8.643e-05  alpha:  2.296e-03  linmin: -1.412e-05  t[s]:   3596.12
	FillingsUpdate:  mu: +0.086897303  nElectrons: 359.000000  magneticMoment: [ Abs: 25.54169  Tot: +0.00000 ]
	SubspaceRotationAdjust: set factor to 0.407
ElecMinimize: Iter:  39  F: -2213.482463173666019  |grad|_K:  8.201e-05  alpha:  2.089e-03  linmin:  3.394e-05  t[s]:   3673.79
	FillingsUpdate:  mu: +0.080804023  nElectrons: 359.000000  magneticMoment: [ Abs: 25.51922  Tot: -0.00000 ]
	SubspaceRotationAdjust: set factor to 0.472
ElecMinimize: Iter:  40  F: -2213.484448215947850  |grad|_K:  7.950e-05  alpha:  1.716e-03  linmin:  1.670e-05  t[s]:   3749.85
	FillingsUpdate:  mu: +0.079463705  nElectrons: 359.000000  magneticMoment: [ Abs: 25.49695  Tot: +0.00000 ]
	SubspaceRotationAdjust: set factor to 0.51
ElecMinimize: Iter:  41  F: -2213.486115598985634  |grad|_K:  7.833e-05  alpha:  1.524e-03  linmin:  1.745e-05  t[s]:   3825.43
	FillingsUpdate:  mu: +0.078720256  nElectrons: 359.000000  magneticMoment: [ Abs: 25.47451  Tot: +0.00000 ]
	SubspaceRotationAdjust: set factor to 0.504
ElecMinimize: Iter:  42  F: -2213.487594845853891  |grad|_K:  7.811e-05  alpha:  1.395e-03  linmin:  1.460e-05  t[s]:   3901.51
	FillingsUpdate:  mu: +0.078754255  nElectrons: 359.000000  magneticMoment: [ Abs: 25.45153  Tot: +0.00000 ]
	SubspaceRotationAdjust: set factor to 0.459
ElecMinimize: Iter:  43  F: -2213.489007770633634  |grad|_K:  7.786e-05  alpha:  1.339e-03  linmin:  1.283e-05  t[s]:   3979.15
	FillingsUpdate:  mu: +0.079482931  nElectrons: 359.000000  magneticMoment: [ Abs: 25.42829  Tot: +0.00000 ]
	SubspaceRotationAdjust: set factor to 0.393
ElecMinimize: Iter:  44  F: -2213.490419663033663  |grad|_K:  7.655e-05  alpha:  1.345e-03  linmin:  1.114e-05  t[s]:   4056.88
	FillingsUpdate:  mu: +0.080988480  nElectrons: 359.000000  magneticMoment: [ Abs: 25.40575  Tot: +0.00000 ]
	SubspaceRotationAdjust: set factor to 0.325
ElecMinimize: Iter:  45  F: -2213.491851625688923  |grad|_K:  7.359e-05  alpha:  1.411e-03  linmin:  9.140e-06  t[s]:   4132.04
	FillingsUpdate:  mu: +0.080863943  nElectrons: 359.000000  magneticMoment: [ Abs: 25.38532  Tot: -0.00000 ]
	SubspaceRotationAdjust: set factor to 0.266
ElecMinimize: Iter:  46  F: -2213.493290438957047  |grad|_K:  6.911e-05  alpha:  1.532e-03  linmin:  5.825e-06  t[s]:   4209.44
	FillingsUpdate:  mu: +0.080566634  nElectrons: 359.000000  magneticMoment: [ Abs: 25.36830  Tot: -0.00000 ]
	SubspaceRotationAdjust: set factor to 0.217
ElecMinimize: Iter:  47  F: -2213.494707584049138  |grad|_K:  6.365e-05  alpha:  1.708e-03  linmin:  6.209e-07  t[s]:   4285.36
	FillingsUpdate:  mu: +0.081161454  nElectrons: 359.000000  magneticMoment: [ Abs: 25.35565  Tot: +0.00000 ]
	SubspaceRotationAdjust: set factor to 0.179
ElecMinimize: Iter:  48  F: -2213.496074714295901  |grad|_K:  5.788e-05  alpha:  1.938e-03  linmin: -5.621e-06  t[s]:   4363.02
	FillingsUpdate:  mu: +0.083253247  nElectrons: 359.000000  magneticMoment: [ Abs: 25.34783  Tot: -0.00000 ]
	SubspaceRotationAdjust: set factor to 0.15
ElecMinimize: Iter:  49  F: -2213.497370412264900  |grad|_K:  5.232e-05  alpha:  2.217e-03  linmin: -1.108e-05  t[s]:   4441.56
	FillingsUpdate:  mu: +0.084800003  nElectrons: 359.000000  magneticMoment: [ Abs: 25.34486  Tot: +0.00000 ]
	SubspaceRotationAdjust: set factor to 0.127
	SubspaceRotationAdjust: resetting CG because factor has changed by 0.126622
ElecMinimize: 	State modified externally: resetting search direction.
ElecMinimize: Iter:  50  F: -2213.498582652277491  |grad|_K:  4.507e-05  alpha:  2.534e-03
ElecMinimize: 	Predicted alpha/alphaT>3.000000, increasing alphaT to 7.602630e-03.
ElecMinimize: 	Predicted alpha/alphaT>3.000000, increasing alphaT to 2.280789e-02.
ElecMinimize: 	Predicted alpha/alphaT>3.000000, increasing alphaT to 6.842367e-02.
	FillingsUpdate:  mu: +0.116272583  nElectrons: 359.000000  magneticMoment: [ Abs: 25.60773  Tot: +0.00000 ]
	SubspaceRotationAdjust: set factor to 0.0731
ElecMinimize: Iter:  51  F: -2213.584016528787288  |grad|_K:  4.832e-05  alpha:  2.262e-01  linmin: -1.117e-02  t[s]:   4671.01
	FillingsUpdate:  mu: +0.095987198  nElectrons: 359.000000  magneticMoment: [ Abs: 25.78935  Tot: +0.00000 ]
	SubspaceRotationAdjust: set factor to 0.0521
ElecMinimize: Iter:  52  F: -2213.648273863481336  |grad|_K:  3.311e-05  alpha:  1.361e-01  linmin: -7.935e-04  t[s]:   4747.92
ElecMinimize: 	Predicted alpha/alphaT>3.000000, increasing alphaT to 4.083960e-01.
	FillingsUpdate:  mu: +0.100738192  nElectrons: 359.000000  magneticMoment: [ Abs: 26.12407  Tot: -0.00000 ]
	SubspaceRotationAdjust: set factor to 0.0759
ElecMinimize: Iter:  53  F: -2213.740675323855157  |grad|_K:  3.080e-05  alpha:  4.716e-01  linmin: -1.680e-03  t[s]:   4854.48
	FillingsUpdate:  mu: +0.107968552  nElectrons: 359.000000  magneticMoment: [ Abs: 26.36678  Tot: +0.00000 ]
	SubspaceRotationAdjust: set factor to 0.0593
ElecMinimize: Iter:  54  F: -2213.791761825847971  |grad|_K:  3.000e-05  alpha:  3.015e-01  linmin:  3.037e-05  t[s]:   4930.30
	FillingsUpdate:  mu: +0.099564598  nElectrons: 359.000000  magneticMoment: [ Abs: 26.60459  Tot: -0.00000 ]
	SubspaceRotationAdjust: set factor to 0.0419
ElecMinimize: Iter:  55  F: -2213.826605663515238  |grad|_K:  2.089e-05  alpha:  2.219e-01  linmin: -1.900e-05  t[s]:   5007.09
	FillingsUpdate:  mu: +0.093739763  nElectrons: 359.000000  magneticMoment: [ Abs: 26.85586  Tot: -0.00000 ]
	SubspaceRotationAdjust: set factor to 0.0523
ElecMinimize: Iter:  56  F: -2213.856112019481770  |grad|_K:  1.676e-05  alpha:  3.840e-01  linmin: -7.245e-04  t[s]:   5082.38
	FillingsUpdate:  mu: +0.095532694  nElectrons: 359.000000  magneticMoment: [ Abs: 27.02895  Tot: +0.00000 ]
	SubspaceRotationAdjust: set factor to 0.0571
ElecMinimize: Iter:  57  F: -2213.876678079095655  |grad|_K:  1.541e-05  alpha:  4.089e-01  linmin: -4.370e-04  t[s]:   5158.59
	FillingsUpdate:  mu: +0.099778022  nElectrons: 359.000000  magneticMoment: [ Abs: 27.21464  Tot: +0.00000 ]
	SubspaceRotationAdjust: set factor to 0.0511
ElecMinimize: Iter:  58  F: -2213.892814374588397  |grad|_K:  1.453e-05  alpha:  3.840e-01  linmin: -3.265e-04  t[s]:   5235.94
	FillingsUpdate:  mu: +0.096569553  nElectrons: 359.000000  magneticMoment: [ Abs: 27.41221  Tot: -0.00000 ]
	SubspaceRotationAdjust: set factor to 0.0457
ElecMinimize: Iter:  59  F: -2213.907263170627630  |grad|_K:  1.256e-05  alpha:  3.871e-01  linmin: -7.056e-04  t[s]:   5314.43
	FillingsUpdate:  mu: +0.097716272  nElectrons: 359.000000  magneticMoment: [ Abs: 27.68865  Tot: +0.00000 ]
	SubspaceRotationAdjust: set factor to 0.0498
ElecMinimize: Iter:  60  F: -2213.919394292990091  |grad|_K:  1.206e-05  alpha:  4.263e-01  linmin: -1.252e-04  t[s]:   5391.60
	FillingsUpdate:  mu: +0.100871700  nElectrons: 359.000000  magneticMoment: [ Abs: 28.02449  Tot: +0.00000 ]
	SubspaceRotationAdjust: set factor to 0.0549
ElecMinimize: Iter:  61  F: -2213.930991818741859  |grad|_K:  1.196e-05  alpha:  4.547e-01  linmin: -6.364e-05  t[s]:   5468.38
	FillingsUpdate:  mu: +0.099262029  nElectrons: 359.000000  magneticMoment: [ Abs: 28.33735  Tot: -0.00000 ]
	SubspaceRotationAdjust: set factor to 0.0562
ElecMinimize: Iter:  62  F: -2213.941724947829698  |grad|_K:  1.076e-05  alpha:  4.307e-01  linmin: -3.970e-04  t[s]:   5544.17
	FillingsUpdate:  mu: +0.101753834  nElectrons: 359.000000  magneticMoment: [ Abs: 28.65688  Tot: +0.00000 ]
	SubspaceRotationAdjust: set factor to 0.0593
ElecMinimize: Iter:  63  F: -2213.950522301498950  |grad|_K:  9.685e-06  alpha:  4.250e-01  linmin: -1.046e-06  t[s]:   5622.05
	FillingsUpdate:  mu: +0.100412866  nElectrons: 359.000000  magneticMoment: [ Abs: 28.91022  Tot: +0.00000 ]
	SubspaceRotationAdjust: set factor to 0.0669
ElecMinimize: Iter:  64  F: -2213.957405879804355  |grad|_K:  8.653e-06  alpha:  4.215e-01  linmin: -8.217e-05  t[s]:   5697.70
	FillingsUpdate:  mu: +0.099043231  nElectrons: 359.000000  magneticMoment: [ Abs: 29.12536  Tot: +0.00000 ]
	SubspaceRotationAdjust: set factor to 0.0724
ElecMinimize: Iter:  65  F: -2213.963069998924766  |grad|_K:  8.115e-06  alpha:  4.318e-01  linmin: -1.459e-04  t[s]:   5772.43
	FillingsUpdate:  mu: +0.100522168  nElectrons: 359.000000  magneticMoment: [ Abs: 29.37864  Tot: +0.00000 ]
	SubspaceRotationAdjust: set factor to 0.0783
ElecMinimize: Iter:  66  F: -2213.967860586939878  |grad|_K:  7.262e-06  alpha:  4.136e-01  linmin: -1.634e-05  t[s]:   5850.33
	FillingsUpdate:  mu: +0.098887465  nElectrons: 359.000000  magneticMoment: [ Abs: 29.59714  Tot: +0.00000 ]
	SubspaceRotationAdjust: set factor to 0.0868
ElecMinimize: Iter:  67  F: -2213.971942007737198  |grad|_K:  6.907e-06  alpha:  4.437e-01  linmin: -4.582e-05  t[s]:   5928.05
	FillingsUpdate:  mu: +0.098715568  nElectrons: 359.000000  magneticMoment: [ Abs: 29.81900  Tot: +0.00000 ]
	SubspaceRotationAdjust: set factor to 0.0983
ElecMinimize: Iter:  68  F: -2213.975434192080229  |grad|_K:  6.390e-06  alpha:  4.191e-01  linmin: -3.132e-05  t[s]:   6005.98
	FillingsUpdate:  mu: +0.099087674  nElectrons: 359.000000  magneticMoment: [ Abs: 30.04070  Tot: -0.00000 ]
	SubspaceRotationAdjust: set factor to 0.108
ElecMinimize: Iter:  69  F: -2213.978463718557578  |grad|_K:  6.184e-06  alpha:  4.251e-01  linmin: -6.292e-05  t[s]:   6085.11
	FillingsUpdate:  mu: +0.097253944  nElectrons: 359.000000  magneticMoment: [ Abs: 30.22038  Tot: +0.00000 ]
	SubspaceRotationAdjust: set factor to 0.11
ElecMinimize: Iter:  70  F: -2213.981217167186060  |grad|_K:  6.100e-06  alpha:  4.112e-01  linmin:  3.580e-05  t[s]:   6159.15
	FillingsUpdate:  mu: +0.100075188  nElectrons: 359.000000  magneticMoment: [ Abs: 30.44585  Tot: -0.00000 ]
	SubspaceRotationAdjust: set factor to 0.101
ElecMinimize: Iter:  71  F: -2213.983607127507639  |grad|_K:  5.736e-06  alpha:  3.712e-01  linmin: -1.242e-04  t[s]:   6232.98
	FillingsUpdate:  mu: +0.097437963  nElectrons: 359.000000  magneticMoment: [ Abs: 30.58899  Tot: -0.00000 ]
	SubspaceRotationAdjust: set factor to 0.0868
ElecMinimize: Iter:  72  F: -2213.985604337445693  |grad|_K:  5.279e-06  alpha:  3.441e-01  linmin:  1.229e-04  t[s]:   6311.92
	FillingsUpdate:  mu: +0.098992953  nElectrons: 359.000000  magneticMoment: [ Abs: 30.78102  Tot: -0.00000 ]
	SubspaceRotationAdjust: set factor to 0.0862
ElecMinimize: Iter:  73  F: -2213.987378094640917  |grad|_K:  4.650e-06  alpha:  3.694e-01  linmin: -1.157e-04  t[s]:   6390.78
	FillingsUpdate:  mu: +0.098608457  nElectrons: 359.000000  magneticMoment: [ Abs: 30.92134  Tot: +0.00000 ]
	SubspaceRotationAdjust: set factor to 0.0968
ElecMinimize: Iter:  74  F: -2213.988853795153773  |grad|_K:  4.273e-06  alpha:  3.876e-01  linmin:  7.708e-06  t[s]:   6467.94
	FillingsUpdate:  mu: +0.097744454  nElectrons: 359.000000  magneticMoment: [ Abs: 31.05477  Tot: -0.00000 ]
	SubspaceRotationAdjust: set factor to 0.108
ElecMinimize: Iter:  75  F: -2213.990176610849630  |grad|_K:  4.270e-06  alpha:  4.165e-01  linmin:  1.363e-05  t[s]:   6546.05
	FillingsUpdate:  mu: +0.099278509  nElectrons: 359.000000  magneticMoment: [ Abs: 31.20913  Tot: +0.00000 ]
	SubspaceRotationAdjust: set factor to 0.107
ElecMinimize: Iter:  76  F: -2213.991398350918189  |grad|_K:  4.283e-06  alpha:  3.858e-01  linmin: -7.215e-05  t[s]:   6623.62
	FillingsUpdate:  mu: +0.097433960  nElectrons: 359.000000  magneticMoment: [ Abs: 31.31990  Tot: -0.00000 ]
	SubspaceRotationAdjust: set factor to 0.0963
ElecMinimize: Iter:  77  F: -2213.992561183281850  |grad|_K:  4.369e-06  alpha:  3.606e-01  linmin:  7.519e-05  t[s]:   6705.38
	FillingsUpdate:  mu: +0.099594177  nElectrons: 359.000000  magneticMoment: [ Abs: 31.48727  Tot: -0.00000 ]
	SubspaceRotationAdjust: set factor to 0.0912
ElecMinimize: Iter:  78  F: -2213.993784558516381  |grad|_K:  4.169e-06  alpha:  3.710e-01  linmin: -8.851e-05  t[s]:   6783.94
	FillingsUpdate:  mu: +0.099189111  nElectrons: 359.000000  magneticMoment: [ Abs: 31.62270  Tot: +0.00000 ]
	SubspaceRotationAdjust: set factor to 0.101
ElecMinimize: Iter:  79  F: -2213.994972151109323  |grad|_K:  3.951e-06  alpha:  3.880e-01  linmin:  1.853e-05  t[s]:   6861.11
	FillingsUpdate:  mu: +0.098628428  nElectrons: 359.000000  magneticMoment: [ Abs: 31.74867  Tot: +0.00000 ]
	SubspaceRotationAdjust: set factor to 0.112
ElecMinimize: Iter:  80  F: -2213.996053168803883  |grad|_K:  3.819e-06  alpha:  3.988e-01  linmin:  1.102e-05  t[s]:   6939.10
	FillingsUpdate:  mu: +0.100769607  nElectrons: 359.000000  magneticMoment: [ Abs: 31.87766  Tot: -0.00000 ]
	SubspaceRotationAdjust: set factor to 0.108
ElecMinimize: Iter:  81  F: -2213.996987492648259  |grad|_K:  3.706e-06  alpha:  3.691e-01  linmin: -8.640e-05  t[s]:   7015.74
	FillingsUpdate:  mu: +0.098499595  nElectrons: 359.000000  magneticMoment: [ Abs: 31.94665  Tot: -0.00000 ]
	SubspaceRotationAdjust: set factor to 0.0927
ElecMinimize: Iter:  82  F: -2213.997758602834438  |grad|_K:  3.494e-06  alpha:  3.183e-01  linmin:  6.231e-05  t[s]:   7092.03
	FillingsUpdate:  mu: +0.099819032  nElectrons: 359.000000  magneticMoment: [ Abs: 32.03967  Tot: +0.00000 ]
	SubspaceRotationAdjust: set factor to 0.0983
ElecMinimize: Iter:  83  F: -2213.998507636596969  |grad|_K:  3.128e-06  alpha:  3.533e-01  linmin: -2.146e-04  t[s]:   7169.13
	FillingsUpdate:  mu: +0.099779270  nElectrons: 359.000000  magneticMoment: [ Abs: 32.10650  Tot: +0.00000 ]
	SubspaceRotationAdjust: set factor to 0.111
ElecMinimize: Iter:  84  F: -2213.999189876171386  |grad|_K:  2.995e-06  alpha:  3.912e-01  linmin:  7.800e-06  t[s]:   7244.80
	FillingsUpdate:  mu: +0.098253423  nElectrons: 359.000000  magneticMoment: [ Abs: 32.15860  Tot: -0.00000 ]
	SubspaceRotationAdjust: set factor to 0.111
ElecMinimize: Iter:  85  F: -2213.999811420788774  |grad|_K:  3.609e-06  alpha:  3.995e-01  linmin:  6.662e-04  t[s]:   7321.79
	FillingsUpdate:  mu: +0.099909089  nElectrons: 359.000000  magneticMoment: [ Abs: 32.24391  Tot: +0.00000 ]
	SubspaceRotationAdjust: set factor to 0.126
ElecMinimize: Iter:  86  F: -2214.000577247256388  |grad|_K:  3.747e-06  alpha:  3.658e-01  linmin: -2.198e-04  t[s]:   7399.16
	FillingsUpdate:  mu: +0.101080618  nElectrons: 359.000000  magneticMoment: [ Abs: 32.29988  Tot: -0.00000 ]
	SubspaceRotationAdjust: set factor to 0.148
ElecMinimize: Iter:  87  F: -2214.001291325178045  |grad|_K:  3.351e-06  alpha:  2.831e-01  linmin:  7.567e-06  t[s]:   7475.82
	FillingsUpdate:  mu: +0.099539060  nElectrons: 359.000000  magneticMoment: [ Abs: 32.32797  Tot: -0.00000 ]
	SubspaceRotationAdjust: set factor to 0.164
ElecMinimize: Iter:  88  F: -2214.001879489332623  |grad|_K:  3.013e-06  alpha:  3.006e-01  linmin: -1.346e-04  t[s]:   7554.71
	FillingsUpdate:  mu: +0.099468891  nElectrons: 359.000000  magneticMoment: [ Abs: 32.34680  Tot: -0.00000 ]
	SubspaceRotationAdjust: set factor to 0.205
ElecMinimize: Iter:  89  F: -2214.002372242958245  |grad|_K:  2.933e-06  alpha:  3.066e-01  linmin: -6.688e-05  t[s]:   7631.22
	FillingsUpdate:  mu: +0.100337549  nElectrons: 359.000000  magneticMoment: [ Abs: 32.36100  Tot: -0.00000 ]
	SubspaceRotationAdjust: set factor to 0.242
ElecMinimize: Iter:  90  F: -2214.002882046181639  |grad|_K:  3.048e-06  alpha:  3.367e-01  linmin: -8.963e-05  t[s]:   7708.82
	FillingsUpdate:  mu: +0.099003700  nElectrons: 359.000000  magneticMoment: [ Abs: 32.35969  Tot: -0.00000 ]
	SubspaceRotationAdjust: set factor to 0.279
ElecMinimize: Iter:  91  F: -2214.003351313669100  |grad|_K:  3.141e-06  alpha:  2.806e-01  linmin:  1.469e-04  t[s]:   7786.56
	FillingsUpdate:  mu: +0.097967770  nElectrons: 359.000000  magneticMoment: [ Abs: 32.34703  Tot: -0.00000 ]
	SubspaceRotationAdjust: set factor to 0.368
ElecMinimize: Iter:  92  F: -2214.003791754224494  |grad|_K:  3.328e-06  alpha:  2.621e-01  linmin:  3.702e-05  t[s]:   7860.82
	FillingsUpdate:  mu: +0.099511919  nElectrons: 359.000000  magneticMoment: [ Abs: 32.33529  Tot: -0.00000 ]
	SubspaceRotationAdjust: set factor to 0.425
ElecMinimize: Iter:  93  F: -2214.004241539730629  |grad|_K:  3.410e-06  alpha:  2.360e-01  linmin: -7.643e-05  t[s]:   7938.57
	FillingsUpdate:  mu: +0.099499585  nElectrons: 359.000000  magneticMoment: [ Abs: 32.32439  Tot: +0.00000 ]
	SubspaceRotationAdjust: set factor to 0.435
ElecMinimize: Iter:  94  F: -2214.004615392138476  |grad|_K:  3.457e-06  alpha:  1.831e-01  linmin: -2.941e-05  t[s]:   8015.54
	FillingsUpdate:  mu: +0.099420882  nElectrons: 359.000000  magneticMoment: [ Abs: 32.31075  Tot: -0.00000 ]
	SubspaceRotationAdjust: set factor to 0.42
ElecMinimize: Iter:  95  F: -2214.004939712814121  |grad|_K:  3.000e-06  alpha:  1.555e-01  linmin: -3.705e-05  t[s]:   8088.80
	FillingsUpdate:  mu: +0.098546124  nElectrons: 359.000000  magneticMoment: [ Abs: 32.30000  Tot: +0.00000 ]
	SubspaceRotationAdjust: set factor to 0.454
ElecMinimize: Iter:  96  F: -2214.005232593425717  |grad|_K:  2.749e-06  alpha:  1.859e-01  linmin:  5.280e-05  t[s]:   8163.12
	FillingsUpdate:  mu: +0.099400678  nElectrons: 359.000000  magneticMoment: [ Abs: 32.29895  Tot: -0.00000 ]
	SubspaceRotationAdjust: set factor to 0.475
ElecMinimize: Iter:  97  F: -2214.005473582408740  |grad|_K:  2.545e-06  alpha:  1.848e-01  linmin: -4.203e-05  t[s]:   8243.46
	FillingsUpdate:  mu: +0.098307015  nElectrons: 359.000000  magneticMoment: [ Abs: 32.29411  Tot: +0.00000 ]
	SubspaceRotationAdjust: set factor to 0.439
ElecMinimize: Iter:  98  F: -2214.005676772392690  |grad|_K:  2.676e-06  alpha:  1.789e-01  linmin:  1.237e-04  t[s]:   8320.24
	FillingsUpdate:  mu: +0.098860610  nElectrons: 359.000000  magneticMoment: [ Abs: 32.29415  Tot: -0.00000 ]
	SubspaceRotationAdjust: set factor to 0.423
ElecMinimize: Iter:  99  F: -2214.005846010945334  |grad|_K:  2.507e-06  alpha:  1.389e-01  linmin: -3.469e-05  t[s]:   8396.80
	FillingsUpdate:  mu: +0.098525455  nElectrons: 359.000000  magneticMoment: [ Abs: 32.29575  Tot: +0.00000 ]
	SubspaceRotationAdjust: set factor to 0.445
ElecMinimize: Iter: 100  F: -2214.006046045776202  |grad|_K:  2.196e-06  alpha:  1.819e-01  linmin:  1.459e-05  t[s]:   8475.90
	FillingsUpdate:  mu: +0.099359119  nElectrons: 359.000000  magneticMoment: [ Abs: 32.30501  Tot: -0.00000 ]
	SubspaceRotationAdjust: set factor to 0.492
ElecMinimize: Iter: 101  F: -2214.006222651210464  |grad|_K:  2.109e-06  alpha:  2.103e-01  linmin: -5.890e-05  t[s]:   8553.79
	FillingsUpdate:  mu: +0.098342973  nElectrons: 359.000000  magneticMoment: [ Abs: 32.30892  Tot: -0.00000 ]
	SubspaceRotationAdjust: set factor to 0.465
ElecMinimize: Iter: 102  F: -2214.006362965275912  |grad|_K:  2.251e-06  alpha:  1.783e-01  linmin:  6.028e-05  t[s]:   8631.38
	FillingsUpdate:  mu: +0.098910402  nElectrons: 359.000000  magneticMoment: [ Abs: 32.32185  Tot: -0.00000 ]
	SubspaceRotationAdjust: set factor to 0.425
ElecMinimize: Iter: 103  F: -2214.006473653880221  |grad|_K:  2.069e-06  alpha:  1.282e-01  linmin: -1.561e-05  t[s]:   8709.39
	FillingsUpdate:  mu: +0.098640205  nElectrons: 359.000000  magneticMoment: [ Abs: 32.33660  Tot: -0.00000 ]
	SubspaceRotationAdjust: set factor to 0.439
ElecMinimize: Iter: 104  F: -2214.006610672186525  |grad|_K:  1.806e-06  alpha:  1.836e-01  linmin:  1.933e-05  t[s]:   8786.20
	FillingsUpdate:  mu: +0.098959482  nElectrons: 359.000000  magneticMoment: [ Abs: 32.35423  Tot: -0.00000 ]
	SubspaceRotationAdjust: set factor to 0.5
ElecMinimize: Iter: 105  F: -2214.006730812979640  |grad|_K:  1.669e-06  alpha:  2.121e-01  linmin: -4.411e-05  t[s]:   8861.68
	FillingsUpdate:  mu: +0.098239851  nElectrons: 359.000000  magneticMoment: [ Abs: 32.36774  Tot: -0.00000 ]
	SubspaceRotationAdjust: set factor to 0.508
ElecMinimize: Iter: 106  F: -2214.006831904629053  |grad|_K:  1.767e-06  alpha:  2.065e-01  linmin:  4.090e-05  t[s]:   8938.49
	FillingsUpdate:  mu: +0.098860798  nElectrons: 359.000000  magneticMoment: [ Abs: 32.39099  Tot: -0.00000 ]
	SubspaceRotationAdjust: set factor to 0.476
ElecMinimize: Iter: 107  F: -2214.006904968014624  |grad|_K:  1.742e-06  alpha:  1.367e-01  linmin: -9.442e-07  t[s]:   9013.62
	FillingsUpdate:  mu: +0.098544095  nElectrons: 359.000000  magneticMoment: [ Abs: 32.41473  Tot: +0.00000 ]
	SubspaceRotationAdjust: set factor to 0.493
ElecMinimize: Iter: 108  F: -2214.006989670508119  |grad|_K:  1.565e-06  alpha:  1.602e-01  linmin: -1.171e-05  t[s]:   9089.14
	FillingsUpdate:  mu: +0.098709768  nElectrons: 359.000000  magneticMoment: [ Abs: 32.44577  Tot: -0.00000 ]
	SubspaceRotationAdjust: set factor to 0.581
ElecMinimize: Iter: 109  F: -2214.007079280927428  |grad|_K:  1.438e-06  alpha:  2.092e-01  linmin: -5.696e-05  t[s]:   9164.74
	FillingsUpdate:  mu: +0.098161658  nElectrons: 359.000000  magneticMoment: [ Abs: 32.47024  Tot: -0.00000 ]
	SubspaceRotationAdjust: set factor to 0.648
ElecMinimize: Iter: 110  F: -2214.007159368107750  |grad|_K:  1.546e-06  alpha:  2.206e-01  linmin:  8.297e-05  t[s]:   9241.10
	FillingsUpdate:  mu: +0.098659776  nElectrons: 359.000000  magneticMoment: [ Abs: 32.50049  Tot: -0.00000 ]
	SubspaceRotationAdjust: set factor to 0.617
ElecMinimize: Iter: 111  F: -2214.007222164753330  |grad|_K:  1.676e-06  alpha:  1.550e-01  linmin: -1.754e-05  t[s]:   9319.41
	FillingsUpdate:  mu: +0.098232716  nElectrons: 359.000000  magneticMoment: [ Abs: 32.52390  Tot: -0.00000 ]
	SubspaceRotationAdjust: set factor to 0.59
ElecMinimize: Iter: 112  F: -2214.007283248341082  |grad|_K:  1.585e-06  alpha:  1.241e-01  linmin:  1.392e-05  t[s]:   9397.82
	FillingsUpdate:  mu: +0.098294520  nElectrons: 359.000000  magneticMoment: [ Abs: 32.55856  Tot: +0.00000 ]
	SubspaceRotationAdjust: set factor to 0.718
ElecMinimize: Iter: 113  F: -2214.007356970231285  |grad|_K:  1.382e-06  alpha:  1.672e-01  linmin: -1.427e-04  t[s]:   9474.12
	FillingsUpdate:  mu: +0.098041506  nElectrons: 359.000000  magneticMoment: [ Abs: 32.58727  Tot: +0.00000 ]
	SubspaceRotationAdjust: set factor to 0.862
ElecMinimize: Iter: 114  F: -2214.007430252794620  |grad|_K:  1.386e-06  alpha:  2.155e-01  linmin:  1.181e-04  t[s]:   9551.40
	FillingsUpdate:  mu: +0.098396741  nElectrons: 359.000000  magneticMoment: [ Abs: 32.61698  Tot: -0.00000 ]
	SubspaceRotationAdjust: set factor to 1.04
	SubspaceRotationAdjust: resetting CG because factor has changed by 8.20074
ElecMinimize: 	State modified externally: resetting search direction.
ElecMinimize: Iter: 115  F: -2214.007495156758523  |grad|_K:  1.527e-06  alpha:  1.997e-01
	FillingsUpdate:  mu: +0.097851132  nElectrons: 359.000000  magneticMoment: [ Abs: 32.61670  Tot: +0.00000 ]
	SubspaceRotationAdjust: set factor to 0.576
ElecMinimize: Iter: 116  F: -2214.007551740779491  |grad|_K:  2.282e-06  alpha:  1.383e-01  linmin:  1.976e-05  t[s]:   9723.53
	FillingsUpdate:  mu: +0.098060593  nElectrons: 359.000000  magneticMoment: [ Abs: 32.62341  Tot: -0.00000 ]
	SubspaceRotationAdjust: set factor to 0.491
ElecMinimize: Iter: 117  F: -2214.007611730080953  |grad|_K:  1.330e-06  alpha:  6.631e-02  linmin:  8.452e-06  t[s]:   9799.73
ElecMinimize: 	Predicted alpha/alphaT>3.000000, increasing alphaT to 1.989277e-01.
	FillingsUpdate:  mu: +0.099113309  nElectrons: 359.000000  magneticMoment: [ Abs: 32.62062  Tot: -0.00000 ]
	SubspaceRotationAdjust: set factor to 0.455
ElecMinimize: Iter: 118  F: -2214.007716825880379  |grad|_K:  1.369e-06  alpha:  3.425e-01  linmin:  5.601e-05  t[s]:   9903.56
	FillingsUpdate:  mu: +0.098067991  nElectrons: 359.000000  magneticMoment: [ Abs: 32.61456  Tot: -0.00000 ]
	SubspaceRotationAdjust: set factor to 0.347
ElecMinimize: Iter: 119  F: -2214.007769653118430  |grad|_K:  1.443e-06  alpha:  1.605e-01  linmin: -8.513e-05  t[s]:   9979.64
	FillingsUpdate:  mu: +0.097492458  nElectrons: 359.000000  magneticMoment: [ Abs: 32.61630  Tot: +0.00000 ]
	SubspaceRotationAdjust: set factor to 0.31
ElecMinimize: Iter: 120  F: -2214.007826744929389  |grad|_K:  1.025e-06  alpha:  1.562e-01  linmin: -6.861e-06  t[s]:  10054.90
	FillingsUpdate:  mu: +0.098532229  nElectrons: 359.000000  magneticMoment: [ Abs: 32.61991  Tot: -0.00000 ]
	SubspaceRotationAdjust: set factor to 0.336
ElecMinimize: Iter: 121  F: -2214.007874737776547  |grad|_K:  8.383e-07  alpha:  2.621e-01  linmin:  1.610e-05  t[s]:  10132.07
	FillingsUpdate:  mu: +0.098534343  nElectrons: 359.000000  magneticMoment: [ Abs: 32.61802  Tot: -0.00000 ]
	SubspaceRotationAdjust: set factor to 0.245
ElecMinimize: Iter: 122  F: -2214.007902577649929  |grad|_K:  9.814e-07  alpha:  2.272e-01  linmin:  9.449e-05  t[s]:  10209.08
	FillingsUpdate:  mu: +0.097995447  nElectrons: 359.000000  magneticMoment: [ Abs: 32.61802  Tot: +0.00000 ]
	SubspaceRotationAdjust: set factor to 0.24
ElecMinimize: Iter: 123  F: -2214.007941959505843  |grad|_K:  8.632e-07  alpha:  2.362e-01  linmin:  1.329e-05  t[s]:  10285.50
	FillingsUpdate:  mu: +0.097899160  nElectrons: 359.000000  magneticMoment: [ Abs: 32.61893  Tot: -0.00000 ]
	SubspaceRotationAdjust: set factor to 0.278
ElecMinimize: Iter: 124  F: -2214.007992170718808  |grad|_K:  1.143e-06  alpha:  3.873e-01  linmin: -1.224e-05  t[s]:  10363.48
	FillingsUpdate:  mu: +0.097937819  nElectrons: 359.000000  magneticMoment: [ Abs: 32.61807  Tot: +0.00000 ]
	SubspaceRotationAdjust: set factor to 0.235
ElecMinimize: Iter: 125  F: -2214.008059420915288  |grad|_K:  1.335e-06  alpha:  2.920e-01  linmin:  4.762e-05  t[s]:  10441.77
	FillingsUpdate:  mu: +0.098665181  nElectrons: 359.000000  magneticMoment: [ Abs: 32.62240  Tot: +0.00000 ]
	SubspaceRotationAdjust: set factor to 0.243
ElecMinimize: Iter: 126  F: -2214.008166268832156  |grad|_K:  1.601e-06  alpha:  3.477e-01  linmin:  1.073e-04  t[s]:  10518.30
	FillingsUpdate:  mu: +0.098421097  nElectrons: 359.000000  magneticMoment: [ Abs: 32.62245  Tot: -0.00000 ]
	SubspaceRotationAdjust: set factor to 0.267
ElecMinimize: Iter: 127  F: -2214.008316251375618  |grad|_K:  1.927e-06  alpha:  3.421e-01  linmin:  3.150e-04  t[s]:  10595.29
	FillingsUpdate:  mu: +0.097417316  nElectrons: 359.000000  magneticMoment: [ Abs: 32.61607  Tot: -0.00000 ]
	SubspaceRotationAdjust: set factor to 0.272
ElecMinimize: Iter: 128  F: -2214.008441862373274  |grad|_K:  1.904e-06  alpha:  2.043e-01  linmin: -3.743e-05  t[s]:  10672.78
	FillingsUpdate:  mu: +0.097582669  nElectrons: 359.000000  magneticMoment: [ Abs: 32.61371  Tot: +0.00000 ]
	SubspaceRotationAdjust: set factor to 0.317
ElecMinimize: Iter: 129  F: -2214.008590954438205  |grad|_K:  1.830e-06  alpha:  2.381e-01  linmin:  4.333e-04  t[s]:  10748.93
	FillingsUpdate:  mu: +0.098383732  nElectrons: 359.000000  magneticMoment: [ Abs: 32.61729  Tot: +0.00000 ]
	SubspaceRotationAdjust: set factor to 0.261
ElecMinimize: Iter: 130  F: -2214.008682507444519  |grad|_K:  2.114e-06  alpha:  1.613e-01  linmin: -1.016e-05  t[s]:  10826.65
	FillingsUpdate:  mu: +0.098661676  nElectrons: 359.000000  magneticMoment: [ Abs: 32.62104  Tot: -0.00000 ]
	SubspaceRotationAdjust: set factor to 0.274
ElecMinimize: Iter: 131  F: -2214.008800079890079  |grad|_K:  1.868e-06  alpha:  1.512e-01  linmin: -1.373e-04  t[s]:  10903.72
	FillingsUpdate:  mu: +0.098333547  nElectrons: 359.000000  magneticMoment: [ Abs: 32.62225  Tot: +0.00000 ]
	SubspaceRotationAdjust: set factor to 0.323
ElecMinimize: Iter: 132  F: -2214.008896118710709  |grad|_K:  1.690e-06  alpha:  1.546e-01  linmin: -3.864e-04  t[s]:  10980.18
	FillingsUpdate:  mu: +0.098277225  nElectrons: 359.000000  magneticMoment: [ Abs: 32.62938  Tot: -0.00000 ]
	SubspaceRotationAdjust: set factor to 0.388
ElecMinimize: Iter: 133  F: -2214.009011589130296  |grad|_K:  1.653e-06  alpha:  2.220e-01  linmin:  1.928e-04  t[s]:  11056.26
	FillingsUpdate:  mu: +0.098781385  nElectrons: 359.000000  magneticMoment: [ Abs: 32.64049  Tot: -0.00000 ]
	SubspaceRotationAdjust: set factor to 0.462
ElecMinimize: Iter: 134  F: -2214.009126561693847  |grad|_K:  1.824e-06  alpha:  2.486e-01  linmin:  8.364e-05  t[s]:  11131.38
	FillingsUpdate:  mu: +0.098835867  nElectrons: 359.000000  magneticMoment: [ Abs: 32.64887  Tot: -0.00000 ]
	SubspaceRotationAdjust: set factor to 0.392
ElecMinimize: Iter: 135  F: -2214.009238152681519  |grad|_K:  2.170e-06  alpha:  1.982e-01  linmin: -1.153e-04  t[s]:  11207.86
	FillingsUpdate:  mu: +0.098999138  nElectrons: 359.000000  magneticMoment: [ Abs: 32.66043  Tot: -0.00000 ]
	SubspaceRotationAdjust: set factor to 0.353
ElecMinimize: Iter: 136  F: -2214.009331319583907  |grad|_K:  1.997e-06  alpha:  1.029e-01  linmin: -2.915e-04  t[s]:  11278.36
	FillingsUpdate:  mu: +0.098664889  nElectrons: 359.000000  magneticMoment: [ Abs: 32.67152  Tot: -0.00000 ]
	SubspaceRotationAdjust: set factor to 0.4
ElecMinimize: Iter: 137  F: -2214.009458083729442  |grad|_K:  1.945e-06  alpha:  1.727e-01  linmin: -1.168e-04  t[s]:  11353.88
	FillingsUpdate:  mu: +0.099023744  nElectrons: 359.000000  magneticMoment: [ Abs: 32.68293  Tot: -0.00000 ]
	SubspaceRotationAdjust: set factor to 0.352
ElecMinimize: Iter: 138  F: -2214.009566264215209  |grad|_K:  2.123e-06  alpha:  1.616e-01  linmin: -1.755e-04  t[s]:  11433.58
	FillingsUpdate:  mu: +0.099677047  nElectrons: 359.000000  magneticMoment: [ Abs: 32.70327  Tot: -0.00000 ]
	SubspaceRotationAdjust: set factor to 0.336
ElecMinimize: Iter: 139  F: -2214.009659471252235  |grad|_K:  1.870e-06  alpha:  1.099e-01  linmin:  3.364e-07  t[s]:  11509.29
	FillingsUpdate:  mu: +0.099615148  nElectrons: 359.000000  magneticMoment: [ Abs: 32.72170  Tot: -0.00000 ]
	SubspaceRotationAdjust: set factor to 0.332
ElecMinimize: Iter: 140  F: -2214.009772766175956  |grad|_K:  2.022e-06  alpha:  1.865e-01  linmin:  6.662e-05  t[s]:  11586.56
	FillingsUpdate:  mu: +0.099011607  nElectrons: 359.000000  magneticMoment: [ Abs: 32.72805  Tot: -0.00000 ]
	SubspaceRotationAdjust: set factor to 0.356
ElecMinimize: Iter: 141  F: -2214.009855676154075  |grad|_K:  1.894e-06  alpha:  1.210e-01  linmin: -8.296e-06  t[s]:  11661.21
	FillingsUpdate:  mu: +0.098919547  nElectrons: 359.000000  magneticMoment: [ Abs: 32.74856  Tot: +0.00000 ]
	SubspaceRotationAdjust: set factor to 0.413
ElecMinimize: Iter: 142  F: -2214.009960497754946  |grad|_K:  1.714e-06  alpha:  1.696e-01  linmin:  2.130e-04  t[s]:  11735.91
	FillingsUpdate:  mu: +0.099677285  nElectrons: 359.000000  magneticMoment: [ Abs: 32.77125  Tot: -0.00000 ]
	SubspaceRotationAdjust: set factor to 0.345
ElecMinimize: Iter: 143  F: -2214.010047803639281  |grad|_K:  2.050e-06  alpha:  1.772e-01  linmin:  9.701e-05  t[s]:  11812.04
	FillingsUpdate:  mu: +0.099575588  nElectrons: 359.000000  magneticMoment: [ Abs: 32.78010  Tot: -0.00000 ]
	SubspaceRotationAdjust: set factor to 0.403
ElecMinimize: Iter: 144  F: -2214.010126884018064  |grad|_K:  1.788e-06  alpha:  1.132e-01  linmin: -3.255e-06  t[s]:  11888.84
	FillingsUpdate:  mu: +0.099303596  nElectrons: 359.000000  magneticMoment: [ Abs: 32.79746  Tot: +0.00000 ]
	SubspaceRotationAdjust: set factor to 0.49
ElecMinimize: Iter: 145  F: -2214.010231785362066  |grad|_K:  1.778e-06  alpha:  1.924e-01  linmin:  3.072e-04  t[s]:  11964.56
	FillingsUpdate:  mu: +0.099523965  nElectrons: 359.000000  magneticMoment: [ Abs: 32.81765  Tot: -0.00000 ]
	SubspaceRotationAdjust: set factor to 0.379
ElecMinimize: Iter: 146  F: -2214.010319523222734  |grad|_K:  2.077e-06  alpha:  1.668e-01  linmin:  1.329e-04  t[s]:  12039.96
	FillingsUpdate:  mu: +0.099648349  nElectrons: 359.000000  magneticMoment: [ Abs: 32.82861  Tot: +0.00000 ]
	SubspaceRotationAdjust: set factor to 0.399
ElecMinimize: Iter: 147  F: -2214.010388349372079  |grad|_K:  1.763e-06  alpha:  9.633e-02  linmin:  2.184e-05  t[s]:  12119.21
	FillingsUpdate:  mu: +0.099862872  nElectrons: 359.000000  magneticMoment: [ Abs: 32.85305  Tot: -0.00000 ]
	SubspaceRotationAdjust: set factor to 0.467
ElecMinimize: Iter: 148  F: -2214.010479290644980  |grad|_K:  1.662e-06  alpha:  1.676e-01  linmin: -4.222e-05  t[s]:  12197.67
	FillingsUpdate:  mu: +0.099742750  nElectrons: 359.000000  magneticMoment: [ Abs: 32.87179  Tot: +0.00000 ]
	SubspaceRotationAdjust: set factor to 0.426
ElecMinimize: Iter: 149  F: -2214.010563695519522  |grad|_K:  1.816e-06  alpha:  1.745e-01  linmin:  1.018e-04  t[s]:  12273.89
	FillingsUpdate:  mu: +0.099738025  nElectrons: 359.000000  magneticMoment: [ Abs: 32.87899  Tot: +0.00000 ]
	SubspaceRotationAdjust: set factor to 0.425
ElecMinimize: Iter: 150  F: -2214.010628870033543  |grad|_K:  1.814e-06  alpha:  1.177e-01  linmin: -2.778e-05  t[s]:  12352.94
	FillingsUpdate:  mu: +0.099738051  nElectrons: 359.000000  magneticMoment: [ Abs: 32.89972  Tot: +0.00000 ]
	SubspaceRotationAdjust: set factor to 0.458
ElecMinimize: Iter: 151  F: -2214.010706045412462  |grad|_K:  1.578e-06  alpha:  1.350e-01  linmin:  2.430e-04  t[s]:  12430.82
	FillingsUpdate:  mu: +0.099860508  nElectrons: 359.000000  magneticMoment: [ Abs: 32.91411  Tot: -0.00000 ]
	SubspaceRotationAdjust: set factor to 0.499
ElecMinimize: Iter: 152  F: -2214.010769743616038  |grad|_K:  1.492e-06  alpha:  1.525e-01  linmin: -8.184e-05  t[s]:  12504.30
	FillingsUpdate:  mu: +0.099797021  nElectrons: 359.000000  magneticMoment: [ Abs: 32.92392  Tot: -0.00000 ]
	SubspaceRotationAdjust: set factor to 0.531
ElecMinimize: Iter: 153  F: -2214.010833702694072  |grad|_K:  1.491e-06  alpha:  1.622e-01  linmin: -2.295e-04  t[s]:  12580.81
	FillingsUpdate:  mu: +0.099690384  nElectrons: 359.000000  magneticMoment: [ Abs: 32.93718  Tot: +0.00000 ]
	SubspaceRotationAdjust: set factor to 0.416
ElecMinimize: Iter: 154  F: -2214.010877504107157  |grad|_K:  1.519e-06  alpha:  1.087e-01  linmin: -9.354e-06  t[s]:  12657.06
	FillingsUpdate:  mu: +0.099687480  nElectrons: 359.000000  magneticMoment: [ Abs: 32.94315  Tot: -0.00000 ]
	SubspaceRotationAdjust: set factor to 0.511
ElecMinimize: Iter: 155  F: -2214.010919744352123  |grad|_K:  1.129e-06  alpha:  1.051e-01  linmin: -7.868e-05  t[s]:  12734.45
	FillingsUpdate:  mu: +0.099829688  nElectrons: 359.000000  magneticMoment: [ Abs: 32.95675  Tot: -0.00000 ]
	SubspaceRotationAdjust: set factor to 0.604
ElecMinimize: Iter: 156  F: -2214.010966906729209  |grad|_K:  1.113e-06  alpha:  2.118e-01  linmin:  1.130e-04  t[s]:  12814.16
	FillingsUpdate:  mu: +0.099698092  nElectrons: 359.000000  magneticMoment: [ Abs: 32.96848  Tot: +0.00000 ]
	SubspaceRotationAdjust: set factor to 0.482
ElecMinimize: Iter: 157  F: -2214.011002611114236  |grad|_K:  1.280e-06  alpha:  1.684e-01  linmin:  6.157e-06  t[s]:  12888.11
	FillingsUpdate:  mu: +0.099713422  nElectrons: 359.000000  magneticMoment: [ Abs: 32.97128  Tot: +0.00000 ]
	SubspaceRotationAdjust: set factor to 0.454
ElecMinimize: Iter: 158  F: -2214.011026139245587  |grad|_K:  1.196e-06  alpha:  8.365e-02  linmin:  4.033e-05  t[s]:  12965.86
	FillingsUpdate:  mu: +0.099601279  nElectrons: 359.000000  magneticMoment: [ Abs: 32.98467  Tot: -0.00000 ]
	SubspaceRotationAdjust: set factor to 0.623
ElecMinimize: Iter: 159  F: -2214.011064909750075  |grad|_K:  1.003e-06  alpha:  1.558e-01  linmin: -5.628e-05  t[s]:  13044.64
	FillingsUpdate:  mu: +0.099731847  nElectrons: 359.000000  magneticMoment: [ Abs: 32.99652  Tot: +0.00000 ]
	SubspaceRotationAdjust: set factor to 0.479
ElecMinimize: Iter: 160  F: -2214.011098177617896  |grad|_K:  1.233e-06  alpha:  1.883e-01  linmin:  5.046e-05  t[s]:  13118.21
	FillingsUpdate:  mu: +0.099796944  nElectrons: 359.000000  magneticMoment: [ Abs: 32.99807  Tot: -0.00000 ]
	SubspaceRotationAdjust: set factor to 0.452
ElecMinimize: Iter: 161  F: -2214.011116933580070  |grad|_K:  1.078e-06  alpha:  7.186e-02  linmin:  1.443e-05  t[s]:  13195.69
	FillingsUpdate:  mu: +0.099650277  nElectrons: 359.000000  magneticMoment: [ Abs: 33.00602  Tot: +0.00000 ]
	SubspaceRotationAdjust: set factor to 0.519
ElecMinimize: Iter: 162  F: -2214.011149201952776  |grad|_K:  9.877e-07  alpha:  1.600e-01  linmin:  9.870e-06  t[s]:  13273.08
	FillingsUpdate:  mu: +0.099608303  nElectrons: 359.000000  magneticMoment: [ Abs: 33.01636  Tot: -0.00000 ]
	SubspaceRotationAdjust: set factor to 0.383
ElecMinimize: Iter: 163  F: -2214.011171891840604  |grad|_K:  1.266e-06  alpha:  1.338e-01  linmin:  2.844e-07  t[s]:  13350.90
	FillingsUpdate:  mu: +0.099631875  nElectrons: 359.000000  magneticMoment: [ Abs: 33.02401  Tot: +0.00000 ]
	SubspaceRotationAdjust: set factor to 0.508
ElecMinimize: Iter: 164  F: -2214.011198730021079  |grad|_K:  9.180e-07  alpha:  9.668e-02  linmin: -5.747e-06  t[s]:  13428.96
	FillingsUpdate:  mu: +0.099767434  nElectrons: 359.000000  magneticMoment: [ Abs: 33.03103  Tot: +0.00000 ]
	SubspaceRotationAdjust: set factor to 0.393
ElecMinimize: Iter: 165  F: -2214.011227385249640  |grad|_K:  1.157e-06  alpha:  1.942e-01  linmin: -4.178e-05  t[s]:  13506.78
	FillingsUpdate:  mu: +0.099688382  nElectrons: 359.000000  magneticMoment: [ Abs: 33.03824  Tot: +0.00000 ]
	SubspaceRotationAdjust: set factor to 0.405
ElecMinimize: Iter: 166  F: -2214.011246895814566  |grad|_K:  1.012e-06  alpha:  8.305e-02  linmin:  6.218e-07  t[s]:  13582.73
	FillingsUpdate:  mu: +0.099686562  nElectrons: 359.000000  magneticMoment: [ Abs: 33.04575  Tot: +0.00000 ]
	SubspaceRotationAdjust: set factor to 0.369
ElecMinimize: Iter: 167  F: -2214.011280406835340  |grad|_K:  1.113e-06  alpha:  1.891e-01  linmin:  4.483e-05  t[s]:  13657.99
	FillingsUpdate:  mu: +0.099790194  nElectrons: 359.000000  magneticMoment: [ Abs: 33.04849  Tot: +0.00000 ]
	SubspaceRotationAdjust: set factor to 0.39
ElecMinimize: Iter: 168  F: -2214.011300366882551  |grad|_K:  1.017e-06  alpha:  9.491e-02  linmin:  3.295e-05  t[s]:  13735.15
	FillingsUpdate:  mu: +0.099834955  nElectrons: 359.000000  magneticMoment: [ Abs: 33.05858  Tot: +0.00000 ]
	SubspaceRotationAdjust: set factor to 0.42
ElecMinimize: Iter: 169  F: -2214.011331456930293  |grad|_K:  1.049e-06  alpha:  1.737e-01  linmin: -1.279e-05  t[s]:  13813.15
	FillingsUpdate:  mu: +0.099769492  nElectrons: 359.000000  magneticMoment: [ Abs: 33.06654  Tot: +0.00000 ]
	SubspaceRotationAdjust: set factor to 0.384
ElecMinimize: Iter: 170  F: -2214.011353046090335  |grad|_K:  1.134e-06  alpha:  1.121e-01  linmin: -1.760e-06  t[s]:  13892.12
	FillingsUpdate:  mu: +0.099629972  nElectrons: 359.000000  magneticMoment: [ Abs: 33.07028  Tot: -0.00000 ]
	SubspaceRotationAdjust: set factor to 0.441
ElecMinimize: Iter: 171  F: -2214.011385120038540  |grad|_K:  1.016e-06  alpha:  1.431e-01  linmin: -1.667e-05  t[s]:  13968.28
	FillingsUpdate:  mu: +0.099735533  nElectrons: 359.000000  magneticMoment: [ Abs: 33.07043  Tot: +0.00000 ]
	SubspaceRotationAdjust: set factor to 0.373
ElecMinimize: Iter: 172  F: -2214.011407338748995  |grad|_K:  1.147e-06  alpha:  1.236e-01  linmin: -3.030e-05  t[s]:  14043.98
	FillingsUpdate:  mu: +0.099826818  nElectrons: 359.000000  magneticMoment: [ Abs: 33.07795  Tot: -0.00000 ]
	SubspaceRotationAdjust: set factor to 0.501
ElecMinimize: Iter: 173  F: -2214.011438292785897  |grad|_K:  9.668e-07  alpha:  1.348e-01  linmin:  1.256e-04  t[s]:  14119.27
	FillingsUpdate:  mu: +0.099963949  nElectrons: 359.000000  magneticMoment: [ Abs: 33.08540  Tot: +0.00000 ]
	SubspaceRotationAdjust: set factor to 0.376
ElecMinimize: Iter: 174  F: -2214.011461663006685  |grad|_K:  1.239e-06  alpha:  1.482e-01  linmin:  9.144e-05  t[s]:  14194.36
	FillingsUpdate:  mu: +0.100018100  nElectrons: 359.000000  magneticMoment: [ Abs: 33.08716  Tot: -0.00000 ]
	SubspaceRotationAdjust: set factor to 0.489
ElecMinimize: Iter: 175  F: -2214.011487415298234  |grad|_K:  9.831e-07  alpha:  9.944e-02  linmin: -1.282e-05  t[s]:  14270.93
	FillingsUpdate:  mu: +0.100022621  nElectrons: 359.000000  magneticMoment: [ Abs: 33.08646  Tot: +0.00000 ]
	SubspaceRotationAdjust: set factor to 0.412
ElecMinimize: Iter: 176  F: -2214.011513008394104  |grad|_K:  1.115e-06  alpha:  1.492e-01  linmin: -2.244e-04  t[s]:  14347.97
	FillingsUpdate:  mu: +0.099822159  nElectrons: 359.000000  magneticMoment: [ Abs: 33.09025  Tot: -0.00000 ]
	SubspaceRotationAdjust: set factor to 0.464
ElecMinimize: Iter: 177  F: -2214.011536886792328  |grad|_K:  9.658e-07  alpha:  1.057e-01  linmin: -1.937e-06  t[s]:  14426.53
	FillingsUpdate:  mu: +0.099864964  nElectrons: 359.000000  magneticMoment: [ Abs: 33.09169  Tot: -0.00000 ]
	SubspaceRotationAdjust: set factor to 0.418
ElecMinimize: Iter: 178  F: -2214.011565308852369  |grad|_K:  1.044e-06  alpha:  1.751e-01  linmin:  3.225e-05  t[s]:  14500.90
	FillingsUpdate:  mu: +0.100054561  nElectrons: 359.000000  magneticMoment: [ Abs: 33.08827  Tot: -0.00000 ]
	SubspaceRotationAdjust: set factor to 0.444
ElecMinimize: Iter: 179  F: -2214.011584750651309  |grad|_K:  9.681e-07  alpha:  1.040e-01  linmin:  3.133e-06  t[s]:  14575.86
	FillingsUpdate:  mu: +0.100221684  nElectrons: 359.000000  magneticMoment: [ Abs: 33.08668  Tot: +0.00000 ]
	SubspaceRotationAdjust: set factor to 0.465
ElecMinimize: Iter: 180  F: -2214.011612415297805  |grad|_K:  9.993e-07  alpha:  1.704e-01  linmin:  7.056e-05  t[s]:  14653.81
	FillingsUpdate:  mu: +0.100124788  nElectrons: 359.000000  magneticMoment: [ Abs: 33.08699  Tot: +0.00000 ]
	SubspaceRotationAdjust: set factor to 0.411
ElecMinimize: Iter: 181  F: -2214.011633473146958  |grad|_K:  1.091e-06  alpha:  1.221e-01  linmin:  1.615e-06  t[s]:  14729.94
	FillingsUpdate:  mu: +0.100060940  nElectrons: 359.000000  magneticMoment: [ Abs: 33.08086  Tot: -0.00000 ]
	SubspaceRotationAdjust: set factor to 0.532
ElecMinimize: Iter: 182  F: -2214.011660805500014  |grad|_K:  9.564e-07  alpha:  1.317e-01  linmin: -1.100e-04  t[s]:  14804.50
	FillingsUpdate:  mu: +0.100213885  nElectrons: 359.000000  magneticMoment: [ Abs: 33.07362  Tot: -0.00000 ]
	SubspaceRotationAdjust: set factor to 0.432
ElecMinimize: Iter: 183  F: -2214.011686099650888  |grad|_K:  1.153e-06  alpha:  1.549e-01  linmin: -1.274e-04  t[s]:  14880.65
	FillingsUpdate:  mu: +0.100113419  nElectrons: 359.000000  magneticMoment: [ Abs: 33.07279  Tot: -0.00000 ]
	SubspaceRotationAdjust: set factor to 0.538
ElecMinimize: Iter: 184  F: -2214.011712551302480  |grad|_K:  9.586e-07  alpha:  1.112e-01  linmin:  6.434e-06  t[s]:  14957.17
	FillingsUpdate:  mu: +0.100161334  nElectrons: 359.000000  magneticMoment: [ Abs: 33.06626  Tot: -0.00000 ]
	SubspaceRotationAdjust: set factor to 0.482
ElecMinimize: Iter: 185  F: -2214.011743581605515  |grad|_K:  1.143e-06  alpha:  1.956e-01  linmin:  9.593e-05  t[s]:  15035.17
	FillingsUpdate:  mu: +0.100299959  nElectrons: 359.000000  magneticMoment: [ Abs: 33.05482  Tot: +0.00000 ]
	SubspaceRotationAdjust: set factor to 0.506
ElecMinimize: Iter: 186  F: -2214.011766177310164  |grad|_K:  1.124e-06  alpha:  1.015e-01  linmin:  5.142e-06  t[s]:  15112.29
	FillingsUpdate:  mu: +0.100167894  nElectrons: 359.000000  magneticMoment: [ Abs: 33.04434  Tot: -0.00000 ]
	SubspaceRotationAdjust: set factor to 0.567
ElecMinimize: Iter: 187  F: -2214.011800622302871  |grad|_K:  1.068e-06  alpha:  1.566e-01  linmin:  1.087e-06  t[s]:  15188.59
	FillingsUpdate:  mu: +0.100107841  nElectrons: 359.000000  magneticMoment: [ Abs: 33.04268  Tot: +0.00000 ]
	SubspaceRotationAdjust: set factor to 0.437
ElecMinimize: Iter: 188  F: -2214.011825441374640  |grad|_K:  1.266e-06  alpha:  1.244e-01  linmin:  2.263e-05  t[s]:  15263.92
	FillingsUpdate:  mu: +0.100202259  nElectrons: 359.000000  magneticMoment: [ Abs: 33.03472  Tot: +0.00000 ]
	SubspaceRotationAdjust: set factor to 0.577
ElecMinimize: Iter: 189  F: -2214.011853883849653  |grad|_K:  1.023e-06  alpha:  1.023e-01  linmin: -1.005e-06  t[s]:  15341.04
	FillingsUpdate:  mu: +0.100327366  nElectrons: 359.000000  magneticMoment: [ Abs: 33.02569  Tot: +0.00000 ]
	SubspaceRotationAdjust: set factor to 0.427
ElecMinimize: Iter: 190  F: -2214.011885407292084  |grad|_K:  1.338e-06  alpha:  1.726e-01  linmin: -1.206e-05  t[s]:  15416.81
	FillingsUpdate:  mu: +0.099996882  nElectrons: 359.000000  magneticMoment: [ Abs: 33.02455  Tot: -0.00000 ]
	SubspaceRotationAdjust: set factor to 0.513
ElecMinimize: Iter: 191  F: -2214.011909661483969  |grad|_K:  1.070e-06  alpha:  7.640e-02  linmin: -4.928e-05  t[s]:  15488.66
	FillingsUpdate:  mu: +0.099907427  nElectrons: 359.000000  magneticMoment: [ Abs: 33.01934  Tot: -0.00000 ]
	SubspaceRotationAdjust: set factor to 0.4
ElecMinimize: Iter: 192  F: -2214.011945142548939  |grad|_K:  1.339e-06  alpha:  1.763e-01  linmin:  8.890e-06  t[s]:  15566.95
[...]
	SubspaceRotationAdjust: set factor to 0.267
ElecMinimize: Iter:  12  F: -2214.067784347965244  |grad|_K:  2.190e-07  alpha:  3.261e-01  linmin: -1.799e-07  t[s]:  87208.37
	FillingsUpdate:  mu: +0.104973986  nElectrons: 359.000000  magneticMoment: [ Abs: 33.59530  Tot: -0.00000 ]
	SubspaceRotationAdjust: set factor to 0.3
ElecMinimize: Iter:  13  F: -2214.067786970292673  |grad|_K:  1.621e-07  alpha:  3.139e-01  linmin:  8.447e-07  t[s]:  87286.32
	FillingsUpdate:  mu: +0.104990491  nElectrons: 359.000000  magneticMoment: [ Abs: 33.59552  Tot: -0.00000 ]
	SubspaceRotationAdjust: set factor to 0.358
ElecMinimize: Iter:  14  F: -2214.067788737320825  |grad|_K:  1.279e-07  alpha:  3.861e-01  linmin:  2.454e-07  t[s]:  87363.01
	FillingsUpdate:  mu: +0.105005273  nElectrons: 359.000000  magneticMoment: [ Abs: 33.59564  Tot: -0.00000 ]
	SubspaceRotationAdjust: set factor to 0.403
ElecMinimize: Iter:  15  F: -2214.067789723082115  |grad|_K:  1.022e-07  alpha:  3.461e-01  linmin:  3.219e-06  t[s]:  87441.68
	FillingsUpdate:  mu: +0.104961550  nElectrons: 359.000000  magneticMoment: [ Abs: 33.59602  Tot: +0.00000 ]
	SubspaceRotationAdjust: set factor to 0.36
ElecMinimize: Iter:  16  F: -2214.067790254570355  |grad|_K:  9.081e-08  alpha:  2.922e-01  linmin: -1.147e-06  t[s]:  87518.00
	FillingsUpdate:  mu: +0.105004850  nElectrons: 359.000000  magneticMoment: [ Abs: 33.59601  Tot: -0.00000 ]
	SubspaceRotationAdjust: set factor to 0.27
ElecMinimize: Iter:  17  F: -2214.067790561056881  |grad|_K:  6.848e-08  alpha:  2.135e-01  linmin: -1.415e-06  t[s]:  87595.46
	FillingsUpdate:  mu: +0.104985372  nElectrons: 359.000000  magneticMoment: [ Abs: 33.59620  Tot: -0.00000 ]
	SubspaceRotationAdjust: set factor to 0.296
ElecMinimize: Iter:  18  F: -2214.067790803039770  |grad|_K:  5.082e-08  alpha:  2.966e-01  linmin:  7.047e-06  t[s]:  87667.38
	FillingsUpdate:  mu: +0.104980243  nElectrons: 359.000000  magneticMoment: [ Abs: 33.59635  Tot: +0.00000 ]
	SubspaceRotationAdjust: set factor to 0.358
ElecMinimize: Iter:  19  F: -2214.067790959826652  |grad|_K:  4.353e-08  alpha:  3.481e-01  linmin: -2.368e-05  t[s]:  87744.09
ElecMinimize: Converged (|Delta F|<1.000000e-06 for 5 iters).
Setting wave functions to eigenvectors of Hamiltonian

# Ionic positions in lattice coordinates:
ion Ni   0.003714282593481   0.009946433089214   0.150747550865168 1
ion Ni   0.500260333618215  -0.002843311686555   0.151915789180060 1
ion Ni   0.250103424994356   0.750884404742444   0.050788418160592 1
ion Ni  -0.252484820083886   0.250835708514794   0.050136051402319 1
ion Ni   0.500000000000000   0.000000000000000  -0.050000000000000 0
ion Ni   0.500000000000000   0.500000000000000  -0.050000000000000 0
ion Ni   0.250000000000000   0.750000000000000  -0.150000000000000 0
ion Ni  -0.250000000000000   0.750000000000000  -0.150000000000000 0
ion Cr  -0.000771326578713   0.499030585924503   0.162076878135281 1
ion V   0.493874060835536   0.491196915116157   0.148564754617548 1
ion V   0.252400544076169   0.248318073437979   0.052186611732626 1
ion V  -0.255738642265255   0.756267618095102   0.053544491322696 1
ion V   0.000000000000000   0.000000000000000  -0.050000000000000 0
ion V   0.000000000000000   0.500000000000000  -0.050000000000000 0
ion Co   0.250000000000000   0.250000000000000  -0.150000000000000 0
ion Co  -0.250000000000000   0.250000000000000  -0.150000000000000 0
ion O   0.255792023718772   0.266345484335259   0.151014208335271 1
ion O   0.269575245712443   0.729979506810319   0.144968649831923 1
ion O  -0.261812486981806   0.260471238577591   0.144424680054585 1
ion O  -0.265358753162589   0.723490974225723   0.144525214437119 1
ion O  -0.003077347614863  -0.005806854552957   0.055532590087843 1
ion O   0.504593968418198  -0.011845397186608   0.042154350178047 1
ion O  -0.007064685492772   0.524610541639937   0.046203670633853 1
ion O   0.500993149110191   0.508668169768388   0.049777642102334 1
ion O   0.250000000000000   0.250000000000000  -0.050000000000000 0
ion O   0.250000000000000   0.750000000000000  -0.050000000000000 0
ion O  -0.250000000000000   0.250000000000000  -0.050000000000000 0
ion O  -0.250000000000000   0.750000000000000  -0.050000000000000 0
ion O   0.000000000000000   0.000000000000000  -0.150000000000000 0
ion O   0.500000000000000   0.000000000000000  -0.150000000000000 0
ion O   0.000000000000000   0.500000000000000  -0.150000000000000 0
ion O   0.500000000000000   0.500000000000000  -0.150000000000000 0
ion O  -0.007969007603523  -0.007162637314734   0.228663672971751 1

# Forces in Lattice coordinates:
force Ni  -0.004081183542825   0.002450836360733   0.022459684465478 1
force Ni   0.001854456052629  -0.003762661716486   0.008353687131618 1
force Ni   0.000243883878200   0.000284006066295  -0.002341415066913 1
force Ni  -0.003463153043796  -0.000821639164292  -0.002237912471797 1
force Ni  -0.003293904115589  -0.033801037852739  -0.775154951976036 0
force Ni  -0.013486734591108   0.019687527451779  -0.490802686568820 0
force Ni   0.059655433193734   0.005978624085117   0.212275563923827 0
force Ni  -0.054477099067826   0.003443321608644   0.197887627289322 0
force Cr  -0.002448430573661  -0.002424458971979  -0.007990511539290 1
force V   0.010064075502731  -0.002195553187845   0.002534357502772 1
force V  -0.004921015606511  -0.000764988620301  -0.040944990155327 1
force V   0.000753631804128   0.004186349683724  -0.008203884440382 1
force V   0.032223928018406  -0.005339629650349  -0.173053719830790 0
force V   0.002463740285937   0.029814584305245  -0.404332964730674 0
force Co   0.092865914229766  -0.006211744113557  -0.328429586344880 0
force Co  -0.057069920393520   0.021230308236698  -0.270583278578149 0
force O  -0.002391362522276  -0.005278854123810   0.003858182950795 1
force O  -0.000109811192119  -0.007053022314495   0.007796819388398 1
force O  -0.001233197231015   0.003415929721801   0.010943313804673 1
force O  -0.006134173611478  -0.007089822002954  -0.006646753801757 1
force O  -0.002374771628805   0.001465229887855   0.022506588626014 1
force O   0.003833883081827   0.004507898178790  -0.014328495578970 1
force O  -0.003972676726862  -0.006145963907662  -0.013834052280695 1
force O   0.000516717201772  -0.002680453159449   0.018924252749964 1
force O   0.006766461582141   0.043357574366061   0.141697738497760 0
force O   0.029310088211430  -0.041429763164462   0.303340885604260 0
force O  -0.024698873032351   0.040849342339577   0.357018849034756 0
force O   0.007147307644268  -0.051759704329726   0.309625335750014 0
force O  -0.007356602822340  -0.037171831363930   0.155993765030363 0
force O  -0.018178817598824  -0.033727874283396   0.320486606841090 0
force O  -0.005851479270564   0.022382569630400   0.083771846528551 0
force O  -0.007888166260064   0.034878182016273   0.260849962479622 0
force O   0.002665951190187  -0.000384813387394   0.024498967579369 1

# Energy components:
   Eewald =     5858.3466676999987612
       EH =     7852.4141289730714561
     Eloc =   -16062.9834650093016535
      Enl =     -612.1972544789018684
   Epulay =       -0.0004908277866207
      Exc =     -261.3167205232438164
       KE =     1010.1026945842576197
        U =        1.5675125556796710
-------------------------------------
     Etot =    -2214.0669270262264945
       TS =        0.0008639336001977
-------------------------------------
        F =    -2214.0677909598266524

IonicMinimize: Iter:  10  F: -2214.067790959826652  |grad|_K:  3.587e-04  alpha:  1.000e+00  linmin: -1.099e-02  t[s]:  87755.38

#--- Lowdin population analysis ---
# oxidation-state Ni +3.508 +3.443 +3.434 +3.373 +3.568 +3.555 +3.703 +3.822
# magnetic-moments Ni +0.090 +0.660 +0.823 -0.804 -1.013 +0.995 -0.933 +1.019
# oxidation-state Cr +2.994
# magnetic-moments Cr +4.042
# oxidation-state V +1.295 +0.999 +1.240 +1.054 +1.114
# magnetic-moments V -2.020 +2.878 -2.062 -2.674 -2.532
# oxidation-state Co +1.247 +1.234
# magnetic-moments Co -2.695 +2.663
# oxidation-state O -0.788 -0.721 -0.741 -0.762 -0.754 -0.724 -0.800 -0.750 -0.854 -0.729 -0.808 -0.803 -0.885 -0.837 -0.890 -0.827 -0.318
# magnetic-moments O +0.003 +0.179 -0.081 +0.060 +0.017 -0.137 +0.082 +0.070 -0.025 -0.029 +0.012 +0.097 +0.043 -0.118 +0.041 +0.187 +0.860


-------- Electronic minimization -----------
	FillingsUpdate:  mu: +0.110252181  nElectrons: 359.000000  magneticMoment: [ Abs: 33.59607  Tot: -0.00000 ]
ElecMinimize: Iter:   0  F: -2213.957338029811126  |grad|_K:  5.666e-05  alpha:  1.000e+00
	FillingsUpdate:  mu: +0.102166067  nElectrons: 359.000000  magneticMoment: [ Abs: 33.58352  Tot: +0.00000 ]
	SubspaceRotationAdjust: set factor to 0.377
ElecMinimize: Iter:   1  F: -2214.059990540956278  |grad|_K:  1.010e-05  alpha:  1.828e-01  linmin: -1.389e-03  t[s]:  87856.45
	FillingsUpdate:  mu: +0.105078288  nElectrons: 359.000000  magneticMoment: [ Abs: 33.59383  Tot: +0.00000 ]
	SubspaceRotationAdjust: set factor to 0.477
ElecMinimize: Iter:   2  F: -2214.064886611760357  |grad|_K:  4.586e-06  alpha:  2.741e-01  linmin: -1.030e-04  t[s]:  87933.29
	FillingsUpdate:  mu: +0.104405583  nElectrons: 359.000000  magneticMoment: [ Abs: 33.59422  Tot: -0.00000 ]
	SubspaceRotationAdjust: set factor to 0.541
ElecMinimize: Iter:   3  F: -2214.066154941885088  |grad|_K:  3.578e-06  alpha:  3.458e-01  linmin: -2.493e-06  t[s]:  88011.15
	FillingsUpdate:  mu: +0.103369104  nElectrons: 359.000000  magneticMoment: [ Abs: 33.58968  Tot: -0.00000 ]
	SubspaceRotationAdjust: set factor to 0.359
ElecMinimize: Iter:   4  F: -2214.066794894336454  |grad|_K:  4.255e-06  alpha:  2.873e-01  linmin: -6.555e-06  t[s]:  88087.83
	FillingsUpdate:  mu: +0.104110829  nElectrons: 359.000000  magneticMoment: [ Abs: 33.59892  Tot: -0.00000 ]
	SubspaceRotationAdjust: set factor to 0.273
ElecMinimize: Iter:   5  F: -2214.067253651892770  |grad|_K:  2.332e-06  alpha:  1.453e-01  linmin:  1.996e-06  t[s]:  88163.95
	FillingsUpdate:  mu: +0.104887525  nElectrons: 359.000000  magneticMoment: [ Abs: 33.59785  Tot: -0.00000 ]
	SubspaceRotationAdjust: set factor to 0.347
ElecMinimize: Iter:   6  F: -2214.067639987506027  |grad|_K:  1.533e-06  alpha:  4.079e-01  linmin: -6.242e-06  t[s]:  88241.49
	FillingsUpdate:  mu: +0.105254043  nElectrons: 359.000000  magneticMoment: [ Abs: 33.59752  Tot: +0.00000 ]
	SubspaceRotationAdjust: set factor to 0.298
ElecMinimize: Iter:   7  F: -2214.067747353867617  |grad|_K:  1.128e-06  alpha:  2.623e-01  linmin:  4.999e-08  t[s]:  88318.59
	FillingsUpdate:  mu: +0.104722626  nElectrons: 359.000000  magneticMoment: [ Abs: 33.60010  Tot: -0.00000 ]
	SubspaceRotationAdjust: set factor to 0.202
ElecMinimize: Iter:   8  F: -2214.067795393415508  |grad|_K:  6.982e-07  alpha:  2.167e-01  linmin:  2.463e-06  t[s]:  88395.60
	FillingsUpdate:  mu: +0.104966811  nElectrons: 359.000000  magneticMoment: [ Abs: 33.59898  Tot: +0.00000 ]
	SubspaceRotationAdjust: set factor to 0.208
ElecMinimize: Iter:   9  F: -2214.067816716943980  |grad|_K:  4.114e-07  alpha:  2.513e-01  linmin: -2.199e-07  t[s]:  88468.77
	FillingsUpdate:  mu: +0.105038983  nElectrons: 359.000000  magneticMoment: [ Abs: 33.59893  Tot: -0.00000 ]
	SubspaceRotationAdjust: set factor to 0.232
ElecMinimize: Iter:  10  F: -2214.067824895463218  |grad|_K:  2.753e-07  alpha:  2.775e-01  linmin:  1.084e-06  t[s]:  88547.33
	FillingsUpdate:  mu: +0.104941111  nElectrons: 359.000000  magneticMoment: [ Abs: 33.59950  Tot: -0.00000 ]
	SubspaceRotationAdjust: set factor to 0.23
ElecMinimize: Iter:  11  F: -2214.067828756170911  |grad|_K:  1.864e-07  alpha:  2.925e-01  linmin: -3.972e-07  t[s]:  88624.53
	FillingsUpdate:  mu: +0.104981966  nElectrons: 359.000000  magneticMoment: [ Abs: 33.59936  Tot: -0.00000 ]
	SubspaceRotationAdjust: set factor to 0.258
ElecMinimize: Iter:  12  F: -2214.067830711947408  |grad|_K:  1.443e-07  alpha:  3.234e-01  linmin: -2.142e-07  t[s]:  88701.92
	FillingsUpdate:  mu: +0.104973943  nElectrons: 359.000000  magneticMoment: [ Abs: 33.59947  Tot: +0.00000 ]
	SubspaceRotationAdjust: set factor to 0.318
ElecMinimize: Iter:  13  F: -2214.067831959059276  |grad|_K:  1.176e-07  alpha:  3.440e-01  linmin: -8.044e-07  t[s]:  88781.09
	FillingsUpdate:  mu: +0.104947106  nElectrons: 359.000000  magneticMoment: [ Abs: 33.59976  Tot: -0.00000 ]
	SubspaceRotationAdjust: set factor to 0.355
ElecMinimize: Iter:  14  F: -2214.067832805992566  |grad|_K:  1.057e-07  alpha:  3.515e-01  linmin:  1.222e-08  t[s]:  88859.31
	FillingsUpdate:  mu: +0.104987662  nElectrons: 359.000000  magneticMoment: [ Abs: 33.59975  Tot: -0.00000 ]
	SubspaceRotationAdjust: set factor to 0.324
ElecMinimize: Iter:  15  F: -2214.067833388787221  |grad|_K:  8.981e-08  alpha:  2.994e-01  linmin: -3.532e-06  t[s]:  88933.99
	FillingsUpdate:  mu: +0.104953458  nElectrons: 359.000000  magneticMoment: [ Abs: 33.60000  Tot: -0.00000 ]
	SubspaceRotationAdjust: set factor to 0.281
ElecMinimize: Iter:  16  F: -2214.067833739034540  |grad|_K:  6.800e-08  alpha:  2.493e-01  linmin:  5.880e-06  t[s]:  89009.07
	FillingsUpdate:  mu: +0.104968609  nElectrons: 359.000000  magneticMoment: [ Abs: 33.60007  Tot: +0.00000 ]
	SubspaceRotationAdjust: set factor to 0.308
ElecMinimize: Iter:  17  F: -2214.067833993103250  |grad|_K:  4.804e-08  alpha:  3.158e-01  linmin:  3.504e-06  t[s]:  89085.56
	FillingsUpdate:  mu: +0.104970858  nElectrons: 359.000000  magneticMoment: [ Abs: 33.60014  Tot: -0.00000 ]
	SubspaceRotationAdjust: set factor to 0.362
ElecMinimize: Iter:  18  F: -2214.067834129672065  |grad|_K:  3.894e-08  alpha:  3.397e-01  linmin: -1.844e-05  t[s]:  89156.88
ElecMinimize: Converged (|Delta F|<1.000000e-06 for 5 iters).
Setting wave functions to eigenvectors of Hamiltonian

# Ionic positions in lattice coordinates:
ion Ni   0.003239390314977   0.010677349383638   0.151107957412548 1
ion Ni   0.500479602947084  -0.003808502041272   0.151997971442937 1
ion Ni   0.250239729655674   0.751271001113285   0.050912082170227 1
ion Ni  -0.252706231134077   0.250811534248416   0.050177909007809 1
ion Ni   0.500000000000000   0.000000000000000  -0.050000000000000 0
ion Ni   0.500000000000000   0.500000000000000  -0.050000000000000 0
ion Ni   0.250000000000000   0.750000000000000  -0.150000000000000 0
ion Ni  -0.250000000000000   0.750000000000000  -0.150000000000000 0
ion Cr  -0.000939339385603   0.498907026145618   0.161965276878387 1
ion V   0.493822508651387   0.490688848626460   0.148560847443098 1
ion V   0.252092000838583   0.248409101715581   0.052162217967661 1
ion V  -0.255875819746687   0.756648479063344   0.053570906694459 1
ion V   0.000000000000000   0.000000000000000  -0.050000000000000 0
ion V   0.000000000000000   0.500000000000000  -0.050000000000000 0
ion Co   0.250000000000000   0.250000000000000  -0.150000000000000 0
ion Co  -0.250000000000000   0.250000000000000  -0.150000000000000 0
ion O   0.255498808941712   0.265490251263085   0.151001831230356 1
ion O   0.269774602522998   0.729316803330854   0.145046914532364 1
ion O  -0.261835939595203   0.260311765495011   0.144395555898198 1
ion O  -0.266026916522897   0.722712706561254   0.144551804713083 1
ion O  -0.003307587649971  -0.005741646373783   0.055628284056437 1
ion O   0.504448982362054  -0.011471228525526   0.042096112073792 1
ion O  -0.007043811824506   0.524645365214179   0.046198801652809 1
ion O   0.500788939591768   0.508805353116223   0.049896321780225 1
ion O   0.250000000000000   0.250000000000000  -0.050000000000000 0
ion O   0.250000000000000   0.750000000000000  -0.050000000000000 0
ion O  -0.250000000000000   0.250000000000000  -0.050000000000000 0
ion O  -0.250000000000000   0.750000000000000  -0.050000000000000 0
ion O   0.000000000000000   0.000000000000000  -0.150000000000000 0
ion O   0.500000000000000   0.000000000000000  -0.150000000000000 0
ion O   0.000000000000000   0.500000000000000  -0.150000000000000 0
ion O   0.500000000000000   0.500000000000000  -0.150000000000000 0
ion O  -0.008426640087789  -0.008359955716968   0.229014493936561 1

# Forces in Lattice coordinates:
force Ni  -0.002360564477253   0.004123242492540   0.027389408814418 1
force Ni  -0.000255774553703  -0.004451887326688  -0.000047481299176 1
force Ni  -0.004926404236429  -0.001648992749529  -0.011091364539206 1
force Ni  -0.002240446490860   0.000357049663162  -0.019108939955461 1
force Ni  -0.003858018106822  -0.033534411863175  -0.785834455375941 0
force Ni  -0.013928515731203   0.020231040637232  -0.485822887549080 0
force Ni   0.059348530434723   0.005840014291700   0.215029682772712 0
force Ni  -0.054173592077886   0.003379413679012   0.199900822033576 0
force Cr   0.000142313972202  -0.003189513759374   0.006529764255365 1
force V   0.004610762340070  -0.002775459003327   0.009426762874261 1
force V  -0.003436146930955  -0.001617675967768  -0.028919489068825 1
force V   0.000706860680415  -0.002402708804372   0.004731445615555 1
force V   0.032261300681566  -0.005810379201489  -0.173535624643567 0
force V   0.002824912738168   0.030992436903452  -0.404976665359275 0
force Co   0.092649083914493  -0.006029570402774  -0.325715034326128 0
force Co  -0.056919032218339   0.021273958895682  -0.267022402470957 0
force O  -0.001502323465218  -0.004902917726544   0.002465041501678 1
force O  -0.002412780662200  -0.004885137870472   0.008816197129542 1
force O  -0.000349614974660   0.000898279535497   0.023043510989465 1
force O  -0.000571491445136   0.001431132251368  -0.006504572063754 1
force O  -0.000067679128590  -0.000855339143540   0.023089835654674 1
force O   0.003092638528252   0.000597887003739  -0.004316955691523 1
force O  -0.004088162607907  -0.002684665937242  -0.013552321911199 1
force O  -0.000855128567386  -0.002468588284265  -0.004142139534801 1
force O   0.006570637249168   0.043807972492755   0.141614553353376 0
force O   0.029334302742248  -0.041456260180459   0.288157013944335 0
force O  -0.024430824310804   0.041173949269211   0.357959253784294 0
force O   0.007232726410422  -0.051743445139190   0.311624035712164 0
force O  -0.007292209799228  -0.037382149208304   0.156684342495677 0
force O  -0.018057345293072  -0.034163749278612   0.323962717826220 0
force O  -0.005763684224997   0.022714905720533   0.085584700643659 0
force O  -0.007819810041944   0.035069538377113   0.260976245484068 0
force O   0.003971974349692   0.006960185590759   0.012899795341632 1

# Energy components:
   Eewald =     5855.3079579173445381
       EH =     7849.3557672898095916
     Eloc =   -16056.8847938894523395
      Enl =     -612.1953697365128164
   Epulay =       -0.0004908277866207
      Exc =     -261.3152421224957038
       KE =     1010.0972205351464481
        U =        1.5679807683491882
-------------------------------------
     Etot =    -2214.0669700655980705
       TS =        0.0008640640740954
-------------------------------------
        F =    -2214.0678341296720646

IonicMinimize: Iter:  11  F: -2214.067834129672065  |grad|_K:  2.989e-04  alpha:  1.000e+00  linmin: -1.331e-02  t[s]:  89168.43
IonicMinimize: Converged (|Delta F|<1.000000e-04 for 3 iters).

#--- Lowdin population analysis ---
# oxidation-state Ni +3.511 +3.443 +3.434 +3.372 +3.568 +3.555 +3.705 +3.822
# magnetic-moments Ni +0.091 +0.660 +0.824 -0.803 -1.013 +0.994 -0.935 +1.019
# oxidation-state Cr +2.993
# magnetic-moments Cr +4.042
# oxidation-state V +1.295 +0.999 +1.240 +1.054 +1.114
# magnetic-moments V -2.018 +2.877 -2.063 -2.674 -2.531
# oxidation-state Co +1.247 +1.234
# magnetic-moments Co -2.695 +2.663
# oxidation-state O -0.789 -0.721 -0.742 -0.762 -0.755 -0.724 -0.801 -0.750 -0.854 -0.729 -0.808 -0.803 -0.885 -0.837 -0.890 -0.827 -0.318
# magnetic-moments O +0.001 +0.181 -0.081 +0.060 +0.018 -0.136 +0.082 +0.070 -0.025 -0.030 +0.012 +0.097 +0.043 -0.118 +0.041 +0.187 +0.860


Dumping 'run.ionpos' ... done
Dumping 'run.lattice' ... done
Dumping 'run.Ecomponents' ... done
End date and time: Wed May 21 00:56:59 2025  (Duration: 1-0:46:11.68)
Done!
