/var/spool/slurmd/job44148/slurm_script: line 9: module: command not found
/var/spool/slurmd/job44148/slurm_script: line 10: module: command not found

*************** JDFTx 1.7.0  ***************

Start date and time: Thu May  8 20:03:24 2025
Executable /data2/jt577/jdftx_eat_withLibXC/build/jdftx with command-line: -i /data2/jt577/May_2025/Relax_Mag/rel15+1_6/O/runs/calc_/run.in
Running on hosts (process indices):  node3407 (0-8)
Divided in process groups (process indices):  0 (0)  1 (1)  2 (2)  3 (3)  4 (4)  5 (5)  6 (6)  7 (7)  8 (8)
Resource initialization completed at t[s]:      0.00
Run totals: 9 processes, 90 threads, 0 GPUs


Input parsed successfully to the following command list (including defaults):

add-mix 
add-U 	Ni d 0.22 \
	Cr d 0.16 \
	V d 0.12 \
	Co d 0.2
basis kpoint-dependent
coords-type Lattice
core-overlap-check vector
coulomb-interaction Periodic
davidson-band-ratio 1.1
dump End IonicPositions Lattice Ecomponents
dump-name run.$VAR
elec-cutoff 30
elec-eigen-algo Davidson
elec-ex-corr gga-x-rpbe gga-c-pbe
elec-smearing Fermi 0.001
electronic-minimize  \
	dirUpdateScheme      FletcherReeves \
	linminMethod         DirUpdateRecommended \
	nIterations          1000 \
	history              15 \
	knormThreshold       0 \
	energyDiffThreshold  1e-06 \
	nEnergyDiff          5 \
	alphaTstart          1 \
	alphaTmin            1e-10 \
	updateTestStepSize   yes \
	alphaTreduceFactor   0.1 \
	alphaTincreaseFactor 3 \
	nAlphaAdjustMax      3 \
	wolfeEnergy          0.0001 \
	wolfeGradient        0.9 \
	fdTest               no
exchange-regularization WignerSeitzTruncated
fluid None
fluid-ex-corr (null) lda-PZ
fluid-gummel-loop 10 1.000000e-05
fluid-minimize  \
	dirUpdateScheme      PolakRibiere \
	linminMethod         DirUpdateRecommended \
	nIterations          100 \
	history              15 \
	knormThreshold       0 \
	energyDiffThreshold  0 \
	nEnergyDiff          2 \
	alphaTstart          1 \
	alphaTmin            1e-10 \
	updateTestStepSize   yes \
	alphaTreduceFactor   0.1 \
	alphaTincreaseFactor 3 \
	nAlphaAdjustMax      3 \
	wolfeEnergy          0.0001 \
	wolfeGradient        0.9 \
	fdTest               no
fluid-solvent H2O 55.338 ScalarEOS \
	epsBulk 78.4 \
	pMol 0.92466 \
	epsInf 1.77 \
	Pvap 1.06736e-10 \
	sigmaBulk 4.62e-05 \
	Rvdw 2.61727 \
	Res 1.42 \
	tauNuc 343133 \
	poleEl 15 7 1
forces-output-coords Positions
initial-magnetic-moments  \
	Ni 1 -1 1 -1 1 1 -1 1 \
	Cr 1 \
	V -1 1 -1 -1 -1 \
	Co -1 1
initial-state run.$VAR
ion Ni  0.000000000000000   0.000000000000000   0.150000000000000 1
ion Ni  0.500000000000000   0.000000000000000   0.150000000000000 1
ion Ni  0.250000000000000   0.750000000000000   0.050000000000000 1
ion Ni -0.250000000000000   0.250000000000000   0.050000000000000 1
ion Ni  0.500000000000000   0.000000000000000  -0.050000000000000 0
ion Ni  0.500000000000000   0.500000000000000  -0.050000000000000 0
ion Ni  0.250000000000000   0.750000000000000  -0.150000000000000 0
ion Ni -0.250000000000000   0.750000000000000  -0.150000000000000 0
ion Cr  0.000000000000000   0.500000000000000   0.150000000000000 1
ion V  0.500000000000000   0.500000000000000   0.150000000000000 1
ion V  0.250000000000000   0.250000000000000   0.050000000000000 1
ion V -0.250000000000000   0.750000000000000   0.050000000000000 1
ion V  0.000000000000000   0.000000000000000  -0.050000000000000 0
ion V  0.000000000000000   0.500000000000000  -0.050000000000000 0
ion Co  0.250000000000000   0.250000000000000  -0.150000000000000 0
ion Co -0.250000000000000   0.250000000000000  -0.150000000000000 0
ion O  0.250000000000000   0.250000000000000   0.150000000000000 1
ion O  0.250000000000000   0.750000000000000   0.150000000000000 1
ion O -0.250000000000000   0.250000000000000   0.150000000000000 1
ion O -0.250000000000000   0.750000000000000   0.150000000000000 1
ion O  0.000000000000000   0.000000000000000   0.050000000000000 1
ion O  0.500000000000000   0.000000000000000   0.050000000000000 1
ion O  0.000000000000000   0.500000000000000   0.050000000000000 1
ion O  0.500000000000000   0.500000000000000   0.050000000000000 1
ion O  0.250000000000000   0.250000000000000  -0.050000000000000 0
ion O  0.250000000000000   0.750000000000000  -0.050000000000000 0
ion O -0.250000000000000   0.250000000000000  -0.050000000000000 0
ion O -0.250000000000000   0.750000000000000  -0.050000000000000 0
ion O  0.000000000000000   0.000000000000000  -0.150000000000000 0
ion O  0.500000000000000   0.000000000000000  -0.150000000000000 0
ion O  0.000000000000000   0.500000000000000  -0.150000000000000 0
ion O  0.500000000000000   0.500000000000000  -0.150000000000000 0
ion O -0.000095572322686   0.000198307128402   0.224876729873325 1
ion-species SG15/$ID_ONCV_PBE.upf
ion-width 0
ionic-minimize  \
	dirUpdateScheme      L-BFGS \
	linminMethod         DirUpdateRecommended \
	nIterations          1000 \
	history              15 \
	knormThreshold       0.0001 \
	energyDiffThreshold  0.0001 \
	nEnergyDiff          3 \
	alphaTstart          1 \
	alphaTmin            1e-10 \
	updateTestStepSize   yes \
	alphaTreduceFactor   0.1 \
	alphaTincreaseFactor 3 \
	nAlphaAdjustMax      3 \
	wolfeEnergy          0.0001 \
	wolfeGradient        0.9 \
	fdTest               no
kpoint   0.500000000000   0.500000000000   0.500000000000  1.00000000000000
kpoint-folding 3 3 1 
latt-move-scale 1 1 1
latt-scale 1 1 1 
lattice  \
	   8.140000000000001    8.140000000000001    0.000000000000000  \
	   8.140000000000001   -8.140000000000001    0.000000000000000  \
	   0.000000000000000    0.000000000000000   40.700000000000003 
lattice-minimize  \
	dirUpdateScheme      L-BFGS \
	linminMethod         DirUpdateRecommended \
	nIterations          0 \
	history              15 \
	knormThreshold       0 \
	energyDiffThreshold  1e-06 \
	nEnergyDiff          2 \
	alphaTstart          1 \
	alphaTmin            1e-10 \
	updateTestStepSize   yes \
	alphaTreduceFactor   0.1 \
	alphaTincreaseFactor 3 \
	nAlphaAdjustMax      3 \
	wolfeEnergy          0.0001 \
	wolfeGradient        0.9 \
	fdTest               no
lcao-params -1 1e-06 0.001
pcm-variant GLSSA13
spintype z-spin
subspace-rotation-factor 1 yes
symmetries none
symmetry-threshold 0.0001


Applied RMS atom displacement 0 bohrs to make symmetries exact.

---------- Initializing the Grid ----------
R = 
[         8.14         8.14            0  ]
[         8.14        -8.14            0  ]
[            0            0         40.7  ]
unit cell volume = 5393.53
G =
[   0.385945   0.385945         -0  ]
[   0.385945  -0.385945         -0  ]
[         -0         -0   0.154378  ]
Minimum fftbox size, Smin = [  60  60  204  ]
Chosen fftbox size, S = [  60  60  210  ]

---------- Exchange Correlation functional ----------
Initialized LibXC exchange functional 'Hammer, Hansen, and Norskov'
Initialized LibXC correlation functional 'Perdew, Burke & Ernzerhof'

---------- Setting up pseudopotentials ----------
Width of ionic core gaussian charges (only for fluid interactions / plotting) set to 0

Reading pseudopotential file '/data2/jt577/jdftx_eat_withLibXC/build/pseudopotentials/SG15/Ni_ONCV_PBE.upf':
  'Ni' pseudopotential, 'PBE' functional
  Generated using ONCVPSP code by D. R. Hamann
  Author: Martin Schlipf and Francois Gygi  Date: 150915.
  18 valence electrons, 4 orbitals, 6 projectors, 1292 radial grid points, with lMax = 2
  Transforming local potential to a uniform radial grid of dG=0.02 with 1419 points.
  Transforming nonlocal projectors to a uniform radial grid of dG=0.02 with 528 points.
    3S    l: 0   occupation:  2.0   eigenvalue: -4.081355
    3P    l: 1   occupation:  6.0   eigenvalue: -2.623460
    4S    l: 0   occupation:  2.0   eigenvalue: -0.207378
    3D    l: 2   occupation:  8.0   eigenvalue: -0.326118
  Transforming atomic orbitals to a uniform radial grid of dG=0.02 with 528 points.
  WARNING: large normalization error in atomic orbital 1s (integral: 0.000006).
  Core radius for overlap checks: 1.99 bohrs.
  Reading pulay file /data2/jt577/jdftx_eat_withLibXC/build/pseudopotentials/SG15/Ni_ONCV_PBE.pulay ... using dE_dnG = -7.250568e-04 computed for Ecut = 30.

Reading pseudopotential file '/data2/jt577/jdftx_eat_withLibXC/build/pseudopotentials/SG15/Cr_ONCV_PBE.upf':
  'Cr' pseudopotential, 'PBE' functional
  Generated using ONCVPSP code by D. R. Hamann
  Author: Martin Schlipf and Francois Gygi  Date: 150915.
  14 valence electrons, 4 orbitals, 6 projectors, 1160 radial grid points, with lMax = 2
  Transforming local potential to a uniform radial grid of dG=0.02 with 1419 points.
  Transforming nonlocal projectors to a uniform radial grid of dG=0.02 with 528 points.
    3S    l: 0   occupation:  2.0   eigenvalue: -2.865131
    3P    l: 1   occupation:  6.0   eigenvalue: -1.810600
    4S    l: 0   occupation:  2.0   eigenvalue: -0.180525
    3D    l: 2   occupation:  4.0   eigenvalue: -0.220312
  Transforming atomic orbitals to a uniform radial grid of dG=0.02 with 528 points.
  WARNING: large normalization error in atomic orbital 1s (integral: 0.000001).
  Core radius for overlap checks: 2.10 bohrs.
  Reading pulay file /data2/jt577/jdftx_eat_withLibXC/build/pseudopotentials/SG15/Cr_ONCV_PBE.pulay ... using dE_dnG = -9.817895e-06 computed for Ecut = 30.

Reading pseudopotential file '/data2/jt577/jdftx_eat_withLibXC/build/pseudopotentials/SG15/V_ONCV_PBE.upf':
  'V' pseudopotential, 'PBE' functional
  Generated using ONCVPSP code by D. R. Hamann
  Author: Martin Schlipf and Francois Gygi  Date: 150915.
  13 valence electrons, 4 orbitals, 6 projectors, 1536 radial grid points, with lMax = 2
  Transforming local potential to a uniform radial grid of dG=0.02 with 1419 points.
  Transforming nonlocal projectors to a uniform radial grid of dG=0.02 with 528 points.
    3S    l: 0   occupation:  2.0   eigenvalue: -2.581105
    3P    l: 1   occupation:  6.0   eigenvalue: -1.618486
    4S    l: 0   occupation:  2.0   eigenvalue: -0.172804
    3D    l: 2   occupation:  3.0   eigenvalue: -0.189795
  Transforming atomic orbitals to a uniform radial grid of dG=0.02 with 528 points.
  Core radius for overlap checks: 1.80 bohrs.
  Reading pulay file /data2/jt577/jdftx_eat_withLibXC/build/pseudopotentials/SG15/V_ONCV_PBE.pulay ... using dE_dnG = -1.698632e-04 computed for Ecut = 30.

Reading pseudopotential file '/data2/jt577/jdftx_eat_withLibXC/build/pseudopotentials/SG15/Co_ONCV_PBE.upf':
  'Co' pseudopotential, 'PBE' functional
  Generated using ONCVPSP code by D. R. Hamann
  Author: Martin Schlipf and Francois Gygi  Date: 150915.
  17 valence electrons, 4 orbitals, 6 projectors, 1388 radial grid points, with lMax = 2
  Transforming local potential to a uniform radial grid of dG=0.02 with 1419 points.
  Transforming nonlocal projectors to a uniform radial grid of dG=0.02 with 528 points.
    3S    l: 0   occupation:  2.0   eigenvalue: -3.763303
    3P    l: 1   occupation:  6.0   eigenvalue: -2.412101
    4S    l: 0   occupation:  2.0   eigenvalue: -0.201022
    3D    l: 2   occupation:  7.0   eigenvalue: -0.301498
  Transforming atomic orbitals to a uniform radial grid of dG=0.02 with 528 points.
  Core radius for overlap checks: 1.94 bohrs.
  Reading pulay file /data2/jt577/jdftx_eat_withLibXC/build/pseudopotentials/SG15/Co_ONCV_PBE.pulay ... using dE_dnG = -9.787391e-05 computed for Ecut = 30.

Reading pseudopotential file '/data2/jt577/jdftx_eat_withLibXC/build/pseudopotentials/SG15/O_ONCV_PBE.upf':
  'O' pseudopotential, 'PBE' functional
  Generated using ONCVPSP code by D. R. Hamann
  Author: Martin Schlipf and Francois Gygi  Date: 150915.
  6 valence electrons, 2 orbitals, 4 projectors, 936 radial grid points, with lMax = 1
  Transforming local potential to a uniform radial grid of dG=0.02 with 1419 points.
  Transforming nonlocal projectors to a uniform radial grid of dG=0.02 with 528 points.
    2S    l: 0   occupation:  2.0   eigenvalue: -0.880572
    2P    l: 1   occupation:  4.0   eigenvalue: -0.331869
  Transforming atomic orbitals to a uniform radial grid of dG=0.02 with 528 points.
  Core radius for overlap checks: 1.29 bohrs.
  Reading pulay file /data2/jt577/jdftx_eat_withLibXC/build/pseudopotentials/SG15/O_ONCV_PBE.pulay ... using dE_dnG = -8.209514e-03 computed for Ecut = 30.

Initialized 5 species with 33 total atoms.

Folded 1 k-points by 3x3x1 to 9 k-points.

---------- Setting up k-points, bands, fillings ----------
No reducable k-points. 
Computing the number of bands and number of electrons
Calculating initial fillings.
nElectrons: 359.000000   nBands: 228   nStates: 18

----- Setting up reduced wavefunction bases (one per k-point) -----
average nbasis = 42312.000 , ideal nbasis = 42330.081

---------- Setting up ewald sum ----------
Optimum gaussian width for ewald sums = 3.906449 bohr.
Real space sum over 605 unit cells with max indices [  5  5  2  ]
Reciprocal space sum over 5915 terms with max indices [  6  6  17  ]

---------- Allocating electronic variables ----------
Initializing wave functions:  linear combination of atomic orbitals
Ni (M=1) pseudo-atom majority spin occupations:   s ( 1 0.5 )  p ( 3 )  d ( 5 )
Ni (M=1) pseudo-atom minority spin occupations:   s ( 1 0 )  p ( 3 )  d ( 4.5 )
Cr (M=1) pseudo-atom majority spin occupations:   s ( 1 0 )  p ( 3 )  d ( 3.5 )
Cr (M=1) pseudo-atom minority spin occupations:   s ( 1 0 )  p ( 3 )  d ( 2.5 )
V (M=1) pseudo-atom majority spin occupations:   s ( 1 0 )  p ( 3 )  d ( 3 )
V (M=1) pseudo-atom minority spin occupations:   s ( 1 0 )  p ( 3 )  d ( 2 )
Co (M=1) pseudo-atom majority spin occupations:   s ( 1 0 )  p ( 3 )  d ( 5 )
Co (M=1) pseudo-atom minority spin occupations:   s ( 1 0 )  p ( 3 )  d ( 4 )
O pseudo-atom occupations:   s ( 2 )  p ( 4 )
	FillingsUpdate:  mu: +1.913632695  nElectrons: 359.000000  magneticMoment: [ Abs: 0.28829  Tot: -0.00000 ]
LCAOMinimize: Iter:   0  F: -2019.7384048698063452  |grad|_K:  1.920e-02  alpha:  1.000e+00
LCAOMinimize: 	Step increased F by 2.773073e+02, reducing alpha to 1.714775e-02.
	FillingsUpdate:  mu: +1.651890118  nElectrons: 359.000000  magneticMoment: [ Abs: 0.30880  Tot: -0.00000 ]
LCAOMinimize: Iter:   1  F: -2024.9065026743994622  |grad|_K:  1.532e-02  alpha:  1.715e-02  linmin: -6.035e-02  cgtest:  1.149e+00  t[s]:     53.20
LCAOMinimize: Encountered beta<0, resetting CG.
LCAOMinimize: 	Predicted alpha/alphaT>3.000000, increasing alphaT to 5.144325e-02.
LCAOMinimize: 	Wrong curvature in test step, increasing alphaT to 1.543297e-01.
	FillingsUpdate:  mu: +0.882635895  nElectrons: 359.000000  magneticMoment: [ Abs: 1.26443  Tot: +0.00000 ]
LCAOMinimize: Iter:   2  F: -2045.1375647391619168  |grad|_K:  4.721e-02  alpha: -3.315e-02  linmin: -8.208e-02  cgtest:  2.221e-01  t[s]:     70.85
LCAOMinimize: 	Step increased F by 1.101178e+03, reducing alpha to 4.780487e-02.
LCAOMinimize: 	Step increased F by 4.755448e+02, reducing alpha to 4.780487e-03.
LCAOMinimize: 	Step increased F by 4.060679e+01, reducing alpha to 4.780487e-04.
LCAOMinimize: 	Step failed to reduce F after 3 attempts. Quitting step.
LCAOMinimize: 	Undoing step.
LCAOMinimize: 	Step failed: resetting search direction.
	FillingsUpdate:  mu: +3.261026218  nElectrons: 359.000000  magneticMoment: [ Abs: 0.37246  Tot: -0.00000 ]
LCAOMinimize: Iter:   3  F: -2006.6308856622188159  |grad|_K:  2.910e-02  alpha:  4.780e-04
LCAOMinimize: 	Step increased F by 4.425606e+02, reducing alpha to 2.367233e-02.
	FillingsUpdate:  mu: +1.186973002  nElectrons: 359.000000  magneticMoment: [ Abs: 4.04407  Tot: +0.00000 ]
LCAOMinimize: Iter:   4  F: -2064.2765878564014201  |grad|_K:  3.370e-02  alpha:  2.367e-02  linmin: -6.898e-02  cgtest:  3.867e-01  t[s]:    140.39
LCAOMinimize: 	Step increased F by 6.353184e+00, reducing alpha to 8.154664e-04.
	FillingsUpdate:  mu: +0.655701379  nElectrons: 359.000000  magneticMoment: [ Abs: 4.72775  Tot: +0.00000 ]
LCAOMinimize: Iter:   5  F: -2074.5760727083957136  |grad|_K:  4.989e-02  alpha:  8.155e-04  linmin: -1.178e-01  cgtest:  3.899e-01  t[s]:    164.87
	FillingsUpdate:  mu: +0.073003513  nElectrons: 359.000000  magneticMoment: [ Abs: 5.94552  Tot: +0.00000 ]
LCAOMinimize: Iter:   6  F: -2078.9610605170769304  |grad|_K:  9.497e-03  alpha:  5.309e-04  linmin: -7.649e-02  cgtest:  4.835e-01  t[s]:    179.15
LCAOMinimize: Encountered beta<0, resetting CG.
LCAOMinimize: 	Predicted alpha/alphaT>3.000000, increasing alphaT to 1.592753e-03.
LCAOMinimize: 	Predicted alpha/alphaT>3.000000, increasing alphaT to 4.778259e-03.
LCAOMinimize: 	Predicted alpha/alphaT>3.000000, increasing alphaT to 1.433478e-02.
	FillingsUpdate:  mu: +0.031019103  nElectrons: 359.000000  magneticMoment: [ Abs: 6.27901  Tot: +0.00000 ]
LCAOMinimize: Iter:   7  F: -2079.8759426384644939  |grad|_K:  9.110e-03  alpha:  1.523e-02  linmin: -2.925e-02  cgtest:  3.770e-01  t[s]:    201.82
LCAOMinimize: 	Predicted alpha/alphaT>3.000000, increasing alphaT to 4.568649e-02.
	FillingsUpdate:  mu: -0.029008213  nElectrons: 359.000000  magneticMoment: [ Abs: 7.76822  Tot: +0.00000 ]
LCAOMinimize: Iter:   8  F: -2081.5065970513533102  |grad|_K:  2.053e-02  alpha:  3.999e-02  linmin: -8.078e-03  cgtest: -6.992e-02  t[s]:    221.11
	FillingsUpdate:  mu: -0.115972906  nElectrons: 359.000000  magneticMoment: [ Abs: 6.61916  Tot: -0.00000 ]
LCAOMinimize: Iter:   9  F: -2083.8545875565841925  |grad|_K:  1.152e-02  alpha:  4.695e-03  linmin: -1.033e-02  cgtest:  5.094e-02  t[s]:    235.62
LCAOMinimize: 	Wrong curvature in test step, increasing alphaT to 1.408536e-02.
	FillingsUpdate:  mu: -0.099427479  nElectrons: 359.000000  magneticMoment: [ Abs: 6.29087  Tot: +0.00000 ]
LCAOMinimize: Iter:  10  F: -2084.7767351587613121  |grad|_K:  1.167e-02  alpha: -7.040e-02  linmin: -2.201e-02  cgtest:  8.970e-01  t[s]:    249.32
LCAOMinimize: 	Step increased F by 5.086151e+01, reducing alpha to 1.300375e-02.
	FillingsUpdate:  mu: -0.118350235  nElectrons: 359.000000  magneticMoment: [ Abs: 6.89623  Tot: +0.00000 ]
LCAOMinimize: Iter:  11  F: -2085.8734939525320442  |grad|_K:  9.470e-03  alpha:  1.300e-02  linmin: -2.112e-02  cgtest:  1.997e-02  t[s]:    274.30
LCAOMinimize: 	Wrong curvature in test step, increasing alphaT to 3.901124e-02.
	FillingsUpdate:  mu: -0.125631982  nElectrons: 359.000000  magneticMoment: [ Abs: 6.90923  Tot: +0.00000 ]
LCAOMinimize: Iter:  12  F: -2087.6192912863525635  |grad|_K:  9.647e-03  alpha: -3.225e-02  linmin: -9.129e-02  cgtest:  6.036e-01  t[s]:    287.99
LCAOMinimize: 	Step increased F by 1.101801e+02, reducing alpha to 1.795996e-02.
	FillingsUpdate:  mu: +0.496270769  nElectrons: 359.000000  magneticMoment: [ Abs: 6.74986  Tot: +0.00000 ]
LCAOMinimize: Iter:  13  F: -2088.4758823384995594  |grad|_K:  1.717e-02  alpha:  1.796e-02  linmin: -3.050e-03  cgtest: -1.939e-01  t[s]:    313.21
	FillingsUpdate:  mu: +0.522513430  nElectrons: 359.000000  magneticMoment: [ Abs: 7.59301  Tot: -0.00000 ]
LCAOMinimize: Iter:  14  F: -2088.7474550384290524  |grad|_K:  1.685e-02  alpha:  1.490e-03  linmin:  1.535e-04  cgtest:  9.394e-01  t[s]:    328.05
LCAOMinimize: 	Predicted alpha/alphaT>3.000000, increasing alphaT to 4.470713e-03.
	FillingsUpdate:  mu: +0.163329162  nElectrons: 359.000000  magneticMoment: [ Abs: 8.43042  Tot: -0.00000 ]
LCAOMinimize: Iter:  15  F: -2090.9322813293438230  |grad|_K:  8.290e-03  alpha:  1.215e-02  linmin: -8.452e-02  cgtest:  1.136e-01  t[s]:    346.82
	FillingsUpdate:  mu: +0.069911633  nElectrons: 359.000000  magneticMoment: [ Abs: 8.18528  Tot: -0.00000 ]
LCAOMinimize: Iter:  16  F: -2091.3425329079177573  |grad|_K:  1.047e-02  alpha:  9.156e-03  linmin:  9.127e-03  cgtest:  2.863e-01  t[s]:    361.40
LCAOMinimize: 	Predicted alpha/alphaT>3.000000, increasing alphaT to 2.746889e-02.
	FillingsUpdate:  mu: -0.026226609  nElectrons: 359.000000  magneticMoment: [ Abs: 6.46403  Tot: +0.00000 ]
LCAOMinimize: Iter:  17  F: -2093.2675322836066698  |grad|_K:  7.670e-03  alpha:  4.221e-02  linmin:  6.815e-03  cgtest:  5.734e-01  t[s]:    380.36
	FillingsUpdate:  mu: +0.139819804  nElectrons: 359.000000  magneticMoment: [ Abs: 7.30726  Tot: -0.00000 ]
LCAOMinimize: Iter:  18  F: -2094.2916230730270399  |grad|_K:  6.118e-03  alpha:  2.279e-02  linmin:  8.130e-03  cgtest:  2.545e-01  t[s]:    395.09
	FillingsUpdate:  mu: +0.093892471  nElectrons: 359.000000  magneticMoment: [ Abs: 8.22966  Tot: +0.00000 ]
LCAOMinimize: Iter:  19  F: -2094.6413351270862222  |grad|_K:  3.898e-03  alpha:  1.992e-02  linmin:  1.035e-02  cgtest:  2.554e-01  t[s]:    409.91
	FillingsUpdate:  mu: +0.001311056  nElectrons: 359.000000  magneticMoment: [ Abs: 8.22258  Tot: -0.00000 ]
LCAOMinimize: Iter:  20  F: -2094.8090427817737691  |grad|_K:  3.508e-03  alpha:  2.529e-02  linmin:  2.814e-03  cgtest:  1.117e-01  t[s]:    424.61
	FillingsUpdate:  mu: -0.009304673  nElectrons: 359.000000  magneticMoment: [ Abs: 8.20030  Tot: -0.00000 ]
LCAOMinimize: Iter:  21  F: -2094.8620996351646681  |grad|_K:  1.533e-03  alpha:  1.053e-02  linmin:  5.832e-03  cgtest: -1.352e-02  t[s]:    439.25
LCAOMinimize: 	Predicted alpha/alphaT>3.000000, increasing alphaT to 3.159311e-02.
	FillingsUpdate:  mu: +0.024205078  nElectrons: 359.000000  magneticMoment: [ Abs: 8.67996  Tot: +0.00000 ]
LCAOMinimize: Iter:  22  F: -2094.9168534834311686  |grad|_K:  1.545e-03  alpha:  5.126e-02  linmin: -1.271e-03  cgtest:  3.206e-02  t[s]:    458.09
	FillingsUpdate:  mu: +0.015826361  nElectrons: 359.000000  magneticMoment: [ Abs: 8.79685  Tot: +0.00000 ]
LCAOMinimize: Iter:  23  F: -2094.9328582788639324  |grad|_K:  1.222e-03  alpha:  1.336e-02  linmin: -1.576e-05  cgtest:  2.156e-02  t[s]:    472.37
	FillingsUpdate:  mu: -0.000384819  nElectrons: 359.000000  magneticMoment: [ Abs: 8.86622  Tot: +0.00000 ]
LCAOMinimize: Iter:  24  F: -2094.9538489934197969  |grad|_K:  8.063e-04  alpha:  2.808e-02  linmin: -2.405e-03  cgtest:  2.943e-01  t[s]:    487.07
	FillingsUpdate:  mu: +0.016674169  nElectrons: 359.000000  magneticMoment: [ Abs: 9.08300  Tot: -0.00000 ]
LCAOMinimize: Iter:  25  F: -2094.9670496831408855  |grad|_K:  9.930e-04  alpha:  3.814e-02  linmin: -2.060e-03  cgtest: -3.566e-02  t[s]:    501.74
	FillingsUpdate:  mu: +0.016238825  nElectrons: 359.000000  magneticMoment: [ Abs: 9.39916  Tot: +0.00000 ]
LCAOMinimize: Iter:  26  F: -2094.9814714414255832  |grad|_K:  1.045e-03  alpha:  2.482e-02  linmin: -9.677e-05  cgtest: -6.948e-02  t[s]:    516.57
	FillingsUpdate:  mu: +0.014509652  nElectrons: 359.000000  magneticMoment: [ Abs: 10.26675  Tot: -0.00000 ]
LCAOMinimize: Iter:  27  F: -2095.0140931500427541  |grad|_K:  1.510e-03  alpha:  5.895e-02  linmin: -3.581e-04  cgtest:  9.977e-01  t[s]:    531.14
	FillingsUpdate:  mu: +0.020500038  nElectrons: 359.000000  magneticMoment: [ Abs: 10.45171  Tot: +0.00000 ]
LCAOMinimize: Iter:  28  F: -2095.0352748770687867  |grad|_K:  1.023e-03  alpha:  2.496e-02  linmin:  2.102e-03  cgtest: -4.483e-01  t[s]:    545.89
	FillingsUpdate:  mu: +0.027444768  nElectrons: 359.000000  magneticMoment: [ Abs: 11.16320  Tot: +0.00000 ]
LCAOMinimize: Iter:  29  F: -2095.0609789796071709  |grad|_K:  7.079e-04  alpha:  6.043e-02  linmin: -1.235e-03  cgtest:  5.813e-01  t[s]:    560.48
	FillingsUpdate:  mu: +0.028130480  nElectrons: 359.000000  magneticMoment: [ Abs: 11.27544  Tot: +0.00000 ]
LCAOMinimize: Iter:  30  F: -2095.0670402655991893  |grad|_K:  5.447e-04  alpha:  2.477e-02  linmin: -3.074e-04  cgtest:  1.519e-02  t[s]:    575.21
LCAOMinimize: None of the convergence criteria satisfied after 30 iterations.


---- Citations for features of the code used in this run ----

   Software package:
      R. Sundararaman, K. Letchworth-Weaver, K.A. Schwarz, D. Gunceler, Y. Ozhabes and T.A. Arias, 'JDFTx: software for joint density-functional theory', SoftwareX 6, 278 (2017)

   Simplified rotationally-invariant DFT+U:
      S. L. Dudarev et al., Phys. Rev. B 57, 1505 (1998)

   LibXC library of exchange-correlation functions:
      M. A. L. Marques, M. J. T. Oliveira and T. Burnus, Comput. Phys. Commun. 183, 2272 (2012)

   Hammer, Hansen, and Norskov exchange functional:
      B. Hammer, L. B. Hansen, and J. K. Nørskov, Phys. Rev. B 59, 7413 (1999)

   Perdew, Burke & Ernzerhof correlation functional:
      J. P. Perdew, K. Burke, and M. Ernzerhof, Phys. Rev. Lett. 77, 3865 (1996)

   Pseudopotentials:
      M Schlipf and F Gygi, Comput. Phys. Commun. 196, 36 (2015)

   Total energy minimization with Auxiliary Hamiltonian:
      C. Freysoldt, S. Boeck, and J. Neugebauer, Phys. Rev. B 79, 241103(R) (2009)

This list may not be complete. Please suggest additional citations or
report any other bugs at https://github.com/shankar1729/jdftx/issues

Initialization completed successfully at t[s]:    581.44


-------- Electronic minimization -----------
	FillingsUpdate:  mu: +0.028130488  nElectrons: 359.000000  magneticMoment: [ Abs: 11.27544  Tot: +0.00000 ]
ElecMinimize: Iter:   0  F: -2095.067040265599189  |grad|_K:  1.199e-03  alpha:  1.000e+00
	FillingsUpdate:  mu: +0.568335164  nElectrons: 359.000000  magneticMoment: [ Abs: 11.73605  Tot: +0.00000 ]
	SubspaceRotationAdjust: set factor to 0.998
ElecMinimize: Iter:   1  F: -2161.457466387004843  |grad|_K:  1.431e-03  alpha:  4.800e-01  linmin:  1.009e-02  t[s]:    674.37
	FillingsUpdate:  mu: +1.511664211  nElectrons: 359.000000  magneticMoment: [ Abs: 12.15044  Tot: +0.00000 ]
	SubspaceRotationAdjust: set factor to 0.601
ElecMinimize: Iter:   2  F: -2162.423055092470349  |grad|_K:  2.047e-03  alpha:  9.897e-02  linmin:  3.570e-03  t[s]:    752.16
	FillingsUpdate:  mu: +0.766349625  nElectrons: 359.000000  magneticMoment: [ Abs: 13.18116  Tot: -0.00000 ]
	SubspaceRotationAdjust: set factor to 0.267
ElecMinimize: Iter:   3  F: -2174.311715334938981  |grad|_K:  9.457e-04  alpha:  2.911e-02  linmin:  2.215e-03  t[s]:    828.27
ElecMinimize: 	Predicted alpha/alphaT>3.000000, increasing alphaT to 8.733332e-02.
	FillingsUpdate:  mu: +0.936757581  nElectrons: 359.000000  magneticMoment: [ Abs: 15.73789  Tot: +0.00000 ]
	SubspaceRotationAdjust: set factor to 0.144
ElecMinimize: Iter:   4  F: -2188.317920650911674  |grad|_K:  1.108e-03  alpha:  1.557e-01  linmin:  3.613e-03  t[s]:    934.01
	FillingsUpdate:  mu: +0.888657361  nElectrons: 359.000000  magneticMoment: [ Abs: 16.18736  Tot: -0.00000 ]
	SubspaceRotationAdjust: set factor to 0.12
	SubspaceRotationAdjust: resetting CG because factor has changed by 0.120499
ElecMinimize: 	State modified externally: resetting search direction.
ElecMinimize: Iter:   5  F: -2189.794737413939856  |grad|_K:  8.325e-04  alpha:  9.327e-03
ElecMinimize: 	Predicted alpha/alphaT>3.000000, increasing alphaT to 2.798237e-02.
ElecMinimize: 	Predicted alpha/alphaT>3.000000, increasing alphaT to 8.394710e-02.
	FillingsUpdate:  mu: +0.385960761  nElectrons: 359.000000  magneticMoment: [ Abs: 16.68493  Tot: +0.00000 ]
	SubspaceRotationAdjust: set factor to 0.0719
ElecMinimize: Iter:   6  F: -2204.250142076410611  |grad|_K:  3.255e-04  alpha:  1.138e-01  linmin: -1.837e-02  t[s]:   1166.16
	FillingsUpdate:  mu: +0.273648232  nElectrons: 359.000000  magneticMoment: [ Abs: 16.49116  Tot: +0.00000 ]
	SubspaceRotationAdjust: set factor to 0.0902
ElecMinimize: Iter:   7  F: -2209.735598757135904  |grad|_K:  1.851e-04  alpha:  2.584e-01  linmin:  7.254e-04  t[s]:   1241.68
	FillingsUpdate:  mu: +0.141227644  nElectrons: 359.000000  magneticMoment: [ Abs: 16.51775  Tot: +0.00000 ]
	SubspaceRotationAdjust: set factor to 0.0898
ElecMinimize: Iter:   8  F: -2211.028708615473988  |grad|_K:  1.112e-04  alpha:  2.206e-01  linmin:  1.257e-04  t[s]:   1318.39
	FillingsUpdate:  mu: +0.145951760  nElectrons: 359.000000  magneticMoment: [ Abs: 17.09469  Tot: +0.00000 ]
	SubspaceRotationAdjust: set factor to 0.101
ElecMinimize: Iter:   9  F: -2211.598188077548457  |grad|_K:  8.486e-05  alpha:  2.661e-01  linmin: -2.818e-04  t[s]:   1396.13
	FillingsUpdate:  mu: +0.144334487  nElectrons: 359.000000  magneticMoment: [ Abs: 17.50303  Tot: +0.00000 ]
	SubspaceRotationAdjust: set factor to 0.121
ElecMinimize: Iter:  10  F: -2211.946173685597842  |grad|_K:  6.301e-05  alpha:  2.683e-01  linmin: -1.717e-04  t[s]:   1471.09
	FillingsUpdate:  mu: +0.121621202  nElectrons: 359.000000  magneticMoment: [ Abs: 17.69853  Tot: +0.00000 ]
	SubspaceRotationAdjust: set factor to 0.136
ElecMinimize: Iter:  11  F: -2212.147289159868251  |grad|_K:  5.703e-05  alpha:  2.826e-01  linmin: -4.192e-05  t[s]:   1548.28
	FillingsUpdate:  mu: +0.112402521  nElectrons: 359.000000  magneticMoment: [ Abs: 18.56566  Tot: +0.00000 ]
	SubspaceRotationAdjust: set factor to 0.158
ElecMinimize: Iter:  12  F: -2212.364802666470950  |grad|_K:  5.997e-05  alpha:  3.782e-01  linmin: -1.835e-05  t[s]:   1624.93
	FillingsUpdate:  mu: +0.114835329  nElectrons: 359.000000  magneticMoment: [ Abs: 19.85207  Tot: +0.00000 ]
	SubspaceRotationAdjust: set factor to 0.181
ElecMinimize: Iter:  13  F: -2212.590821859955213  |grad|_K:  6.549e-05  alpha:  3.565e-01  linmin: -7.521e-06  t[s]:   1700.96
	FillingsUpdate:  mu: +0.070019060  nElectrons: 359.000000  magneticMoment: [ Abs: 21.00931  Tot: +0.00000 ]
	SubspaceRotationAdjust: set factor to 0.185
ElecMinimize: Iter:  14  F: -2212.816693123400910  |grad|_K:  7.307e-05  alpha:  2.988e-01  linmin: -1.951e-05  t[s]:   1778.19
	FillingsUpdate:  mu: +0.111217839  nElectrons: 359.000000  magneticMoment: [ Abs: 22.37218  Tot: +0.00000 ]
	SubspaceRotationAdjust: set factor to 0.184
ElecMinimize: Iter:  15  F: -2213.006785154606860  |grad|_K:  8.397e-05  alpha:  1.934e-01  linmin:  2.537e-06  t[s]:   1856.39
	FillingsUpdate:  mu: +0.091052109  nElectrons: 359.000000  magneticMoment: [ Abs: 22.90552  Tot: +0.00000 ]
	SubspaceRotationAdjust: set factor to 0.263
ElecMinimize: Iter:  16  F: -2213.156489638782659  |grad|_K:  7.037e-05  alpha:  7.766e-02  linmin: -4.273e-04  t[s]:   1931.04
	FillingsUpdate:  mu: +0.122180073  nElectrons: 359.000000  magneticMoment: [ Abs: 23.16280  Tot: -0.00000 ]
	SubspaceRotationAdjust: set factor to 0.167
ElecMinimize: Iter:  17  F: -2213.260174709633702  |grad|_K:  1.142e-04  alpha:  7.825e-02  linmin:  2.142e-04  t[s]:   2006.85
	FillingsUpdate:  mu: +0.134509183  nElectrons: 359.000000  magneticMoment: [ Abs: 23.25689  Tot: +0.00000 ]
	SubspaceRotationAdjust: set factor to 0.109
ElecMinimize: Iter:  18  F: -2213.278449654757424  |grad|_K:  1.080e-04  alpha:  8.935e-03  linmin: -1.879e-04  t[s]:   2083.49
ElecMinimize: 	Predicted alpha/alphaT>3.000000, increasing alphaT to 2.680405e-02.
	FillingsUpdate:  mu: +0.151825364  nElectrons: 359.000000  magneticMoment: [ Abs: 23.66020  Tot: +0.00000 ]
	SubspaceRotationAdjust: set factor to 0.0751
ElecMinimize: Iter:  19  F: -2213.359362848117598  |grad|_K:  9.982e-05  alpha:  3.192e-02  linmin:  4.233e-05  t[s]:   2193.61
	FillingsUpdate:  mu: +0.149383564  nElectrons: 359.000000  magneticMoment: [ Abs: 24.02315  Tot: -0.00000 ]
	SubspaceRotationAdjust: set factor to 0.0629
ElecMinimize: Iter:  20  F: -2213.400019936563240  |grad|_K:  8.510e-05  alpha:  2.457e-02  linmin:  2.181e-06  t[s]:   2269.62
	FillingsUpdate:  mu: +0.122441289  nElectrons: 359.000000  magneticMoment: [ Abs: 24.34427  Tot: -0.00000 ]
	SubspaceRotationAdjust: set factor to 0.0715
ElecMinimize: Iter:  21  F: -2213.430673006567758  |grad|_K:  7.132e-05  alpha:  2.436e-02  linmin:  4.489e-05  t[s]:   2345.41
	FillingsUpdate:  mu: +0.106610731  nElectrons: 359.000000  magneticMoment: [ Abs: 24.51593  Tot: -0.00000 ]
	SubspaceRotationAdjust: set factor to 0.0892
ElecMinimize: Iter:  22  F: -2213.445926872316250  |grad|_K:  6.558e-05  alpha:  1.761e-02  linmin:  4.078e-06  t[s]:   2422.24
	FillingsUpdate:  mu: +0.087017140  nElectrons: 359.000000  magneticMoment: [ Abs: 24.61026  Tot: +0.00000 ]
	SubspaceRotationAdjust: set factor to 0.107
ElecMinimize: Iter:  23  F: -2213.455982450260308  |grad|_K:  6.203e-05  alpha:  1.286e-02  linmin:  8.488e-06  t[s]:   2498.57
	FillingsUpdate:  mu: +0.089738285  nElectrons: 359.000000  magneticMoment: [ Abs: 24.65141  Tot: +0.00000 ]
	SubspaceRotationAdjust: set factor to 0.119
ElecMinimize: Iter:  24  F: -2213.461864678345592  |grad|_K:  5.954e-05  alpha:  8.334e-03  linmin: -1.014e-05  t[s]:   2575.41
	FillingsUpdate:  mu: +0.089445990  nElectrons: 359.000000  magneticMoment: [ Abs: 24.66732  Tot: +0.00000 ]
	SubspaceRotationAdjust: set factor to 0.126
ElecMinimize: Iter:  25  F: -2213.465784027401696  |grad|_K:  5.697e-05  alpha:  6.052e-03  linmin:  9.431e-06  t[s]:   2648.90
	FillingsUpdate:  mu: +0.091530841  nElectrons: 359.000000  magneticMoment: [ Abs: 24.66920  Tot: +0.00000 ]
	SubspaceRotationAdjust: set factor to 0.13
ElecMinimize: Iter:  26  F: -2213.468356835843224  |grad|_K:  5.447e-05  alpha:  4.479e-03  linmin:  1.042e-05  t[s]:   2725.14
	FillingsUpdate:  mu: +0.089882599  nElectrons: 359.000000  magneticMoment: [ Abs: 24.66358  Tot: +0.00000 ]
	SubspaceRotationAdjust: set factor to 0.131
ElecMinimize: Iter:  27  F: -2213.470243435813245  |grad|_K:  5.198e-05  alpha:  3.638e-03  linmin:  1.737e-05  t[s]:   2802.06
	FillingsUpdate:  mu: +0.089256204  nElectrons: 359.000000  magneticMoment: [ Abs: 24.65366  Tot: +0.00000 ]
	SubspaceRotationAdjust: set factor to 0.13
ElecMinimize: Iter:  28  F: -2213.471681006449671  |grad|_K:  4.957e-05  alpha:  3.078e-03  linmin:  1.761e-05  t[s]:   2877.52
	FillingsUpdate:  mu: +0.087798669  nElectrons: 359.000000  magneticMoment: [ Abs: 24.64112  Tot: +0.00000 ]
	SubspaceRotationAdjust: set factor to 0.13
ElecMinimize: Iter:  29  F: -2213.472833529657692  |grad|_K:  4.728e-05  alpha:  2.721e-03  linmin:  1.783e-05  t[s]:   2954.86
	FillingsUpdate:  mu: +0.085835113  nElectrons: 359.000000  magneticMoment: [ Abs: 24.62701  Tot: +0.00000 ]
	SubspaceRotationAdjust: set factor to 0.129
ElecMinimize: Iter:  30  F: -2213.473783502128299  |grad|_K:  4.513e-05  alpha:  2.468e-03  linmin:  1.699e-05  t[s]:   3032.54
	FillingsUpdate:  mu: +0.083861356  nElectrons: 359.000000  magneticMoment: [ Abs: 24.61202  Tot: -0.00000 ]
	SubspaceRotationAdjust: set factor to 0.128
ElecMinimize: Iter:  31  F: -2213.474584577975747  |grad|_K:  4.314e-05  alpha:  2.283e-03  linmin:  1.614e-05  t[s]:   3107.07
	FillingsUpdate:  mu: +0.082075650  nElectrons: 359.000000  magneticMoment: [ Abs: 24.59659  Tot: +0.00000 ]
	SubspaceRotationAdjust: set factor to 0.128
ElecMinimize: Iter:  32  F: -2213.475271237642119  |grad|_K:  4.133e-05  alpha:  2.140e-03  linmin:  1.536e-05  t[s]:   3183.98
	FillingsUpdate:  mu: +0.080537362  nElectrons: 359.000000  magneticMoment: [ Abs: 24.58098  Tot: +0.00000 ]
	SubspaceRotationAdjust: set factor to 0.128
ElecMinimize: Iter:  33  F: -2213.475867583859781  |grad|_K:  3.970e-05  alpha:  2.024e-03  linmin:  1.483e-05  t[s]:   3257.92
	FillingsUpdate:  mu: +0.079024748  nElectrons: 359.000000  magneticMoment: [ Abs: 24.56544  Tot: +0.00000 ]
	SubspaceRotationAdjust: set factor to 0.128
ElecMinimize: Iter:  34  F: -2213.476391203512321  |grad|_K:  3.824e-05  alpha:  1.925e-03  linmin:  1.456e-05  t[s]:   3333.48
	FillingsUpdate:  mu: +0.077509861  nElectrons: 359.000000  magneticMoment: [ Abs: 24.55012  Tot: -0.00000 ]
	SubspaceRotationAdjust: set factor to 0.128
ElecMinimize: Iter:  35  F: -2213.476855575017908  |grad|_K:  3.697e-05  alpha:  1.838e-03  linmin:  1.455e-05  t[s]:   3408.57
	FillingsUpdate:  mu: +0.075568916  nElectrons: 359.000000  magneticMoment: [ Abs: 24.53513  Tot: +0.00000 ]
	SubspaceRotationAdjust: set factor to 0.127
ElecMinimize: Iter:  36  F: -2213.477271470414507  |grad|_K:  3.587e-05  alpha:  1.761e-03  linmin:  1.472e-05  t[s]:   3484.99
	FillingsUpdate:  mu: +0.073226366  nElectrons: 359.000000  magneticMoment: [ Abs: 24.52052  Tot: -0.00000 ]
	SubspaceRotationAdjust: set factor to 0.125
ElecMinimize: Iter:  37  F: -2213.477647795295525  |grad|_K:  3.493e-05  alpha:  1.693e-03  linmin:  1.499e-05  t[s]:   3560.03
	FillingsUpdate:  mu: +0.071203343  nElectrons: 359.000000  magneticMoment: [ Abs: 24.50634  Tot: +0.00000 ]
	SubspaceRotationAdjust: set factor to 0.123
ElecMinimize: Iter:  38  F: -2213.477992077790532  |grad|_K:  3.413e-05  alpha:  1.633e-03  linmin:  1.527e-05  t[s]:   3636.69
	FillingsUpdate:  mu: +0.070421610  nElectrons: 359.000000  magneticMoment: [ Abs: 24.49255  Tot: +0.00000 ]
	SubspaceRotationAdjust: set factor to 0.12
ElecMinimize: Iter:  39  F: -2213.478310743782458  |grad|_K:  3.345e-05  alpha:  1.583e-03  linmin:  1.550e-05  t[s]:   3710.34
	FillingsUpdate:  mu: +0.069780478  nElectrons: 359.000000  magneticMoment: [ Abs: 24.47911  Tot: +0.00000 ]
	SubspaceRotationAdjust: set factor to 0.115
ElecMinimize: Iter:  40  F: -2213.478609279266038  |grad|_K:  3.287e-05  alpha:  1.544e-03  linmin:  1.561e-05  t[s]:   3788.90
	FillingsUpdate:  mu: +0.070030582  nElectrons: 359.000000  magneticMoment: [ Abs: 24.46596  Tot: +0.00000 ]
	SubspaceRotationAdjust: set factor to 0.109
ElecMinimize: Iter:  41  F: -2213.478892331198495  |grad|_K:  3.237e-05  alpha:  1.515e-03  linmin:  1.557e-05  t[s]:   3865.55
	FillingsUpdate:  mu: +0.069504608  nElectrons: 359.000000  magneticMoment: [ Abs: 24.45310  Tot: +0.00000 ]
	SubspaceRotationAdjust: set factor to 0.103
ElecMinimize: Iter:  42  F: -2213.479163788811093  |grad|_K:  3.192e-05  alpha:  1.499e-03  linmin:  1.535e-05  t[s]:   3945.04
	FillingsUpdate:  mu: +0.069118810  nElectrons: 359.000000  magneticMoment: [ Abs: 24.44046  Tot: +0.00000 ]
	SubspaceRotationAdjust: set factor to 0.0965
ElecMinimize: Iter:  43  F: -2213.479426856202281  |grad|_K:  3.150e-05  alpha:  1.494e-03  linmin:  1.496e-05  t[s]:   4022.20
	FillingsUpdate:  mu: +0.068642500  nElectrons: 359.000000  magneticMoment: [ Abs: 24.42800  Tot: -0.00000 ]
	SubspaceRotationAdjust: set factor to 0.0896
ElecMinimize: Iter:  44  F: -2213.479684121864466  |grad|_K:  3.110e-05  alpha:  1.500e-03  linmin:  1.439e-05  t[s]:   4097.19
	FillingsUpdate:  mu: +0.068833815  nElectrons: 359.000000  magneticMoment: [ Abs: 24.41567  Tot: +0.00000 ]
	SubspaceRotationAdjust: set factor to 0.0829
ElecMinimize: Iter:  45  F: -2213.479937623529167  |grad|_K:  3.070e-05  alpha:  1.516e-03  linmin:  1.365e-05  t[s]:   4175.43
	FillingsUpdate:  mu: +0.069453312  nElectrons: 359.000000  magneticMoment: [ Abs: 24.40347  Tot: -0.00000 ]
	SubspaceRotationAdjust: set factor to 0.0764
ElecMinimize: Iter:  46  F: -2213.480188914140399  |grad|_K:  3.031e-05  alpha:  1.540e-03  linmin:  1.278e-05  t[s]:   4253.99
	FillingsUpdate:  mu: +0.069820873  nElectrons: 359.000000  magneticMoment: [ Abs: 24.39138  Tot: +0.00000 ]
	SubspaceRotationAdjust: set factor to 0.0705
ElecMinimize: Iter:  47  F: -2213.480439119124640  |grad|_K:  2.992e-05  alpha:  1.573e-03  linmin:  1.181e-05  t[s]:   4332.04
	FillingsUpdate:  mu: +0.069744226  nElectrons: 359.000000  magneticMoment: [ Abs: 24.37942  Tot: -0.00000 ]
	SubspaceRotationAdjust: set factor to 0.0651
ElecMinimize: Iter:  48  F: -2213.480688988827296  |grad|_K:  2.953e-05  alpha:  1.611e-03  linmin:  1.077e-05  t[s]:   4407.90
	FillingsUpdate:  mu: +0.069225996  nElectrons: 359.000000  magneticMoment: [ Abs: 24.36760  Tot: +0.00000 ]
	SubspaceRotationAdjust: set factor to 0.0602
ElecMinimize: Iter:  49  F: -2213.480938952844554  |grad|_K:  2.914e-05  alpha:  1.654e-03  linmin:  9.709e-06  t[s]:   4486.21
	FillingsUpdate:  mu: +0.068598491  nElectrons: 359.000000  magneticMoment: [ Abs: 24.35598  Tot: +0.00000 ]
	SubspaceRotationAdjust: set factor to 0.056
ElecMinimize: Iter:  50  F: -2213.481189171111964  |grad|_K:  2.875e-05  alpha:  1.700e-03  linmin:  8.628e-06  t[s]:   4562.45
	FillingsUpdate:  mu: +0.068521792  nElectrons: 359.000000  magneticMoment: [ Abs: 24.34460  Tot: +0.00000 ]
	SubspaceRotationAdjust: set factor to 0.0523
ElecMinimize: Iter:  51  F: -2213.481439588231297  |grad|_K:  2.835e-05  alpha:  1.747e-03  linmin:  7.559e-06  t[s]:   4640.26
	FillingsUpdate:  mu: +0.068777238  nElectrons: 359.000000  magneticMoment: [ Abs: 24.33349  Tot: +0.00000 ]
	SubspaceRotationAdjust: set factor to 0.0491
ElecMinimize: Iter:  52  F: -2213.481689977656515  |grad|_K:  2.797e-05  alpha:  1.795e-03  linmin:  6.496e-06  t[s]:   4720.04
	FillingsUpdate:  mu: +0.068717478  nElectrons: 359.000000  magneticMoment: [ Abs: 24.32268  Tot: -0.00000 ]
	SubspaceRotationAdjust: set factor to 0.0464
ElecMinimize: Iter:  53  F: -2213.481940003348427  |grad|_K:  2.758e-05  alpha:  1.841e-03  linmin:  5.451e-06  t[s]:   4797.93
	FillingsUpdate:  mu: +0.068365079  nElectrons: 359.000000  magneticMoment: [ Abs: 24.31225  Tot: +0.00000 ]
	SubspaceRotationAdjust: set factor to 0.0442
ElecMinimize: Iter:  54  F: -2213.482189258190374  |grad|_K:  2.720e-05  alpha:  1.886e-03  linmin:  4.404e-06  t[s]:   4873.56
	FillingsUpdate:  mu: +0.067893233  nElectrons: 359.000000  magneticMoment: [ Abs: 24.30225  Tot: -0.00000 ]
	SubspaceRotationAdjust: set factor to 0.0422
ElecMinimize: Iter:  55  F: -2213.482437317764834  |grad|_K:  2.683e-05  alpha:  1.929e-03  linmin:  3.363e-06  t[s]:   4953.40
	FillingsUpdate:  mu: +0.067353473  nElectrons: 359.000000  magneticMoment: [ Abs: 24.29272  Tot: -0.00000 ]
	SubspaceRotationAdjust: set factor to 0.0406
ElecMinimize: Iter:  56  F: -2213.482683770812855  |grad|_K:  2.646e-05  alpha:  1.969e-03  linmin:  2.327e-06  t[s]:   5033.60
	FillingsUpdate:  mu: +0.066783538  nElectrons: 359.000000  magneticMoment: [ Abs: 24.28369  Tot: -0.00000 ]
	SubspaceRotationAdjust: set factor to 0.0393
ElecMinimize: Iter:  57  F: -2213.482928248371991  |grad|_K:  2.609e-05  alpha:  2.008e-03  linmin:  1.277e-06  t[s]:   5112.87
	FillingsUpdate:  mu: +0.066240183  nElectrons: 359.000000  magneticMoment: [ Abs: 24.27520  Tot: -0.00000 ]
	SubspaceRotationAdjust: set factor to 0.0382
ElecMinimize: Iter:  58  F: -2213.483170450040234  |grad|_K:  2.574e-05  alpha:  2.044e-03  linmin:  2.189e-07  t[s]:   5191.09
	FillingsUpdate:  mu: +0.065842355  nElectrons: 359.000000  magneticMoment: [ Abs: 24.26728  Tot: +0.00000 ]
	SubspaceRotationAdjust: set factor to 0.0373
ElecMinimize: Iter:  59  F: -2213.483410152304259  |grad|_K:  2.538e-05  alpha:  2.079e-03  linmin: -8.419e-07  t[s]:   5267.99
	FillingsUpdate:  mu: +0.065754331  nElectrons: 359.000000  magneticMoment: [ Abs: 24.25997  Tot: +0.00000 ]
	SubspaceRotationAdjust: set factor to 0.0366
ElecMinimize: Iter:  60  F: -2213.483647212910910  |grad|_K:  2.504e-05  alpha:  2.112e-03  linmin: -1.909e-06  t[s]:   5345.86
	FillingsUpdate:  mu: +0.066009666  nElectrons: 359.000000  magneticMoment: [ Abs: 24.25329  Tot: -0.00000 ]
	SubspaceRotationAdjust: set factor to 0.036
ElecMinimize: Iter:  61  F: -2213.483881572542487  |grad|_K:  2.470e-05  alpha:  2.145e-03  linmin: -2.973e-06  t[s]:   5423.22
	FillingsUpdate:  mu: +0.066467254  nElectrons: 359.000000  magneticMoment: [ Abs: 24.24725  Tot: +0.00000 ]
	SubspaceRotationAdjust: set factor to 0.0355
ElecMinimize: Iter:  62  F: -2213.484113246156539  |grad|_K:  2.437e-05  alpha:  2.178e-03  linmin: -4.031e-06  t[s]:   5499.83
	FillingsUpdate:  mu: +0.066869822  nElectrons: 359.000000  magneticMoment: [ Abs: 24.24189  Tot: -0.00000 ]
	SubspaceRotationAdjust: set factor to 0.0351
ElecMinimize: Iter:  63  F: -2213.484342319476127  |grad|_K:  2.405e-05  alpha:  2.211e-03  linmin: -5.055e-06  t[s]:   5577.25
	FillingsUpdate:  mu: +0.067370303  nElectrons: 359.000000  magneticMoment: [ Abs: 24.23722  Tot: -0.00000 ]
	SubspaceRotationAdjust: set factor to 0.0347
ElecMinimize: Iter:  64  F: -2213.484568926409338  |grad|_K:  2.374e-05  alpha:  2.245e-03  linmin: -6.070e-06  t[s]:   5652.63
	FillingsUpdate:  mu: +0.067608515  nElectrons: 359.000000  magneticMoment: [ Abs: 24.23326  Tot: -0.00000 ]
	SubspaceRotationAdjust: set factor to 0.0344
ElecMinimize: Iter:  65  F: -2213.484793253712724  |grad|_K:  2.344e-05  alpha:  2.280e-03  linmin: -7.038e-06  t[s]:   5730.87
	FillingsUpdate:  mu: +0.067412687  nElectrons: 359.000000  magneticMoment: [ Abs: 24.23001  Tot: +0.00000 ]
	SubspaceRotationAdjust: set factor to 0.0341
ElecMinimize: Iter:  66  F: -2213.485015511159872  |grad|_K:  2.316e-05  alpha:  2.316e-03  linmin: -7.973e-06  t[s]:   5809.47
	FillingsUpdate:  mu: +0.067059250  nElectrons: 359.000000  magneticMoment: [ Abs: 24.22748  Tot: +0.00000 ]
	SubspaceRotationAdjust: set factor to 0.0338
ElecMinimize: Iter:  67  F: -2213.485235929400460  |grad|_K:  2.288e-05  alpha:  2.353e-03  linmin: -8.855e-06  t[s]:   5889.36
	FillingsUpdate:  mu: +0.066254757  nElectrons: 359.000000  magneticMoment: [ Abs: 24.22568  Tot: +0.00000 ]
	SubspaceRotationAdjust: set factor to 0.0335
ElecMinimize: Iter:  68  F: -2213.485454740213754  |grad|_K:  2.262e-05  alpha:  2.392e-03  linmin: -9.683e-06  t[s]:   5964.66
	FillingsUpdate:  mu: +0.065575160  nElectrons: 359.000000  magneticMoment: [ Abs: 24.22462  Tot: -0.00000 ]
	SubspaceRotationAdjust: set factor to 0.0332
ElecMinimize: Iter:  69  F: -2213.485672165138567  |grad|_K:  2.237e-05  alpha:  2.431e-03  linmin: -1.045e-05  t[s]:   6043.50
	FillingsUpdate:  mu: +0.065141261  nElectrons: 359.000000  magneticMoment: [ Abs: 24.22428  Tot: -0.00000 ]
	SubspaceRotationAdjust: set factor to 0.0329
ElecMinimize: Iter:  70  F: -2213.485888404563866  |grad|_K:  2.213e-05  alpha:  2.472e-03  linmin: -1.116e-05  t[s]:   6122.16
	FillingsUpdate:  mu: +0.065058014  nElectrons: 359.000000  magneticMoment: [ Abs: 24.22465  Tot: +0.00000 ]
	SubspaceRotationAdjust: set factor to 0.0326
ElecMinimize: Iter:  71  F: -2213.486103624521093  |grad|_K:  2.190e-05  alpha:  2.513e-03  linmin: -1.182e-05  t[s]:   6199.64
	FillingsUpdate:  mu: +0.066051931  nElectrons: 359.000000  magneticMoment: [ Abs: 24.22573  Tot: +0.00000 ]
	SubspaceRotationAdjust: set factor to 0.0322
ElecMinimize: Iter:  72  F: -2213.486317952557329  |grad|_K:  2.168e-05  alpha:  2.555e-03  linmin: -1.243e-05  t[s]:   6280.16
	FillingsUpdate:  mu: +0.067263024  nElectrons: 359.000000  magneticMoment: [ Abs: 24.22752  Tot: +0.00000 ]
	SubspaceRotationAdjust: set factor to 0.0319
ElecMinimize: Iter:  73  F: -2213.486531469494366  |grad|_K:  2.147e-05  alpha:  2.596e-03  linmin: -1.300e-05  t[s]:   6357.91
	FillingsUpdate:  mu: +0.068388947  nElectrons: 359.000000  magneticMoment: [ Abs: 24.23002  Tot: +0.00000 ]
	SubspaceRotationAdjust: set factor to 0.0315
ElecMinimize: Iter:  74  F: -2213.486744207949414  |grad|_K:  2.127e-05  alpha:  2.638e-03  linmin: -1.355e-05  t[s]:   6436.64
	FillingsUpdate:  mu: +0.069313326  nElectrons: 359.000000  magneticMoment: [ Abs: 24.23321  Tot: +0.00000 ]
	SubspaceRotationAdjust: set factor to 0.031
ElecMinimize: Iter:  75  F: -2213.486956157493296  |grad|_K:  2.107e-05  alpha:  2.678e-03  linmin: -1.411e-05  t[s]:   6514.41
	FillingsUpdate:  mu: +0.070573576  nElectrons: 359.000000  magneticMoment: [ Abs: 24.23708  Tot: +0.00000 ]
	SubspaceRotationAdjust: set factor to 0.0306
ElecMinimize: Iter:  76  F: -2213.487167269128804  |grad|_K:  2.088e-05  alpha:  2.718e-03  linmin: -1.466e-05  t[s]:   6591.16
	FillingsUpdate:  mu: +0.072034939  nElectrons: 359.000000  magneticMoment: [ Abs: 24.24161  Tot: +0.00000 ]
	SubspaceRotationAdjust: set factor to 0.0302
ElecMinimize: Iter:  77  F: -2213.487377461939104  |grad|_K:  2.069e-05  alpha:  2.755e-03  linmin: -1.525e-05  t[s]:   6667.71
	FillingsUpdate:  mu: +0.073052740  nElectrons: 359.000000  magneticMoment: [ Abs: 24.24680  Tot: +0.00000 ]
	SubspaceRotationAdjust: set factor to 0.0298
ElecMinimize: Iter:  78  F: -2213.487586638380890  |grad|_K:  2.051e-05  alpha:  2.791e-03  linmin: -1.590e-05  t[s]:   6741.24
	FillingsUpdate:  mu: +0.073660334  nElectrons: 359.000000  magneticMoment: [ Abs: 24.25261  Tot: -0.00000 ]
	SubspaceRotationAdjust: set factor to 0.0295
ElecMinimize: Iter:  79  F: -2213.487794701539769  |grad|_K:  2.034e-05  alpha:  2.824e-03  linmin: -1.661e-05  t[s]:   6817.08
	FillingsUpdate:  mu: +0.074406967  nElectrons: 359.000000  magneticMoment: [ Abs: 24.25903  Tot: +0.00000 ]
	SubspaceRotationAdjust: set factor to 0.0291
ElecMinimize: Iter:  80  F: -2213.488001560401244  |grad|_K:  2.018e-05  alpha:  2.855e-03  linmin: -1.742e-05  t[s]:   6895.96
	FillingsUpdate:  mu: +0.075215430  nElectrons: 359.000000  magneticMoment: [ Abs: 24.26605  Tot: +0.00000 ]
	SubspaceRotationAdjust: set factor to 0.0288
ElecMinimize: Iter:  81  F: -2213.488207152897303  |grad|_K:  2.002e-05  alpha:  2.883e-03  linmin: -1.833e-05  t[s]:   6973.73
	FillingsUpdate:  mu: +0.075890524  nElectrons: 359.000000  magneticMoment: [ Abs: 24.27364  Tot: +0.00000 ]
	SubspaceRotationAdjust: set factor to 0.0286
ElecMinimize: Iter:  82  F: -2213.488411450009608  |grad|_K:  1.989e-05  alpha:  2.907e-03  linmin: -1.936e-05  t[s]:   7051.61
	FillingsUpdate:  mu: +0.076088129  nElectrons: 359.000000  magneticMoment: [ Abs: 24.28178  Tot: +0.00000 ]
	SubspaceRotationAdjust: set factor to 0.0285
ElecMinimize: Iter:  83  F: -2213.488614470607445  |grad|_K:  1.977e-05  alpha:  2.928e-03  linmin: -2.049e-05  t[s]:   7126.35
	FillingsUpdate:  mu: +0.075920703  nElectrons: 359.000000  magneticMoment: [ Abs: 24.29044  Tot: +0.00000 ]
	SubspaceRotationAdjust: set factor to 0.0284
ElecMinimize: Iter:  84  F: -2213.488816279368621  |grad|_K:  1.967e-05  alpha:  2.945e-03  linmin: -2.177e-05  t[s]:   7202.38
	FillingsUpdate:  mu: +0.075733367  nElectrons: 359.000000  magneticMoment: [ Abs: 24.29963  Tot: -0.00000 ]
	SubspaceRotationAdjust: set factor to 0.0284
ElecMinimize: Iter:  85  F: -2213.489017001277261  |grad|_K:  1.959e-05  alpha:  2.957e-03  linmin: -2.318e-05  t[s]:   7281.41
	FillingsUpdate:  mu: +0.075745419  nElectrons: 359.000000  magneticMoment: [ Abs: 24.30933  Tot: +0.00000 ]
	SubspaceRotationAdjust: set factor to 0.0285
ElecMinimize: Iter:  86  F: -2213.489216816074986  |grad|_K:  1.954e-05  alpha:  2.965e-03  linmin: -2.471e-05  t[s]:   7359.34
	FillingsUpdate:  mu: +0.076021553  nElectrons: 359.000000  magneticMoment: [ Abs: 24.31954  Tot: -0.00000 ]
	SubspaceRotationAdjust: set factor to 0.0287
ElecMinimize: Iter:  87  F: -2213.489415956028552  |grad|_K:  1.952e-05  alpha:  2.968e-03  linmin: -2.637e-05  t[s]:   7434.93
	FillingsUpdate:  mu: +0.076404672  nElectrons: 359.000000  magneticMoment: [ Abs: 24.33025  Tot: -0.00000 ]
	SubspaceRotationAdjust: set factor to 0.029
ElecMinimize: Iter:  88  F: -2213.489614707961664  |grad|_K:  1.954e-05  alpha:  2.966e-03  linmin: -2.815e-05  t[s]:   7511.17
	FillingsUpdate:  mu: +0.076719848  nElectrons: 359.000000  magneticMoment: [ Abs: 24.34146  Tot: -0.00000 ]
	SubspaceRotationAdjust: set factor to 0.0294
ElecMinimize: Iter:  89  F: -2213.489813407201837  |grad|_K:  1.959e-05  alpha:  2.959e-03  linmin: -3.002e-05  t[s]:   7586.42
	FillingsUpdate:  mu: +0.076912275  nElectrons: 359.000000  magneticMoment: [ Abs: 24.35318  Tot: -0.00000 ]
	SubspaceRotationAdjust: set factor to 0.03
ElecMinimize: Iter:  90  F: -2213.490012429593207  |grad|_K:  1.969e-05  alpha:  2.945e-03  linmin: -3.199e-05  t[s]:   7664.94
	FillingsUpdate:  mu: +0.077019799  nElectrons: 359.000000  magneticMoment: [ Abs: 24.36541  Tot: +0.00000 ]
	SubspaceRotationAdjust: set factor to 0.0307
ElecMinimize: Iter:  91  F: -2213.490212188411078  |grad|_K:  1.982e-05  alpha:  2.926e-03  linmin: -3.403e-05  t[s]:   7741.06
	FillingsUpdate:  mu: +0.077137092  nElectrons: 359.000000  magneticMoment: [ Abs: 24.37819  Tot: -0.00000 ]
	SubspaceRotationAdjust: set factor to 0.0315
ElecMinimize: Iter:  92  F: -2213.490413127478405  |grad|_K:  2.000e-05  alpha:  2.901e-03  linmin: -3.610e-05  t[s]:   7816.82
	FillingsUpdate:  mu: +0.077238863  nElectrons: 359.000000  magneticMoment: [ Abs: 24.39153  Tot: +0.00000 ]
	SubspaceRotationAdjust: set factor to 0.0325
ElecMinimize: Iter:  93  F: -2213.490615708391942  |grad|_K:  2.023e-05  alpha:  2.869e-03  linmin: -3.821e-05  t[s]:   7895.28
	FillingsUpdate:  mu: +0.077288000  nElectrons: 359.000000  magneticMoment: [ Abs: 24.40549  Tot: -0.00000 ]
	SubspaceRotationAdjust: set factor to 0.0336
ElecMinimize: Iter:  94  F: -2213.490820408700074  |grad|_K:  2.050e-05  alpha:  2.832e-03  linmin: -4.028e-05  t[s]:   7974.19
	FillingsUpdate:  mu: +0.077459206  nElectrons: 359.000000  magneticMoment: [ Abs: 24.42008  Tot: +0.00000 ]
	SubspaceRotationAdjust: set factor to 0.0349
ElecMinimize: Iter:  95  F: -2213.491027702741576  |grad|_K:  2.082e-05  alpha:  2.790e-03  linmin: -4.230e-05  t[s]:   8054.90
	FillingsUpdate:  mu: +0.077914768  nElectrons: 359.000000  magneticMoment: [ Abs: 24.43533  Tot: -0.00000 ]
	SubspaceRotationAdjust: set factor to 0.0363
ElecMinimize: Iter:  96  F: -2213.491238050773063  |grad|_K:  2.119e-05  alpha:  2.741e-03  linmin: -4.423e-05  t[s]:   8133.27
	FillingsUpdate:  mu: +0.078689365  nElectrons: 359.000000  magneticMoment: [ Abs: 24.45126  Tot: -0.00000 ]
	SubspaceRotationAdjust: set factor to 0.0379
ElecMinimize: Iter:  97  F: -2213.491451882301590  |grad|_K:  2.161e-05  alpha:  2.687e-03  linmin: -4.601e-05  t[s]:   8206.75
	FillingsUpdate:  mu: +0.079555631  nElectrons: 359.000000  magneticMoment: [ Abs: 24.46792  Tot: -0.00000 ]
	SubspaceRotationAdjust: set factor to 0.0396
ElecMinimize: Iter:  98  F: -2213.491669567407826  |grad|_K:  2.208e-05  alpha:  2.627e-03  linmin: -4.759e-05  t[s]:   8282.81
	FillingsUpdate:  mu: +0.080199526  nElectrons: 359.000000  magneticMoment: [ Abs: 24.48533  Tot: +0.00000 ]
	SubspaceRotationAdjust: set factor to 0.0415
ElecMinimize: Iter:  99  F: -2213.491891387494888  |grad|_K:  2.260e-05  alpha:  2.561e-03  linmin: -4.892e-05  t[s]:   8357.01
	FillingsUpdate:  mu: +0.080745742  nElectrons: 359.000000  magneticMoment: [ Abs: 24.50355  Tot: +0.00000 ]
	SubspaceRotationAdjust: set factor to 0.0436
ElecMinimize: Iter: 100  F: -2213.492117497828986  |grad|_K:  2.316e-05  alpha:  2.490e-03  linmin: -4.995e-05  t[s]:   8430.61
	FillingsUpdate:  mu: +0.081188326  nElectrons: 359.000000  magneticMoment: [ Abs: 24.52254  Tot: -0.00000 ]
	SubspaceRotationAdjust: set factor to 0.0458
ElecMinimize: Iter: 101  F: -2213.492347885619893  |grad|_K:  2.377e-05  alpha:  2.412e-03  linmin: -5.061e-05  t[s]:   8508.12
	FillingsUpdate:  mu: +0.081500805  nElectrons: 359.000000  magneticMoment: [ Abs: 24.54230  Tot: -0.00000 ]
	SubspaceRotationAdjust: set factor to 0.0481
ElecMinimize: Iter: 102  F: -2213.492582329162815  |grad|_K:  2.443e-05  alpha:  2.328e-03  linmin: -5.088e-05  t[s]:   8584.73
	FillingsUpdate:  mu: +0.081824492  nElectrons: 359.000000  magneticMoment: [ Abs: 24.56278  Tot: -0.00000 ]
	SubspaceRotationAdjust: set factor to 0.0506
ElecMinimize: Iter: 103  F: -2213.492820370277968  |grad|_K:  2.512e-05  alpha:  2.237e-03  linmin: -5.073e-05  t[s]:   8662.64
	FillingsUpdate:  mu: +0.082280890  nElectrons: 359.000000  magneticMoment: [ Abs: 24.58393  Tot: -0.00000 ]
	SubspaceRotationAdjust: set factor to 0.0531
ElecMinimize: Iter: 104  F: -2213.493061306244726  |grad|_K:  2.585e-05  alpha:  2.139e-03  linmin: -5.018e-05  t[s]:   8741.11
	FillingsUpdate:  mu: +0.083059703  nElectrons: 359.000000  magneticMoment: [ Abs: 24.60568  Tot: +0.00000 ]
	SubspaceRotationAdjust: set factor to 0.0558
ElecMinimize: Iter: 105  F: -2213.493304227336466  |grad|_K:  2.660e-05  alpha:  2.036e-03  linmin: -4.929e-05  t[s]:   8818.77
	FillingsUpdate:  mu: +0.084220142  nElectrons: 359.000000  magneticMoment: [ Abs: 24.62792  Tot: +0.00000 ]
	SubspaceRotationAdjust: set factor to 0.0585
ElecMinimize: Iter: 106  F: -2213.493548098339033  |grad|_K:  2.738e-05  alpha:  1.928e-03  linmin: -4.816e-05  t[s]:   8896.06
	FillingsUpdate:  mu: +0.085316563  nElectrons: 359.000000  magneticMoment: [ Abs: 24.65057  Tot: +0.00000 ]
	SubspaceRotationAdjust: set factor to 0.0612
ElecMinimize: Iter: 107  F: -2213.493791882667665  |grad|_K:  2.817e-05  alpha:  1.819e-03  linmin: -4.691e-05  t[s]:   8975.53
	FillingsUpdate:  mu: +0.086357476  nElectrons: 359.000000  magneticMoment: [ Abs: 24.67352  Tot: +0.00000 ]
	SubspaceRotationAdjust: set factor to 0.0639
ElecMinimize: Iter: 108  F: -2213.494034682136771  |grad|_K:  2.898e-05  alpha:  1.711e-03  linmin: -4.566e-05  t[s]:   9051.02
	FillingsUpdate:  mu: +0.087487396  nElectrons: 359.000000  magneticMoment: [ Abs: 24.69665  Tot: -0.00000 ]
	SubspaceRotationAdjust: set factor to 0.0664
ElecMinimize: Iter: 109  F: -2213.494275861277401  |grad|_K:  2.978e-05  alpha:  1.607e-03  linmin: -4.454e-05  t[s]:   9131.34
	FillingsUpdate:  mu: +0.088587205  nElectrons: 359.000000  magneticMoment: [ Abs: 24.71985  Tot: -0.00000 ]
	SubspaceRotationAdjust: set factor to 0.0689
ElecMinimize: Iter: 110  F: -2213.494515128214971  |grad|_K:  3.058e-05  alpha:  1.509e-03  linmin: -4.364e-05  t[s]:   9211.89
	FillingsUpdate:  mu: +0.089192696  nElectrons: 359.000000  magneticMoment: [ Abs: 24.74312  Tot: -0.00000 ]
	SubspaceRotationAdjust: set factor to 0.0712
ElecMinimize: Iter: 111  F: -2213.494752557384345  |grad|_K:  3.137e-05  alpha:  1.420e-03  linmin: -4.301e-05  t[s]:   9290.43
	FillingsUpdate:  mu: +0.089594742  nElectrons: 359.000000  magneticMoment: [ Abs: 24.76649  Tot: +0.00000 ]
	SubspaceRotationAdjust: set factor to 0.0733
ElecMinimize: Iter: 112  F: -2213.494988570102578  |grad|_K:  3.215e-05  alpha:  1.341e-03  linmin: -4.269e-05  t[s]:   9366.72
	FillingsUpdate:  mu: +0.090313012  nElectrons: 359.000000  magneticMoment: [ Abs: 24.78997  Tot: -0.00000 ]
	SubspaceRotationAdjust: set factor to 0.0752
ElecMinimize: Iter: 113  F: -2213.495223879780951  |grad|_K:  3.292e-05  alpha:  1.272e-03  linmin: -4.269e-05  t[s]:   9441.19
	FillingsUpdate:  mu: +0.091240867  nElectrons: 359.000000  magneticMoment: [ Abs: 24.81357  Tot: -0.00000 ]
	SubspaceRotationAdjust: set factor to 0.077
ElecMinimize: Iter: 114  F: -2213.495459431512700  |grad|_K:  3.367e-05  alpha:  1.214e-03  linmin: -4.300e-05  t[s]:   9522.25
	FillingsUpdate:  mu: +0.091986507  nElectrons: 359.000000  magneticMoment: [ Abs: 24.83735  Tot: -0.00000 ]
	SubspaceRotationAdjust: set factor to 0.0785
ElecMinimize: Iter: 115  F: -2213.495696341803978  |grad|_K:  3.440e-05  alpha:  1.167e-03  linmin: -4.359e-05  t[s]:   9601.72
	FillingsUpdate:  mu: +0.092697918  nElectrons: 359.000000  magneticMoment: [ Abs: 24.86140  Tot: -0.00000 ]
	SubspaceRotationAdjust: set factor to 0.0798
ElecMinimize: Iter: 116  F: -2213.495935845512577  |grad|_K:  3.512e-05  alpha:  1.129e-03  linmin: -4.445e-05  t[s]:   9679.03
	FillingsUpdate:  mu: +0.093293260  nElectrons: 359.000000  magneticMoment: [ Abs: 24.88577  Tot: -0.00000 ]
	SubspaceRotationAdjust: set factor to 0.081
ElecMinimize: Iter: 117  F: -2213.496179253559148  |grad|_K:  3.582e-05  alpha:  1.099e-03  linmin: -4.552e-05  t[s]:   9757.72
	FillingsUpdate:  mu: +0.093936472  nElectrons: 359.000000  magneticMoment: [ Abs: 24.91057  Tot: -0.00000 ]
	SubspaceRotationAdjust: set factor to 0.0821
ElecMinimize: Iter: 118  F: -2213.496427912053605  |grad|_K:  3.650e-05  alpha:  1.078e-03  linmin: -4.678e-05  t[s]:   9833.64
	FillingsUpdate:  mu: +0.094818457  nElectrons: 359.000000  magneticMoment: [ Abs: 24.93589  Tot: -0.00000 ]
	SubspaceRotationAdjust: set factor to 0.0831
ElecMinimize: Iter: 119  F: -2213.496683167989886  |grad|_K:  3.716e-05  alpha:  1.064e-03  linmin: -4.817e-05  t[s]:   9911.95
	FillingsUpdate:  mu: +0.095808716  nElectrons: 359.000000  magneticMoment: [ Abs: 24.96187  Tot: -0.00000 ]
	SubspaceRotationAdjust: set factor to 0.0842
ElecMinimize: Iter: 120  F: -2213.496946323078646  |grad|_K:  3.780e-05  alpha:  1.057e-03  linmin: -4.964e-05  t[s]:   9990.00
	FillingsUpdate:  mu: +0.096742866  nElectrons: 359.000000  magneticMoment: [ Abs: 24.98849  Tot: +0.00000 ]
	SubspaceRotationAdjust: set factor to 0.0853
ElecMinimize: Iter: 121  F: -2213.497218585985593  |grad|_K:  3.843e-05  alpha:  1.054e-03  linmin: -5.114e-05  t[s]:  10066.32
	FillingsUpdate:  mu: +0.097579588  nElectrons: 359.000000  magneticMoment: [ Abs: 25.01587  Tot: +0.00000 ]
	SubspaceRotationAdjust: set factor to 0.0866
ElecMinimize: Iter: 122  F: -2213.497500999620115  |grad|_K:  3.903e-05  alpha:  1.056e-03  linmin: -5.259e-05  t[s]:  10143.16
	FillingsUpdate:  mu: +0.098358336  nElectrons: 359.000000  magneticMoment: [ Abs: 25.04410  Tot: -0.00000 ]
	SubspaceRotationAdjust: set factor to 0.0882
ElecMinimize: Iter: 123  F: -2213.497794377108676  |grad|_K:  3.962e-05  alpha:  1.062e-03  linmin: -5.394e-05  t[s]:  10221.84
	FillingsUpdate:  mu: +0.099097558  nElectrons: 359.000000  magneticMoment: [ Abs: 25.07329  Tot: +0.00000 ]
	SubspaceRotationAdjust: set factor to 0.0901
ElecMinimize: Iter: 124  F: -2213.498099210828514  |grad|_K:  4.018e-05  alpha:  1.069e-03  linmin: -5.511e-05  t[s]:  10299.39
	FillingsUpdate:  mu: +0.099783781  nElectrons: 359.000000  magneticMoment: [ Abs: 25.10338  Tot: -0.00000 ]
	SubspaceRotationAdjust: set factor to 0.0925
ElecMinimize: Iter: 125  F: -2213.498415595458937  |grad|_K:  4.072e-05  alpha:  1.076e-03  linmin: -5.604e-05  t[s]:  10380.68
	FillingsUpdate:  mu: +0.100383274  nElectrons: 359.000000  magneticMoment: [ Abs: 25.13420  Tot: -0.00000 ]
	SubspaceRotationAdjust: set factor to 0.0954
ElecMinimize: Iter: 126  F: -2213.498743166694112  |grad|_K:  4.124e-05  alpha:  1.083e-03  linmin: -5.668e-05  t[s]:  10458.32
	FillingsUpdate:  mu: +0.100814104  nElectrons: 359.000000  magneticMoment: [ Abs: 25.16580  Tot: +0.00000 ]
	SubspaceRotationAdjust: set factor to 0.0992
ElecMinimize: Iter: 127  F: -2213.499081073768139  |grad|_K:  4.174e-05  alpha:  1.088e-03  linmin: -5.699e-05  t[s]:  10532.42
	FillingsUpdate:  mu: +0.100979842  nElectrons: 359.000000  magneticMoment: [ Abs: 25.19818  Tot: +0.00000 ]
	SubspaceRotationAdjust: set factor to 0.104
ElecMinimize: Iter: 128  F: -2213.499427998261581  |grad|_K:  4.221e-05  alpha:  1.090e-03  linmin: -5.694e-05  t[s]:  10607.95
	FillingsUpdate:  mu: +0.100868587  nElectrons: 359.000000  magneticMoment: [ Abs: 25.23106  Tot: +0.00000 ]
	SubspaceRotationAdjust: set factor to 0.11
ElecMinimize: Iter: 129  F: -2213.499782227201194  |grad|_K:  4.266e-05  alpha:  1.088e-03  linmin: -5.656e-05  t[s]:  10684.98
	FillingsUpdate:  mu: +0.100686849  nElectrons: 359.000000  magneticMoment: [ Abs: 25.26426  Tot: +0.00000 ]
	SubspaceRotationAdjust: set factor to 0.117
ElecMinimize: Iter: 130  F: -2213.500141772830830  |grad|_K:  4.309e-05  alpha:  1.080e-03  linmin: -5.586e-05  t[s]:  10760.82
	FillingsUpdate:  mu: +0.100366482  nElectrons: 359.000000  magneticMoment: [ Abs: 25.29771  Tot: -0.00000 ]
	SubspaceRotationAdjust: set factor to 0.125
ElecMinimize: Iter: 131  F: -2213.500504505571371  |grad|_K:  4.350e-05  alpha:  1.068e-03  linmin: -5.488e-05  t[s]:  10836.68
	FillingsUpdate:  mu: +0.100063831  nElectrons: 359.000000  magneticMoment: [ Abs: 25.33110  Tot: +0.00000 ]
	SubspaceRotationAdjust: set factor to 0.136
ElecMinimize: Iter: 132  F: -2213.500868301023729  |grad|_K:  4.390e-05  alpha:  1.052e-03  linmin: -5.366e-05  t[s]:  10914.23
	FillingsUpdate:  mu: +0.099687706  nElectrons: 359.000000  magneticMoment: [ Abs: 25.36417  Tot: -0.00000 ]
	SubspaceRotationAdjust: set factor to 0.149
ElecMinimize: Iter: 133  F: -2213.501231155614278  |grad|_K:  4.428e-05  alpha:  1.031e-03  linmin: -5.226e-05  t[s]:  10990.16
	FillingsUpdate:  mu: +0.099650140  nElectrons: 359.000000  magneticMoment: [ Abs: 25.39677  Tot: -0.00000 ]
	SubspaceRotationAdjust: set factor to 0.164
ElecMinimize: Iter: 134  F: -2213.501591292073499  |grad|_K:  4.465e-05  alpha:  1.006e-03  linmin: -5.072e-05  t[s]:  11066.90
	FillingsUpdate:  mu: +0.100093632  nElectrons: 359.000000  magneticMoment: [ Abs: 25.42868  Tot: -0.00000 ]
	SubspaceRotationAdjust: set factor to 0.183
ElecMinimize: Iter: 135  F: -2213.501947236314209  |grad|_K:  4.503e-05  alpha:  9.788e-04  linmin: -4.908e-05  t[s]:  11143.97
	FillingsUpdate:  mu: +0.100362123  nElectrons: 359.000000  magneticMoment: [ Abs: 25.45979  Tot: +0.00000 ]
	SubspaceRotationAdjust: set factor to 0.205
ElecMinimize: Iter: 136  F: -2213.502297885897860  |grad|_K:  4.542e-05  alpha:  9.493e-04  linmin: -4.738e-05  t[s]:  11222.95
	FillingsUpdate:  mu: +0.101001917  nElectrons: 359.000000  magneticMoment: [ Abs: 25.49012  Tot: +0.00000 ]
	SubspaceRotationAdjust: set factor to 0.23
ElecMinimize: Iter: 137  F: -2213.502642580254815  |grad|_K:  4.582e-05  alpha:  9.185e-04  linmin: -4.568e-05  t[s]:  11300.43
	FillingsUpdate:  mu: +0.101143853  nElectrons: 359.000000  magneticMoment: [ Abs: 25.51970  Tot: -0.00000 ]
	SubspaceRotationAdjust: set factor to 0.259
ElecMinimize: Iter: 138  F: -2213.502981179331982  |grad|_K:  4.626e-05  alpha:  8.874e-04  linmin: -4.404e-05  t[s]:  11378.10
	FillingsUpdate:  mu: +0.101706301  nElectrons: 359.000000  magneticMoment: [ Abs: 25.54851  Tot: +0.00000 ]
	SubspaceRotationAdjust: set factor to 0.292
ElecMinimize: Iter: 139  F: -2213.503314144290471  |grad|_K:  4.676e-05  alpha:  8.571e-04  linmin: -4.251e-05  t[s]:  11458.12
	FillingsUpdate:  mu: +0.103735706  nElectrons: 359.000000  magneticMoment: [ Abs: 25.57660  Tot: -0.00000 ]
	SubspaceRotationAdjust: set factor to 0.326
ElecMinimize: Iter: 140  F: -2213.503642614309683  |grad|_K:  4.732e-05  alpha:  8.286e-04  linmin: -4.116e-05  t[s]:  11535.62
	FillingsUpdate:  mu: +0.105539197  nElectrons: 359.000000  magneticMoment: [ Abs: 25.60418  Tot: +0.00000 ]
	SubspaceRotationAdjust: set factor to 0.36
ElecMinimize: Iter: 141  F: -2213.503968469288793  |grad|_K:  4.798e-05  alpha:  8.031e-04  linmin: -4.005e-05  t[s]:  11610.13
	FillingsUpdate:  mu: +0.107425535  nElectrons: 359.000000  magneticMoment: [ Abs: 25.63154  Tot: -0.00000 ]
	SubspaceRotationAdjust: set factor to 0.392
ElecMinimize: Iter: 142  F: -2213.504294326479794  |grad|_K:  4.873e-05  alpha:  7.818e-04  linmin: -3.924e-05  t[s]:  11682.91
	FillingsUpdate:  mu: +0.109551837  nElectrons: 359.000000  magneticMoment: [ Abs: 25.65905  Tot: +0.00000 ]
	SubspaceRotationAdjust: set factor to 0.419
ElecMinimize: Iter: 143  F: -2213.504623448579878  |grad|_K:  4.956e-05  alpha:  7.658e-04  linmin: -3.876e-05  t[s]:  11758.64
	FillingsUpdate:  mu: +0.110673678  nElectrons: 359.000000  magneticMoment: [ Abs: 25.68711  Tot: -0.00000 ]
	SubspaceRotationAdjust: set factor to 0.438
ElecMinimize: Iter: 144  F: -2213.504959499598954  |grad|_K:  5.044e-05  alpha:  7.559e-04  linmin: -3.859e-05  t[s]:  11839.25
	FillingsUpdate:  mu: +0.111866951  nElectrons: 359.000000  magneticMoment: [ Abs: 25.71612  Tot: -0.00000 ]
	SubspaceRotationAdjust: set factor to 0.45
ElecMinimize: Iter: 145  F: -2213.505306116360316  |grad|_K:  5.131e-05  alpha:  7.525e-04  linmin: -3.865e-05  t[s]:  11916.16
	FillingsUpdate:  mu: +0.112710672  nElectrons: 359.000000  magneticMoment: [ Abs: 25.74644  Tot: -0.00000 ]
	SubspaceRotationAdjust: set factor to 0.456
ElecMinimize: Iter: 146  F: -2213.505666286577252  |grad|_K:  5.210e-05  alpha:  7.552e-04  linmin: -3.879e-05  t[s]:  11995.08
	FillingsUpdate:  mu: +0.114035099  nElectrons: 359.000000  magneticMoment: [ Abs: 25.77834  Tot: +0.00000 ]
	SubspaceRotationAdjust: set factor to 0.458
ElecMinimize: Iter: 147  F: -2213.506041623327292  |grad|_K:  5.274e-05  alpha:  7.629e-04  linmin: -3.882e-05  t[s]:  12070.54
	FillingsUpdate:  mu: +0.115584033  nElectrons: 359.000000  magneticMoment: [ Abs: 25.81193  Tot: -0.00000 ]
	SubspaceRotationAdjust: set factor to 0.459
ElecMinimize: Iter: 148  F: -2213.506431699569475  |grad|_K:  5.318e-05  alpha:  7.734e-04  linmin: -3.852e-05  t[s]:  12146.78
	FillingsUpdate:  mu: +0.116891934  nElectrons: 359.000000  magneticMoment: [ Abs: 25.84708  Tot: -0.00000 ]
	SubspaceRotationAdjust: set factor to 0.463
ElecMinimize: Iter: 149  F: -2213.506833745440872  |grad|_K:  5.341e-05  alpha:  7.839e-04  linmin: -3.775e-05  t[s]:  12226.71
	FillingsUpdate:  mu: +0.117791056  nElectrons: 359.000000  magneticMoment: [ Abs: 25.88353  Tot: +0.00000 ]
	SubspaceRotationAdjust: set factor to 0.472
ElecMinimize: Iter: 150  F: -2213.507242954005505  |grad|_K:  5.345e-05  alpha:  7.915e-04  linmin: -3.650e-05  t[s]:  12302.80
	FillingsUpdate:  mu: +0.118307162  nElectrons: 359.000000  magneticMoment: [ Abs: 25.92093  Tot: -0.00000 ]
	SubspaceRotationAdjust: set factor to 0.49
ElecMinimize: Iter: 151  F: -2213.507653428351659  |grad|_K:  5.333e-05  alpha:  7.938e-04  linmin: -3.487e-05  t[s]:  12381.17
	FillingsUpdate:  mu: +0.118271687  nElectrons: 359.000000  magneticMoment: [ Abs: 25.95876  Tot: +0.00000 ]
	SubspaceRotationAdjust: set factor to 0.518
ElecMinimize: Iter: 152  F: -2213.508059404435244  |grad|_K:  5.314e-05  alpha:  7.896e-04  linmin: -3.303e-05  t[s]:  12454.76
	FillingsUpdate:  mu: +0.118545246  nElectrons: 359.000000  magneticMoment: [ Abs: 25.99672  Tot: -0.00000 ]
	SubspaceRotationAdjust: set factor to 0.559
ElecMinimize: Iter: 153  F: -2213.508456301361093  |grad|_K:  5.293e-05  alpha:  7.789e-04  linmin: -3.114e-05  t[s]:  12529.47
	FillingsUpdate:  mu: +0.119651308  nElectrons: 359.000000  magneticMoment: [ Abs: 26.03449  Tot: +0.00000 ]
	SubspaceRotationAdjust: set factor to 0.611
ElecMinimize: Iter: 154  F: -2213.508841288017720  |grad|_K:  5.276e-05  alpha:  7.630e-04  linmin: -2.933e-05  t[s]:  12606.28
	FillingsUpdate:  mu: +0.120169247  nElectrons: 359.000000  magneticMoment: [ Abs: 26.07196  Tot: -0.00000 ]
	SubspaceRotationAdjust: set factor to 0.676
ElecMinimize: Iter: 155  F: -2213.509213414506121  |grad|_K:  5.269e-05  alpha:  7.436e-04  linmin: -2.765e-05  t[s]:  12684.24
	FillingsUpdate:  mu: +0.119634316  nElectrons: 359.000000  magneticMoment: [ Abs: 26.10920  Tot: -0.00000 ]
	SubspaceRotationAdjust: set factor to 0.748
ElecMinimize: Iter: 156  F: -2213.509573507294590  |grad|_K:  5.277e-05  alpha:  7.226e-04  linmin: -2.614e-05  t[s]:  12760.35
	FillingsUpdate:  mu: +0.119148268  nElectrons: 359.000000  magneticMoment: [ Abs: 26.14645  Tot: +0.00000 ]
	SubspaceRotationAdjust: set factor to 0.822
ElecMinimize: Iter: 157  F: -2213.509924000305546  |grad|_K:  5.303e-05  alpha:  7.023e-04  linmin: -2.484e-05  t[s]:  12835.57
	FillingsUpdate:  mu: +0.119971508  nElectrons: 359.000000  magneticMoment: [ Abs: 26.18399  Tot: -0.00000 ]
	SubspaceRotationAdjust: set factor to 0.889
ElecMinimize: Iter: 158  F: -2213.510268745917529  |grad|_K:  5.351e-05  alpha:  6.848e-04  linmin: -2.375e-05  t[s]:  12914.03
	FillingsUpdate:  mu: +0.120670335  nElectrons: 359.000000  magneticMoment: [ Abs: 26.22221  Tot: +0.00000 ]
	SubspaceRotationAdjust: set factor to 0.937
	SubspaceRotationAdjust: resetting CG because factor has changed by 7.77635
ElecMinimize: 	State modified externally: resetting search direction.
ElecMinimize: Iter: 159  F: -2213.510612738765303  |grad|_K:  5.487e-05  alpha:  6.718e-04
ElecMinimize: 	Predicted alpha/alphaT>3.000000, increasing alphaT to 2.015430e-03.
ElecMinimize: 	Predicted alpha/alphaT>3.000000, increasing alphaT to 6.046290e-03.
ElecMinimize: 	Predicted alpha/alphaT>3.000000, increasing alphaT to 1.813887e-02.
	FillingsUpdate:  mu: +0.111957090  nElectrons: 359.000000  magneticMoment: [ Abs: 26.71333  Tot: -0.00000 ]
	SubspaceRotationAdjust: set factor to 0.597
ElecMinimize: Iter: 160  F: -2213.664047408495662  |grad|_K:  6.497e-05  alpha:  2.586e-01  linmin: -3.423e-03  t[s]:  13152.24
	FillingsUpdate:  mu: +0.095611768  nElectrons: 359.000000  magneticMoment: [ Abs: 26.81576  Tot: -0.00000 ]
	SubspaceRotationAdjust: set factor to 0.696
ElecMinimize: Iter: 161  F: -2213.728329264321474  |grad|_K:  3.580e-05  alpha:  4.871e-02  linmin: -1.025e-02  t[s]:  13230.62
	FillingsUpdate:  mu: +0.128967906  nElectrons: 359.000000  magneticMoment: [ Abs: 26.89845  Tot: +0.00000 ]
	SubspaceRotationAdjust: set factor to 0.435
ElecMinimize: Iter: 162  F: -2213.771285396204348  |grad|_K:  5.763e-05  alpha:  1.200e-01  linmin:  7.698e-04  t[s]:  13306.12
	FillingsUpdate:  mu: +0.149209837  nElectrons: 359.000000  magneticMoment: [ Abs: 27.56056  Tot: +0.00000 ]
	SubspaceRotationAdjust: set factor to 0.272
ElecMinimize: Iter: 163  F: -2213.825203059186151  |grad|_K:  6.654e-05  alpha:  1.003e-01  linmin: -4.375e-05  t[s]:  13383.44
	FillingsUpdate:  mu: +0.116003474  nElectrons: 359.000000  magneticMoment: [ Abs: 28.13933  Tot: -0.00000 ]
	SubspaceRotationAdjust: set factor to 0.324
ElecMinimize: Iter: 164  F: -2213.866067144148019  |grad|_K:  4.104e-05  alpha:  5.930e-02  linmin:  9.333e-05  t[s]:  13463.31
	FillingsUpdate:  mu: +0.104044861  nElectrons: 359.000000  magneticMoment: [ Abs: 28.49083  Tot: +0.00000 ]
	SubspaceRotationAdjust: set factor to 0.384
ElecMinimize: Iter: 165  F: -2213.897141300366002  |grad|_K:  3.174e-05  alpha:  1.056e-01  linmin: -3.704e-04  t[s]:  13542.62
	FillingsUpdate:  mu: +0.089688247  nElectrons: 359.000000  magneticMoment: [ Abs: 28.64961  Tot: +0.00000 ]
	SubspaceRotationAdjust: set factor to 0.465
ElecMinimize: Iter: 166  F: -2213.920232819632474  |grad|_K:  2.553e-05  alpha:  1.259e-01  linmin: -4.204e-04  t[s]:  13620.26
	FillingsUpdate:  mu: +0.090181757  nElectrons: 359.000000  magneticMoment: [ Abs: 28.84415  Tot: -0.00000 ]
	SubspaceRotationAdjust: set factor to 0.457
ElecMinimize: Iter: 167  F: -2213.933515354348856  |grad|_K:  2.137e-05  alpha:  1.111e-01  linmin:  1.045e-03  t[s]:  13695.64
	FillingsUpdate:  mu: +0.096218894  nElectrons: 359.000000  magneticMoment: [ Abs: 29.10987  Tot: -0.00000 ]
	SubspaceRotationAdjust: set factor to 0.345
ElecMinimize: Iter: 168  F: -2213.942470203627181  |grad|_K:  2.343e-05  alpha:  1.199e-01  linmin:  5.181e-04  t[s]:  13772.44
	FillingsUpdate:  mu: +0.090398749  nElectrons: 359.000000  magneticMoment: [ Abs: 29.30718  Tot: -0.00000 ]
	SubspaceRotationAdjust: set factor to 0.324
ElecMinimize: Iter: 169  F: -2213.950186553895492  |grad|_K:  1.751e-05  alpha:  8.524e-02  linmin: -2.292e-04  t[s]:  13850.48
	FillingsUpdate:  mu: +0.090325408  nElectrons: 359.000000  magneticMoment: [ Abs: 29.45806  Tot: -0.00000 ]
	SubspaceRotationAdjust: set factor to 0.382
ElecMinimize: Iter: 170  F: -2213.955803491400729  |grad|_K:  1.305e-05  alpha:  1.029e-01  linmin: -4.570e-04  t[s]:  13926.88
	FillingsUpdate:  mu: +0.095735647  nElectrons: 359.000000  magneticMoment: [ Abs: 29.61359  Tot: +0.00000 ]
	SubspaceRotationAdjust: set factor to 0.346
ElecMinimize: Iter: 171  F: -2213.960840188755355  |grad|_K:  1.328e-05  alpha:  1.632e-01  linmin: -1.361e-04  t[s]:  14005.27
	FillingsUpdate:  mu: +0.098549236  nElectrons: 359.000000  magneticMoment: [ Abs: 29.73898  Tot: +0.00000 ]
	SubspaceRotationAdjust: set factor to 0.382
ElecMinimize: Iter: 172  F: -2213.964325374783584  |grad|_K:  1.128e-05  alpha:  1.098e-01  linmin:  3.270e-06  t[s]:  14084.22
	FillingsUpdate:  mu: +0.104375466  nElectrons: 359.000000  magneticMoment: [ Abs: 29.89253  Tot: +0.00000 ]
	SubspaceRotationAdjust: set factor to 0.39
ElecMinimize: Iter: 173  F: -2213.967163973065453  |grad|_K:  1.210e-05  alpha:  1.297e-01  linmin:  2.855e-04  t[s]:  14160.52
	FillingsUpdate:  mu: +0.103304404  nElectrons: 359.000000  magneticMoment: [ Abs: 29.99955  Tot: -0.00000 ]
	SubspaceRotationAdjust: set factor to 0.432
ElecMinimize: Iter: 174  F: -2213.970705444055511  |grad|_K:  1.146e-05  alpha:  1.455e-01  linmin: -1.037e-05  t[s]:  14235.71
	FillingsUpdate:  mu: +0.099139496  nElectrons: 359.000000  magneticMoment: [ Abs: 30.01423  Tot: +0.00000 ]
	SubspaceRotationAdjust: set factor to 0.42
ElecMinimize: Iter: 175  F: -2213.972686907901789  |grad|_K:  1.040e-05  alpha:  8.668e-02  linmin:  1.933e-07  t[s]:  14310.95
	FillingsUpdate:  mu: +0.099170513  nElectrons: 359.000000  magneticMoment: [ Abs: 30.08686  Tot: -0.00000 ]
	SubspaceRotationAdjust: set factor to 0.421
ElecMinimize: Iter: 176  F: -2213.974426339711044  |grad|_K:  9.854e-06  alpha:  9.218e-02  linmin: -8.472e-05  t[s]:  14386.02
	FillingsUpdate:  mu: +0.098825440  nElectrons: 359.000000  magneticMoment: [ Abs: 30.23929  Tot: +0.00000 ]
	SubspaceRotationAdjust: set factor to 0.559
ElecMinimize: Iter: 177  F: -2213.976422259447190  |grad|_K:  7.763e-06  alpha:  1.167e-01  linmin:  5.734e-05  t[s]:  14461.79
	FillingsUpdate:  mu: +0.100382808  nElectrons: 359.000000  magneticMoment: [ Abs: 30.37948  Tot: +0.00000 ]
	SubspaceRotationAdjust: set factor to 0.57
ElecMinimize: Iter: 178  F: -2213.977634197275165  |grad|_K:  8.178e-06  alpha:  1.165e-01  linmin:  4.617e-05  t[s]:  14538.82
	FillingsUpdate:  mu: +0.101858534  nElectrons: 359.000000  magneticMoment: [ Abs: 30.49175  Tot: +0.00000 ]
	SubspaceRotationAdjust: set factor to 0.448
ElecMinimize: Iter: 179  F: -2213.978601953636371  |grad|_K:  9.024e-06  alpha:  8.367e-02  linmin:  3.306e-06  t[s]:  14615.92
	FillingsUpdate:  mu: +0.098507269  nElectrons: 359.000000  magneticMoment: [ Abs: 30.57911  Tot: +0.00000 ]
	SubspaceRotationAdjust: set factor to 0.447
ElecMinimize: Iter: 180  F: -2213.979485846166881  |grad|_K:  7.454e-06  alpha:  6.237e-02  linmin:  1.629e-06  t[s]:  14690.88
	FillingsUpdate:  mu: +0.097345728  nElectrons: 359.000000  magneticMoment: [ Abs: 30.80200  Tot: -0.00000 ]
	SubspaceRotationAdjust: set factor to 0.406
ElecMinimize: Iter: 181  F: -2213.980839760502477  |grad|_K:  8.350e-06  alpha:  1.386e-01  linmin: -9.715e-05  t[s]:  14765.65
	FillingsUpdate:  mu: +0.100962309  nElectrons: 359.000000  magneticMoment: [ Abs: 31.09985  Tot: -0.00000 ]
	SubspaceRotationAdjust: set factor to 0.349
ElecMinimize: Iter: 182  F: -2213.982169814443296  |grad|_K:  9.731e-06  alpha:  1.050e-01  linmin:  1.058e-04  t[s]:  14844.68
	FillingsUpdate:  mu: +0.100219943  nElectrons: 359.000000  magneticMoment: [ Abs: 31.33672  Tot: +0.00000 ]
	SubspaceRotationAdjust: set factor to 0.477
ElecMinimize: Iter: 183  F: -2213.983350371696361  |grad|_K:  8.482e-06  alpha:  7.378e-02  linmin: -2.749e-05  t[s]:  14919.45
	FillingsUpdate:  mu: +0.102073228  nElectrons: 359.000000  magneticMoment: [ Abs: 31.49055  Tot: -0.00000 ]
	SubspaceRotationAdjust: set factor to 0.423
ElecMinimize: Iter: 184  F: -2213.984465710952463  |grad|_K:  9.695e-06  alpha:  8.735e-02  linmin: -4.635e-04  t[s]:  14994.85
	FillingsUpdate:  mu: +0.100780009  nElectrons: 359.000000  magneticMoment: [ Abs: 31.64525  Tot: -0.00000 ]
	SubspaceRotationAdjust: set factor to 0.438
ElecMinimize: Iter: 185  F: -2213.985747443797663  |grad|_K:  7.506e-06  alpha:  7.334e-02  linmin:  5.300e-05  t[s]:  15070.36
	FillingsUpdate:  mu: +0.098934457  nElectrons: 359.000000  magneticMoment: [ Abs: 31.79903  Tot: +0.00000 ]
	SubspaceRotationAdjust: set factor to 0.444
ElecMinimize: Iter: 186  F: -2213.986950463132871  |grad|_K:  8.869e-06  alpha:  1.266e-01  linmin:  4.939e-04  t[s]:  15151.09
	FillingsUpdate:  mu: +0.098498033  nElectrons: 359.000000  magneticMoment: [ Abs: 31.93113  Tot: -0.00000 ]
	SubspaceRotationAdjust: set factor to 0.38
ElecMinimize: Iter: 187  F: -2213.987905569676514  |grad|_K:  9.896e-06  alpha:  6.988e-02  linmin: -1.793e-04  t[s]:  15229.37
	FillingsUpdate:  mu: +0.102384050  nElectrons: 359.000000  magneticMoment: [ Abs: 32.12878  Tot: +0.00000 ]
	SubspaceRotationAdjust: set factor to 0.523
ElecMinimize: Iter: 188  F: -2213.989101806726012  |grad|_K:  8.413e-06  alpha:  6.864e-02  linmin: -2.339e-04  t[s]:  15307.49
	FillingsUpdate:  mu: +0.103929011  nElectrons: 359.000000  magneticMoment: [ Abs: 32.29027  Tot: +0.00000 ]
	SubspaceRotationAdjust: set factor to 0.532
ElecMinimize: Iter: 189  F: -2213.989986384271560  |grad|_K:  9.076e-06  alpha:  6.954e-02  linmin:  2.302e-04  t[s]:  15384.59
	FillingsUpdate:  mu: +0.102199320  nElectrons: 359.000000  magneticMoment: [ Abs: 32.42203  Tot: +0.00000 ]
	SubspaceRotationAdjust: set factor to 0.491
ElecMinimize: Iter: 190  F: -2213.990850606616277  |grad|_K:  9.402e-06  alpha:  6.214e-02  linmin:  9.744e-05  t[s]:  15458.46
	FillingsUpdate:  mu: +0.101271431  nElectrons: 359.000000  magneticMoment: [ Abs: 32.49661  Tot: +0.00000 ]
	SubspaceRotationAdjust: set factor to 0.395
ElecMinimize: Iter: 191  F: -2213.991714435757785  |grad|_K:  1.025e-05  alpha:  5.682e-02  linmin:  9.525e-05  t[s]:  15536.03
	FillingsUpdate:  mu: +0.101977805  nElectrons: 359.000000  magneticMoment: [ Abs: 32.55343  Tot: +0.00000 ]
	SubspaceRotationAdjust: set factor to 0.476
ElecMinimize: Iter: 192  F: -2213.992570231243008  |grad|_K:  8.647e-06  alpha:  4.746e-02  linmin:  3.078e-05  t[s]:  15614.06
[...]
	SubspaceRotationAdjust: set factor to 0.384
ElecMinimize: Iter:   3  F: -2214.005265772772873  |grad|_K:  1.881e-05  alpha:  2.101e-01  linmin: -5.815e-03  t[s]: 102220.06
	FillingsUpdate:  mu: +0.097149449  nElectrons: 359.000000  magneticMoment: [ Abs: 34.67196  Tot: -0.00000 ]
	SubspaceRotationAdjust: set factor to 0.425
ElecMinimize: Iter:   4  F: -2214.028450815539145  |grad|_K:  1.529e-05  alpha:  3.497e-01  linmin:  1.271e-03  t[s]: 102297.04
	FillingsUpdate:  mu: +0.102639968  nElectrons: 359.000000  magneticMoment: [ Abs: 34.68493  Tot: -0.00000 ]
	SubspaceRotationAdjust: set factor to 0.557
ElecMinimize: Iter:   5  F: -2214.043299415681304  |grad|_K:  1.218e-05  alpha:  3.948e-01  linmin: -6.341e-05  t[s]: 102373.94
	FillingsUpdate:  mu: +0.108113025  nElectrons: 359.000000  magneticMoment: [ Abs: 34.71960  Tot: -0.00000 ]
	SubspaceRotationAdjust: set factor to 0.636
ElecMinimize: Iter:   6  F: -2214.053667383363972  |grad|_K:  9.974e-06  alpha:  3.986e-01  linmin: -6.420e-05  t[s]: 102450.66
	FillingsUpdate:  mu: +0.103946692  nElectrons: 359.000000  magneticMoment: [ Abs: 34.71880  Tot: +0.00000 ]
	SubspaceRotationAdjust: set factor to 0.676
ElecMinimize: Iter:   7  F: -2214.059267073896081  |grad|_K:  6.739e-06  alpha:  3.184e-01  linmin:  2.752e-05  t[s]: 102527.50
	FillingsUpdate:  mu: +0.102264663  nElectrons: 359.000000  magneticMoment: [ Abs: 34.72699  Tot: -0.00000 ]
	SubspaceRotationAdjust: set factor to 0.526
ElecMinimize: Iter:   8  F: -2214.060899889648226  |grad|_K:  5.242e-06  alpha:  2.189e-01  linmin: -6.042e-05  t[s]: 102604.29
	FillingsUpdate:  mu: +0.102715743  nElectrons: 359.000000  magneticMoment: [ Abs: 34.72079  Tot: -0.00000 ]
	SubspaceRotationAdjust: set factor to 0.337
ElecMinimize: Iter:   9  F: -2214.061846061645610  |grad|_K:  2.802e-06  alpha:  1.940e-01  linmin:  3.491e-04  t[s]: 102682.27
	FillingsUpdate:  mu: +0.105225557  nElectrons: 359.000000  magneticMoment: [ Abs: 34.72034  Tot: -0.00000 ]
	SubspaceRotationAdjust: set factor to 0.343
ElecMinimize: Iter:  10  F: -2214.062229452171778  |grad|_K:  1.645e-06  alpha:  2.898e-01  linmin: -2.693e-05  t[s]: 102759.37
	FillingsUpdate:  mu: +0.105511944  nElectrons: 359.000000  magneticMoment: [ Abs: 34.71992  Tot: +0.00000 ]
	SubspaceRotationAdjust: set factor to 0.396
ElecMinimize: Iter:  11  F: -2214.062375200059250  |grad|_K:  1.077e-06  alpha:  3.090e-01  linmin:  5.319e-07  t[s]: 102837.18
	FillingsUpdate:  mu: +0.104923387  nElectrons: 359.000000  magneticMoment: [ Abs: 34.71964  Tot: +0.00000 ]
	SubspaceRotationAdjust: set factor to 0.434
ElecMinimize: Iter:  12  F: -2214.062441608620247  |grad|_K:  7.694e-07  alpha:  3.289e-01  linmin:  3.037e-05  t[s]: 102911.52
	FillingsUpdate:  mu: +0.105073401  nElectrons: 359.000000  magneticMoment: [ Abs: 34.72098  Tot: +0.00000 ]
	SubspaceRotationAdjust: set factor to 0.483
ElecMinimize: Iter:  13  F: -2214.062475218570398  |grad|_K:  6.067e-07  alpha:  3.265e-01  linmin: -1.475e-05  t[s]: 102986.10
	FillingsUpdate:  mu: +0.104952797  nElectrons: 359.000000  magneticMoment: [ Abs: 34.72099  Tot: +0.00000 ]
	SubspaceRotationAdjust: set factor to 0.557
ElecMinimize: Iter:  14  F: -2214.062497044621978  |grad|_K:  4.616e-07  alpha:  3.402e-01  linmin:  6.122e-06  t[s]: 103062.13
	FillingsUpdate:  mu: +0.105063305  nElectrons: 359.000000  magneticMoment: [ Abs: 34.72150  Tot: +0.00000 ]
	SubspaceRotationAdjust: set factor to 0.631
ElecMinimize: Iter:  15  F: -2214.062510516012026  |grad|_K:  3.461e-07  alpha:  3.634e-01  linmin: -1.241e-06  t[s]: 103139.47
	FillingsUpdate:  mu: +0.104995258  nElectrons: 359.000000  magneticMoment: [ Abs: 34.72155  Tot: +0.00000 ]
	SubspaceRotationAdjust: set factor to 0.674
ElecMinimize: Iter:  16  F: -2214.062517406857296  |grad|_K:  2.638e-07  alpha:  3.302e-01  linmin:  9.124e-07  t[s]: 103214.54
	FillingsUpdate:  mu: +0.105088195  nElectrons: 359.000000  magneticMoment: [ Abs: 34.72188  Tot: +0.00000 ]
	SubspaceRotationAdjust: set factor to 0.643
ElecMinimize: Iter:  17  F: -2214.062520965799195  |grad|_K:  2.265e-07  alpha:  2.938e-01  linmin: -3.788e-06  t[s]: 103293.16
	FillingsUpdate:  mu: +0.104987536  nElectrons: 359.000000  magneticMoment: [ Abs: 34.72157  Tot: -0.00000 ]
	SubspaceRotationAdjust: set factor to 0.533
ElecMinimize: Iter:  18  F: -2214.062522901697321  |grad|_K:  1.938e-07  alpha:  2.162e-01  linmin:  5.646e-06  t[s]: 103371.11
	FillingsUpdate:  mu: +0.105062027  nElectrons: 359.000000  magneticMoment: [ Abs: 34.72176  Tot: -0.00000 ]
	SubspaceRotationAdjust: set factor to 0.571
ElecMinimize: Iter:  19  F: -2214.062524701798793  |grad|_K:  1.470e-07  alpha:  2.753e-01  linmin: -6.665e-06  t[s]: 103446.86
	FillingsUpdate:  mu: +0.105058549  nElectrons: 359.000000  magneticMoment: [ Abs: 34.72157  Tot: +0.00000 ]
	SubspaceRotationAdjust: set factor to 0.715
ElecMinimize: Iter:  20  F: -2214.062526238542887  |grad|_K:  1.309e-07  alpha:  4.083e-01  linmin: -2.992e-06  t[s]: 103524.51
	FillingsUpdate:  mu: +0.105045464  nElectrons: 359.000000  magneticMoment: [ Abs: 34.72113  Tot: +0.00000 ]
	SubspaceRotationAdjust: set factor to 0.839
ElecMinimize: Iter:  21  F: -2214.062527515640795  |grad|_K:  1.354e-07  alpha:  4.278e-01  linmin:  1.851e-06  t[s]: 103600.16
	FillingsUpdate:  mu: +0.105109262  nElectrons: 359.000000  magneticMoment: [ Abs: 34.72082  Tot: +0.00000 ]
	SubspaceRotationAdjust: set factor to 0.736
ElecMinimize: Iter:  22  F: -2214.062528538357583  |grad|_K:  1.654e-07  alpha:  3.206e-01  linmin: -1.487e-06  t[s]: 103676.38
	FillingsUpdate:  mu: +0.105051835  nElectrons: 359.000000  magneticMoment: [ Abs: 34.72006  Tot: +0.00000 ]
	SubspaceRotationAdjust: set factor to 0.594
ElecMinimize: Iter:  23  F: -2214.062529394346257  |grad|_K:  1.400e-07  alpha:  1.790e-01  linmin: -6.257e-06  t[s]: 103752.36
	FillingsUpdate:  mu: +0.105103749  nElectrons: 359.000000  magneticMoment: [ Abs: 34.71923  Tot: -0.00000 ]
	SubspaceRotationAdjust: set factor to 0.677
ElecMinimize: Iter:  24  F: -2214.062530623214570  |grad|_K:  1.238e-07  alpha:  3.594e-01  linmin: -6.265e-06  t[s]: 103828.97
	FillingsUpdate:  mu: +0.105127725  nElectrons: 359.000000  magneticMoment: [ Abs: 34.71839  Tot: -0.00000 ]
	SubspaceRotationAdjust: set factor to 0.778
ElecMinimize: Iter:  25  F: -2214.062531750999369  |grad|_K:  1.277e-07  alpha:  4.220e-01  linmin:  8.309e-07  t[s]: 103907.23
	FillingsUpdate:  mu: +0.105065607  nElectrons: 359.000000  magneticMoment: [ Abs: 34.71739  Tot: -0.00000 ]
	SubspaceRotationAdjust: set factor to 0.66
ElecMinimize: Iter:  26  F: -2214.062532575155274  |grad|_K:  1.485e-07  alpha:  2.902e-01  linmin: -3.642e-07  t[s]: 103987.36
	FillingsUpdate:  mu: +0.105134443  nElectrons: 359.000000  magneticMoment: [ Abs: 34.71681  Tot: +0.00000 ]
	SubspaceRotationAdjust: set factor to 0.589
ElecMinimize: Iter:  27  F: -2214.062533333340070  |grad|_K:  1.226e-07  alpha:  1.976e-01  linmin:  1.110e-06  t[s]: 104068.99
	FillingsUpdate:  mu: +0.105128120  nElectrons: 359.000000  magneticMoment: [ Abs: 34.71585  Tot: -0.00000 ]
	SubspaceRotationAdjust: set factor to 0.728
ElecMinimize: Iter:  28  F: -2214.062534314848563  |grad|_K:  1.068e-07  alpha:  3.751e-01  linmin: -2.147e-06  t[s]: 104148.16
	FillingsUpdate:  mu: +0.105094004  nElectrons: 359.000000  magneticMoment: [ Abs: 34.71498  Tot: -0.00000 ]
	SubspaceRotationAdjust: set factor to 0.797
ElecMinimize: Iter:  29  F: -2214.062535087353353  |grad|_K:  1.137e-07  alpha:  3.887e-01  linmin:  1.366e-06  t[s]: 104224.76
	FillingsUpdate:  mu: +0.105147153  nElectrons: 359.000000  magneticMoment: [ Abs: 34.71473  Tot: +0.00000 ]
	SubspaceRotationAdjust: set factor to 0.68
ElecMinimize: Iter:  30  F: -2214.062535568188650  |grad|_K:  1.166e-07  alpha:  2.140e-01  linmin:  3.823e-06  t[s]: 104301.69
ElecMinimize: Converged (|Delta F|<1.000000e-06 for 5 iters).
Setting wave functions to eigenvectors of Hamiltonian
IonicMinimize: 	Wolfe criterion not satisfied: alpha: 0.3816  (E-E0)/|gdotd0|: 0.201201  gdotd/gdotd0: -2.14819 (taking cubic step)

-------- Electronic minimization -----------
	FillingsUpdate:  mu: +0.100045451  nElectrons: 359.000000  magneticMoment: [ Abs: 34.71145  Tot: -0.00000 ]
ElecMinimize: Iter:   0  F: -2213.867769983488415  |grad|_K:  7.786e-05  alpha:  1.000e+00
	FillingsUpdate:  mu: +0.109638392  nElectrons: 359.000000  magneticMoment: [ Abs: 34.72926  Tot: +0.00000 ]
	SubspaceRotationAdjust: set factor to 0.64
ElecMinimize: Iter:   1  F: -2214.052836163553366  |grad|_K:  1.357e-05  alpha:  1.731e-01  linmin: -2.733e-03  t[s]: 104438.21
	FillingsUpdate:  mu: +0.100783526  nElectrons: 359.000000  magneticMoment: [ Abs: 34.71005  Tot: -0.00000 ]
	SubspaceRotationAdjust: set factor to 0.536
ElecMinimize: Iter:   2  F: -2214.059116108979197  |grad|_K:  7.717e-06  alpha:  1.939e-01  linmin:  4.303e-04  t[s]: 104515.07
	FillingsUpdate:  mu: +0.101828079  nElectrons: 359.000000  magneticMoment: [ Abs: 34.71625  Tot: +0.00000 ]
	SubspaceRotationAdjust: set factor to 0.387
ElecMinimize: Iter:   3  F: -2214.061111943959986  |grad|_K:  4.645e-06  alpha:  1.950e-01  linmin: -9.636e-04  t[s]: 104591.67
	FillingsUpdate:  mu: +0.103946987  nElectrons: 359.000000  magneticMoment: [ Abs: 34.71465  Tot: -0.00000 ]
	SubspaceRotationAdjust: set factor to 0.318
ElecMinimize: Iter:   4  F: -2214.061955630203101  |grad|_K:  3.003e-06  alpha:  2.164e-01  linmin:  4.250e-04  t[s]: 104670.79
	FillingsUpdate:  mu: +0.104755515  nElectrons: 359.000000  magneticMoment: [ Abs: 34.71703  Tot: +0.00000 ]
	SubspaceRotationAdjust: set factor to 0.391
ElecMinimize: Iter:   5  F: -2214.062359959003970  |grad|_K:  2.124e-06  alpha:  2.662e-01  linmin:  7.616e-07  t[s]: 104745.99
	FillingsUpdate:  mu: +0.105768098  nElectrons: 359.000000  magneticMoment: [ Abs: 34.72002  Tot: -0.00000 ]
	SubspaceRotationAdjust: set factor to 0.364
ElecMinimize: Iter:   6  F: -2214.062559933063767  |grad|_K:  1.398e-06  alpha:  2.547e-01  linmin: -7.498e-05  t[s]: 104822.11
	FillingsUpdate:  mu: +0.105072742  nElectrons: 359.000000  magneticMoment: [ Abs: 34.71959  Tot: +0.00000 ]
	SubspaceRotationAdjust: set factor to 0.362
ElecMinimize: Iter:   7  F: -2214.062665332742199  |grad|_K:  1.053e-06  alpha:  3.082e-01  linmin:  1.846e-05  t[s]: 104899.09
	FillingsUpdate:  mu: +0.105057967  nElectrons: 359.000000  magneticMoment: [ Abs: 34.72017  Tot: +0.00000 ]
	SubspaceRotationAdjust: set factor to 0.421
ElecMinimize: Iter:   8  F: -2214.062715431641664  |grad|_K:  7.582e-07  alpha:  2.601e-01  linmin: -4.203e-08  t[s]: 104979.68
	FillingsUpdate:  mu: +0.105408114  nElectrons: 359.000000  magneticMoment: [ Abs: 34.72107  Tot: +0.00000 ]
	SubspaceRotationAdjust: set factor to 0.432
ElecMinimize: Iter:   9  F: -2214.062742773305217  |grad|_K:  5.372e-07  alpha:  2.731e-01  linmin: -6.370e-06  t[s]: 105053.85
	FillingsUpdate:  mu: +0.105262094  nElectrons: 359.000000  magneticMoment: [ Abs: 34.72089  Tot: -0.00000 ]
	SubspaceRotationAdjust: set factor to 0.415
ElecMinimize: Iter:  10  F: -2214.062757235393747  |grad|_K:  4.034e-07  alpha:  2.876e-01  linmin:  7.313e-06  t[s]: 105131.17
	FillingsUpdate:  mu: +0.105297058  nElectrons: 359.000000  magneticMoment: [ Abs: 34.72129  Tot: -0.00000 ]
	SubspaceRotationAdjust: set factor to 0.453
ElecMinimize: Iter:  11  F: -2214.062765216635398  |grad|_K:  3.022e-07  alpha:  2.820e-01  linmin: -2.370e-06  t[s]: 105211.34
	FillingsUpdate:  mu: +0.105292211  nElectrons: 359.000000  magneticMoment: [ Abs: 34.72165  Tot: +0.00000 ]
	SubspaceRotationAdjust: set factor to 0.515
ElecMinimize: Iter:  12  F: -2214.062769515836862  |grad|_K:  2.142e-07  alpha:  2.702e-01  linmin: -1.036e-06  t[s]: 105287.66
	FillingsUpdate:  mu: +0.105228694  nElectrons: 359.000000  magneticMoment: [ Abs: 34.72187  Tot: -0.00000 ]
	SubspaceRotationAdjust: set factor to 0.48
ElecMinimize: Iter:  13  F: -2214.062771744267138  |grad|_K:  1.680e-07  alpha:  2.790e-01  linmin:  6.128e-06  t[s]: 105364.71
	FillingsUpdate:  mu: +0.105318026  nElectrons: 359.000000  magneticMoment: [ Abs: 34.72248  Tot: -0.00000 ]
	SubspaceRotationAdjust: set factor to 0.445
ElecMinimize: Iter:  14  F: -2214.062773074625511  |grad|_K:  1.371e-07  alpha:  2.710e-01  linmin: -5.978e-06  t[s]: 105439.54
	FillingsUpdate:  mu: +0.105280450  nElectrons: 359.000000  magneticMoment: [ Abs: 34.72286  Tot: +0.00000 ]
	SubspaceRotationAdjust: set factor to 0.536
ElecMinimize: Iter:  15  F: -2214.062774065846497  |grad|_K:  1.065e-07  alpha:  3.025e-01  linmin:  1.809e-06  t[s]: 105516.93
	FillingsUpdate:  mu: +0.105246281  nElectrons: 359.000000  magneticMoment: [ Abs: 34.72326  Tot: -0.00000 ]
	SubspaceRotationAdjust: set factor to 0.611
ElecMinimize: Iter:  16  F: -2214.062774748570973  |grad|_K:  9.634e-08  alpha:  3.459e-01  linmin: -8.452e-06  t[s]: 105592.30
	FillingsUpdate:  mu: +0.105301119  nElectrons: 359.000000  magneticMoment: [ Abs: 34.72385  Tot: -0.00000 ]
	SubspaceRotationAdjust: set factor to 0.562
ElecMinimize: Iter:  17  F: -2214.062775218971638  |grad|_K:  9.549e-08  alpha:  2.909e-01  linmin: -1.280e-05  t[s]: 105670.53
	FillingsUpdate:  mu: +0.105258930  nElectrons: 359.000000  magneticMoment: [ Abs: 34.72427  Tot: -0.00000 ]
	SubspaceRotationAdjust: set factor to 0.525
ElecMinimize: Iter:  18  F: -2214.062775657278053  |grad|_K:  8.460e-08  alpha:  2.760e-01  linmin:  4.700e-06  t[s]: 105751.33
	FillingsUpdate:  mu: +0.105262942  nElectrons: 359.000000  magneticMoment: [ Abs: 34.72500  Tot: +0.00000 ]
	SubspaceRotationAdjust: set factor to 0.605
ElecMinimize: Iter:  19  F: -2214.062776122334071  |grad|_K:  7.247e-08  alpha:  3.736e-01  linmin:  1.501e-06  t[s]: 105827.21
ElecMinimize: Converged (|Delta F|<1.000000e-06 for 5 iters).
Setting wave functions to eigenvectors of Hamiltonian

# Ionic positions in lattice coordinates:
ion Ni   0.006769666357352   0.003601645786974   0.153471365582674 1
ion Ni   0.498390423223854  -0.004627483281496   0.153581897838199 1
ion Ni   0.247301896099247   0.752101979468203   0.054882116208312 1
ion Ni  -0.256371264710817   0.248801684638012   0.053582572977678 1
ion Ni   0.500000000000000   0.000000000000000  -0.050000000000000 0
ion Ni   0.500000000000000   0.500000000000000  -0.050000000000000 0
ion Ni   0.250000000000000   0.750000000000000  -0.150000000000000 0
ion Ni  -0.250000000000000   0.750000000000000  -0.150000000000000 0
ion Cr  -0.003359697360154   0.495888936679584   0.164830590216279 1
ion V   0.491441258813315   0.486093516536505   0.150358100200544 1
ion V   0.247182312286712   0.247146148224967   0.052186424680328 1
ion V  -0.259954695855950   0.754154945805075   0.054664096098778 1
ion V   0.000000000000000   0.000000000000000  -0.050000000000000 0
ion V   0.000000000000000   0.500000000000000  -0.050000000000000 0
ion Co   0.250000000000000   0.250000000000000  -0.150000000000000 0
ion Co  -0.250000000000000   0.250000000000000  -0.150000000000000 0
ion O   0.254545659802754   0.259572540692832   0.151273050353472 1
ion O   0.258942235237214   0.727535690182519   0.149559598013921 1
ion O  -0.265412405283221   0.258806312414146   0.149223310480298 1
ion O  -0.273787107718445   0.723531597505521   0.145565319042284 1
ion O  -0.007975198332455  -0.005034352025682   0.058654587831110 1
ion O   0.507461556005701  -0.008325151478731   0.042724833829663 1
ion O  -0.021816494692190   0.511813593474228   0.046023018436983 1
ion O   0.494306335226250   0.505320822207372   0.051207890232088 1
ion O   0.250000000000000   0.250000000000000  -0.050000000000000 0
ion O   0.250000000000000   0.750000000000000  -0.050000000000000 0
ion O  -0.250000000000000   0.250000000000000  -0.050000000000000 0
ion O  -0.250000000000000   0.750000000000000  -0.050000000000000 0
ion O   0.000000000000000   0.000000000000000  -0.150000000000000 0
ion O   0.500000000000000   0.000000000000000  -0.150000000000000 0
ion O   0.000000000000000   0.500000000000000  -0.150000000000000 0
ion O   0.500000000000000   0.500000000000000  -0.150000000000000 0
ion O  -0.007988580371153  -0.006681035159018   0.231855921134465 1

# Forces in Lattice coordinates:
force Ni   0.008282522176772  -0.004705515085540   0.076836952457791 1
force Ni  -0.001592497569567  -0.007573468042177   0.022305905437669 1
force Ni   0.002079685484110  -0.004709711056129   0.024375877749492 1
force Ni   0.008177441002841  -0.000497655804837  -0.016992581471453 1
force Ni  -0.003252315149967  -0.039014919181277  -0.586360516309435 0
force Ni  -0.013794266498171   0.018399189770871  -0.309746155632765 0
force Ni   0.068369014397944   0.011612608063655   0.349291314549522 0
force Ni  -0.064712011051040   0.008999163195770   0.266028686669201 0
force Cr  -0.006566042461901   0.006107041965618   0.006478935555028 1
force V   0.004921040555731  -0.001384234025132  -0.005775345191435 1
force V   0.001679194264778   0.004802505515999  -0.009111691634910 1
force V  -0.003262372510645  -0.000313692691317   0.052619693447868 1
force V   0.020559976567593  -0.022600594258421   0.109770655793578 0
force V  -0.010109112520610   0.041297864097272  -0.164537263333995 0
force Co   0.084315956488477   0.008483471262417  -0.380438159319749 0
force Co  -0.070257621194583   0.012788269705669  -0.304094248034891 0
force O  -0.000152894247043   0.001004715049751   0.025977784301665 1
force O  -0.000948998125647  -0.003399534190314   0.012536881930012 1
force O  -0.004564853758677   0.004573922564555  -0.004522309672232 1
force O  -0.003030703964661  -0.009577089627458  -0.001200137024867 1
force O   0.002763749870547   0.006508957492759  -0.003036367676930 1
force O   0.000809780667463  -0.000773381896823  -0.002090880035709 1
force O  -0.001634669266377   0.003378013623794  -0.049112587621432 1
force O   0.002548817895368   0.001670804893819  -0.025009379593303 1
force O  -0.026667619766917   0.068041092850258   0.123821334041747 0
force O  -0.014092327475421  -0.080566046303501   0.026825522701905 0
force O   0.010802302867706   0.065759281570006   0.252191051857938 0
force O   0.030059133099616  -0.076272159224250   0.193642710626974 0
force O   0.002225436008890  -0.061057013657796   0.037655147246326 0
force O  -0.013146009705116  -0.066959711875705   0.156109071051090 0
force O   0.012956115033415   0.045372957350652  -0.040407478772710 0
force O  -0.013234106529477   0.063524869497249   0.145314084393320 0
force O  -0.000016635607454   0.000961596189133  -0.064855676992810 1

# Energy components:
   Eewald =     5773.3193510509026964
       EH =     7767.6721175530201435
     Eloc =   -15893.1726271935094701
      Enl =     -612.3182269869173524
   Epulay =       -0.0004908277866207
      Exc =     -261.3369622392682459
       KE =     1010.2222834700201020
        U =        1.5523307214007138
-------------------------------------
     Etot =    -2214.0622244521382527
       TS =        0.0005516701958002
-------------------------------------
        F =    -2214.0627761223340713

IonicMinimize: Iter:  18  F: -2214.062776122334071  |grad|_K:  5.554e-04  alpha:  1.288e-01  linmin:  1.121e-03  t[s]: 105838.53
IonicMinimize: Converged (|Delta F|<1.000000e-04 for 3 iters).

#--- Lowdin population analysis ---
# oxidation-state Ni +3.536 +3.467 +3.510 +3.492 +3.573 +3.568 +3.862 +3.819
# magnetic-moments Ni +0.088 +0.699 -0.965 -0.947 +1.016 +0.995 -1.061 +1.020
# oxidation-state Cr +3.005
# magnetic-moments Cr +4.087
# oxidation-state V +1.302 +1.001 +1.245 +1.046 +1.151
# magnetic-moments V -2.034 +2.879 -2.067 -2.713 -2.357
# oxidation-state Co +1.293 +1.282
# magnetic-moments Co -2.776 +2.744
# oxidation-state O -0.794 -0.749 -0.755 -0.764 -0.768 -0.755 -0.842 -0.770 -0.870 -0.776 -0.828 -0.804 -0.904 -0.862 -0.911 -0.852 -0.334
# magnetic-moments O +0.039 -0.192 -0.153 +0.091 -0.176 -0.022 -0.133 -0.134 +0.152 +0.059 +0.169 +0.279 +0.015 +0.098 +0.005 +0.139 +0.862


Dumping 'run.ionpos' ... done
Dumping 'run.lattice' ... done
Dumping 'run.Ecomponents' ... done
End date and time: Sat May 10 01:27:26 2025  (Duration: 1-5:24:01.63)
Done!
