/var/spool/slurmd/job44403/slurm_script: line 9: module: command not found
/var/spool/slurmd/job44403/slurm_script: line 10: module: command not found

*************** JDFTx 1.7.0  ***************

Start date and time: Fri May 16 21:18:08 2025
Executable /data2/jt577/jdftx_eat_withLibXC/build/jdftx with command-line: -i /data2/jt577/May_2025/Relax_Mag_litU/rel18+1_6/OH/runs/calc_/run.in
Running on hosts (process indices):  node3405 (0-8)
Divided in process groups (process indices):  0 (0)  1 (1)  2 (2)  3 (3)  4 (4)  5 (5)  6 (6)  7 (7)  8 (8)
Resource initialization completed at t[s]:      0.00
Run totals: 9 processes, 90 threads, 0 GPUs


Input parsed successfully to the following command list (including defaults):

add-mix 
add-U 	Ni d 0.235196 \
	V d 0.113923 \
	Co d 0.121273 \
	Cr d 0.128623
basis kpoint-dependent
coords-type Lattice
core-overlap-check vector
coulomb-interaction Periodic
davidson-band-ratio 1.1
dump End IonicPositions Lattice Ecomponents
dump-name run.$VAR
elec-cutoff 30
elec-eigen-algo Davidson
elec-ex-corr gga-x-rpbe gga-c-pbe
elec-smearing Fermi 0.001
electronic-minimize  \
	dirUpdateScheme      FletcherReeves \
	linminMethod         DirUpdateRecommended \
	nIterations          1000 \
	history              15 \
	knormThreshold       0 \
	energyDiffThreshold  1e-06 \
	nEnergyDiff          5 \
	alphaTstart          1 \
	alphaTmin            1e-10 \
	updateTestStepSize   yes \
	alphaTreduceFactor   0.1 \
	alphaTincreaseFactor 3 \
	nAlphaAdjustMax      3 \
	wolfeEnergy          0.0001 \
	wolfeGradient        0.9 \
	fdTest               no
exchange-regularization WignerSeitzTruncated
fluid None
fluid-ex-corr (null) lda-PZ
fluid-gummel-loop 10 1.000000e-05
fluid-minimize  \
	dirUpdateScheme      PolakRibiere \
	linminMethod         DirUpdateRecommended \
	nIterations          100 \
	history              15 \
	knormThreshold       0 \
	energyDiffThreshold  0 \
	nEnergyDiff          2 \
	alphaTstart          1 \
	alphaTmin            1e-10 \
	updateTestStepSize   yes \
	alphaTreduceFactor   0.1 \
	alphaTincreaseFactor 3 \
	nAlphaAdjustMax      3 \
	wolfeEnergy          0.0001 \
	wolfeGradient        0.9 \
	fdTest               no
fluid-solvent H2O 55.338 ScalarEOS \
	epsBulk 78.4 \
	pMol 0.92466 \
	epsInf 1.77 \
	Pvap 1.06736e-10 \
	sigmaBulk 4.62e-05 \
	Rvdw 2.61727 \
	Res 1.42 \
	tauNuc 343133 \
	poleEl 15 7 1
forces-output-coords Positions
initial-magnetic-moments  \
	Ni 1 -1 -1 \
	V -1 1 -1 1 -1 1 \
	Co -1 1 1 -1 1 \
	Cr 1 -1
initial-state run.$VAR
ion Ni  0.000000000000000   0.000000000000000   0.150000000000000 1
ion Ni -0.250000000000000   0.250000000000000   0.050000000000000 1
ion Ni -0.250000000000000   0.750000000000000   0.050000000000000 1
ion V  0.500000000000000   0.000000000000000   0.150000000000000 1
ion V  0.000000000000000   0.500000000000000   0.150000000000000 1
ion V  0.000000000000000   0.000000000000000  -0.050000000000000 0
ion V  0.500000000000000   0.500000000000000  -0.050000000000000 0
ion V  0.250000000000000   0.750000000000000  -0.150000000000000 0
ion V -0.250000000000000   0.250000000000000  -0.150000000000000 0
ion Co  0.500000000000000   0.500000000000000   0.150000000000000 1
ion Co  0.250000000000000   0.250000000000000   0.050000000000000 1
ion Co  0.500000000000000   0.000000000000000  -0.050000000000000 0
ion Co  0.000000000000000   0.500000000000000  -0.050000000000000 0
ion Co -0.250000000000000   0.750000000000000  -0.150000000000000 0
ion Cr  0.250000000000000   0.750000000000000   0.050000000000000 1
ion Cr  0.250000000000000   0.250000000000000  -0.150000000000000 0
ion O  0.250000000000000   0.250000000000000   0.150000000000000 1
ion O  0.250000000000000   0.750000000000000   0.150000000000000 1
ion O -0.250000000000000   0.250000000000000   0.150000000000000 1
ion O -0.250000000000000   0.750000000000000   0.150000000000000 1
ion O  0.000000000000000   0.000000000000000   0.050000000000000 1
ion O  0.500000000000000   0.000000000000000   0.050000000000000 1
ion O  0.000000000000000   0.500000000000000   0.050000000000000 1
ion O  0.500000000000000   0.500000000000000   0.050000000000000 1
ion O  0.250000000000000   0.250000000000000  -0.050000000000000 0
ion O  0.250000000000000   0.750000000000000  -0.050000000000000 0
ion O -0.250000000000000   0.250000000000000  -0.050000000000000 0
ion O -0.250000000000000   0.750000000000000  -0.050000000000000 0
ion O  0.000000000000000   0.000000000000000  -0.150000000000000 0
ion O  0.500000000000000   0.000000000000000  -0.150000000000000 0
ion O  0.000000000000000   0.500000000000000  -0.150000000000000 0
ion O  0.500000000000000   0.500000000000000  -0.150000000000000 0
ion O -0.008040138212305  -0.008269777577920   0.235000196603227 1
ion H  0.095742872057713   0.094897636790041   0.252810710255288 1
ion-species SG15/$ID_ONCV_PBE.upf
ion-width 0
ionic-minimize  \
	dirUpdateScheme      L-BFGS \
	linminMethod         DirUpdateRecommended \
	nIterations          1000 \
	history              15 \
	knormThreshold       0.0001 \
	energyDiffThreshold  0.0001 \
	nEnergyDiff          3 \
	alphaTstart          1 \
	alphaTmin            1e-10 \
	updateTestStepSize   yes \
	alphaTreduceFactor   0.1 \
	alphaTincreaseFactor 3 \
	nAlphaAdjustMax      3 \
	wolfeEnergy          0.0001 \
	wolfeGradient        0.9 \
	fdTest               no
kpoint   0.500000000000   0.500000000000   0.500000000000  1.00000000000000
kpoint-folding 3 3 1 
latt-move-scale 1 1 1
latt-scale 1 1 1 
lattice  \
	   8.140000000000001    8.140000000000001    0.000000000000000  \
	   8.140000000000001   -8.140000000000001    0.000000000000000  \
	   0.000000000000000    0.000000000000000   40.700000000000003 
lattice-minimize  \
	dirUpdateScheme      L-BFGS \
	linminMethod         DirUpdateRecommended \
	nIterations          0 \
	history              15 \
	knormThreshold       0 \
	energyDiffThreshold  1e-06 \
	nEnergyDiff          2 \
	alphaTstart          1 \
	alphaTmin            1e-10 \
	updateTestStepSize   yes \
	alphaTreduceFactor   0.1 \
	alphaTincreaseFactor 3 \
	nAlphaAdjustMax      3 \
	wolfeEnergy          0.0001 \
	wolfeGradient        0.9 \
	fdTest               no
lcao-params -1 1e-06 0.001
pcm-variant GLSSA13
spintype z-spin
subspace-rotation-factor 1 yes
symmetries none
symmetry-threshold 0.0001


Applied RMS atom displacement 0 bohrs to make symmetries exact.

---------- Initializing the Grid ----------
R = 
[         8.14         8.14            0  ]
[         8.14        -8.14            0  ]
[            0            0         40.7  ]
unit cell volume = 5393.53
G =
[   0.385945   0.385945         -0  ]
[   0.385945  -0.385945         -0  ]
[         -0         -0   0.154378  ]
Minimum fftbox size, Smin = [  60  60  204  ]
Chosen fftbox size, S = [  60  60  210  ]

---------- Exchange Correlation functional ----------
Initialized LibXC exchange functional 'Hammer, Hansen, and Norskov'
Initialized LibXC correlation functional 'Perdew, Burke & Ernzerhof'

---------- Setting up pseudopotentials ----------
Width of ionic core gaussian charges (only for fluid interactions / plotting) set to 0

Reading pseudopotential file '/data2/jt577/jdftx_eat_withLibXC/build/pseudopotentials/SG15/Ni_ONCV_PBE.upf':
  'Ni' pseudopotential, 'PBE' functional
  Generated using ONCVPSP code by D. R. Hamann
  Author: Martin Schlipf and Francois Gygi  Date: 150915.
  18 valence electrons, 4 orbitals, 6 projectors, 1292 radial grid points, with lMax = 2
  Transforming local potential to a uniform radial grid of dG=0.02 with 1419 points.
  Transforming nonlocal projectors to a uniform radial grid of dG=0.02 with 528 points.
    3S    l: 0   occupation:  2.0   eigenvalue: -4.081355
    3P    l: 1   occupation:  6.0   eigenvalue: -2.623460
    4S    l: 0   occupation:  2.0   eigenvalue: -0.207378
    3D    l: 2   occupation:  8.0   eigenvalue: -0.326118
  Transforming atomic orbitals to a uniform radial grid of dG=0.02 with 528 points.
  WARNING: large normalization error in atomic orbital 1s (integral: 0.000006).
  Core radius for overlap checks: 1.99 bohrs.
  Reading pulay file /data2/jt577/jdftx_eat_withLibXC/build/pseudopotentials/SG15/Ni_ONCV_PBE.pulay ... using dE_dnG = -7.250568e-04 computed for Ecut = 30.

Reading pseudopotential file '/data2/jt577/jdftx_eat_withLibXC/build/pseudopotentials/SG15/V_ONCV_PBE.upf':
  'V' pseudopotential, 'PBE' functional
  Generated using ONCVPSP code by D. R. Hamann
  Author: Martin Schlipf and Francois Gygi  Date: 150915.
  13 valence electrons, 4 orbitals, 6 projectors, 1536 radial grid points, with lMax = 2
  Transforming local potential to a uniform radial grid of dG=0.02 with 1419 points.
  Transforming nonlocal projectors to a uniform radial grid of dG=0.02 with 528 points.
    3S    l: 0   occupation:  2.0   eigenvalue: -2.581105
    3P    l: 1   occupation:  6.0   eigenvalue: -1.618486
    4S    l: 0   occupation:  2.0   eigenvalue: -0.172804
    3D    l: 2   occupation:  3.0   eigenvalue: -0.189795
  Transforming atomic orbitals to a uniform radial grid of dG=0.02 with 528 points.
  Core radius for overlap checks: 1.80 bohrs.
  Reading pulay file /data2/jt577/jdftx_eat_withLibXC/build/pseudopotentials/SG15/V_ONCV_PBE.pulay ... using dE_dnG = -1.698632e-04 computed for Ecut = 30.

Reading pseudopotential file '/data2/jt577/jdftx_eat_withLibXC/build/pseudopotentials/SG15/Co_ONCV_PBE.upf':
  'Co' pseudopotential, 'PBE' functional
  Generated using ONCVPSP code by D. R. Hamann
  Author: Martin Schlipf and Francois Gygi  Date: 150915.
  17 valence electrons, 4 orbitals, 6 projectors, 1388 radial grid points, with lMax = 2
  Transforming local potential to a uniform radial grid of dG=0.02 with 1419 points.
  Transforming nonlocal projectors to a uniform radial grid of dG=0.02 with 528 points.
    3S    l: 0   occupation:  2.0   eigenvalue: -3.763303
    3P    l: 1   occupation:  6.0   eigenvalue: -2.412101
    4S    l: 0   occupation:  2.0   eigenvalue: -0.201022
    3D    l: 2   occupation:  7.0   eigenvalue: -0.301498
  Transforming atomic orbitals to a uniform radial grid of dG=0.02 with 528 points.
  Core radius for overlap checks: 1.94 bohrs.
  Reading pulay file /data2/jt577/jdftx_eat_withLibXC/build/pseudopotentials/SG15/Co_ONCV_PBE.pulay ... using dE_dnG = -9.787391e-05 computed for Ecut = 30.

Reading pseudopotential file '/data2/jt577/jdftx_eat_withLibXC/build/pseudopotentials/SG15/Cr_ONCV_PBE.upf':
  'Cr' pseudopotential, 'PBE' functional
  Generated using ONCVPSP code by D. R. Hamann
  Author: Martin Schlipf and Francois Gygi  Date: 150915.
  14 valence electrons, 4 orbitals, 6 projectors, 1160 radial grid points, with lMax = 2
  Transforming local potential to a uniform radial grid of dG=0.02 with 1419 points.
  Transforming nonlocal projectors to a uniform radial grid of dG=0.02 with 528 points.
    3S    l: 0   occupation:  2.0   eigenvalue: -2.865131
    3P    l: 1   occupation:  6.0   eigenvalue: -1.810600
    4S    l: 0   occupation:  2.0   eigenvalue: -0.180525
    3D    l: 2   occupation:  4.0   eigenvalue: -0.220312
  Transforming atomic orbitals to a uniform radial grid of dG=0.02 with 528 points.
  WARNING: large normalization error in atomic orbital 1s (integral: 0.000001).
  Core radius for overlap checks: 2.10 bohrs.
  Reading pulay file /data2/jt577/jdftx_eat_withLibXC/build/pseudopotentials/SG15/Cr_ONCV_PBE.pulay ... using dE_dnG = -9.817895e-06 computed for Ecut = 30.

Reading pseudopotential file '/data2/jt577/jdftx_eat_withLibXC/build/pseudopotentials/SG15/O_ONCV_PBE.upf':
  'O' pseudopotential, 'PBE' functional
  Generated using ONCVPSP code by D. R. Hamann
  Author: Martin Schlipf and Francois Gygi  Date: 150915.
  6 valence electrons, 2 orbitals, 4 projectors, 936 radial grid points, with lMax = 1
  Transforming local potential to a uniform radial grid of dG=0.02 with 1419 points.
  Transforming nonlocal projectors to a uniform radial grid of dG=0.02 with 528 points.
    2S    l: 0   occupation:  2.0   eigenvalue: -0.880572
    2P    l: 1   occupation:  4.0   eigenvalue: -0.331869
  Transforming atomic orbitals to a uniform radial grid of dG=0.02 with 528 points.
  Core radius for overlap checks: 1.29 bohrs.
  Reading pulay file /data2/jt577/jdftx_eat_withLibXC/build/pseudopotentials/SG15/O_ONCV_PBE.pulay ... using dE_dnG = -8.209514e-03 computed for Ecut = 30.

Reading pseudopotential file '/data2/jt577/jdftx_eat_withLibXC/build/pseudopotentials/SG15/H_ONCV_PBE.upf':
  'H' pseudopotential, 'PBE' functional
  Generated using ONCVPSP code by D. R. Hamann
  Author: Martin Schlipf and Francois Gygi  Date: 150915.
  1 valence electrons, 1 orbitals, 2 projectors, 1166 radial grid points, with lMax = 0
  Transforming local potential to a uniform radial grid of dG=0.02 with 1419 points.
  Transforming nonlocal projectors to a uniform radial grid of dG=0.02 with 528 points.
    1S    l: 0   occupation:  1.0   eigenvalue: -0.238602
  Transforming atomic orbitals to a uniform radial grid of dG=0.02 with 528 points.
  Core radius for overlap checks: 1.01 bohrs.
  Reading pulay file /data2/jt577/jdftx_eat_withLibXC/build/pseudopotentials/SG15/H_ONCV_PBE.pulay ... using dE_dnG = -8.245991e-05 computed for Ecut = 30.

Initialized 6 species with 34 total atoms.

Folded 1 k-points by 3x3x1 to 9 k-points.

---------- Setting up k-points, bands, fillings ----------
No reducable k-points. 
Computing the number of bands and number of electrons
Calculating initial fillings.
nElectrons: 348.000000   nBands: 229   nStates: 18

----- Setting up reduced wavefunction bases (one per k-point) -----
average nbasis = 42312.000 , ideal nbasis = 42330.081

---------- Setting up ewald sum ----------
Optimum gaussian width for ewald sums = 3.887061 bohr.
Real space sum over 605 unit cells with max indices [  5  5  2  ]
Reciprocal space sum over 5915 terms with max indices [  6  6  17  ]

---------- Allocating electronic variables ----------
Initializing wave functions:  linear combination of atomic orbitals
Ni (M=1) pseudo-atom majority spin occupations:   s ( 1 0.5 )  p ( 3 )  d ( 5 )
Ni (M=1) pseudo-atom minority spin occupations:   s ( 1 0 )  p ( 3 )  d ( 4.5 )
V (M=1) pseudo-atom majority spin occupations:   s ( 1 0 )  p ( 3 )  d ( 3 )
V (M=1) pseudo-atom minority spin occupations:   s ( 1 0 )  p ( 3 )  d ( 2 )
Co (M=1) pseudo-atom majority spin occupations:   s ( 1 0 )  p ( 3 )  d ( 5 )
Co (M=1) pseudo-atom minority spin occupations:   s ( 1 0 )  p ( 3 )  d ( 4 )
Cr (M=1) pseudo-atom majority spin occupations:   s ( 1 0 )  p ( 3 )  d ( 3.5 )
Cr (M=1) pseudo-atom minority spin occupations:   s ( 1 0 )  p ( 3 )  d ( 2.5 )
O pseudo-atom occupations:   s ( 2 )  p ( 4 )
H pseudo-atom occupations:   s ( 1 )
	FillingsUpdate:  mu: +0.183097478  nElectrons: 348.000000  magneticMoment: [ Abs: 5.61747  Tot: +0.00000 ]
LCAOMinimize: Iter:   0  F: -1869.2388397052848177  |grad|_K:  3.599e-02  alpha:  1.000e+00
LCAOMinimize: 	Step increased F by 3.126852e+02, reducing alpha to 3.256264e-02.
	FillingsUpdate:  mu: +0.009598901  nElectrons: 348.000000  magneticMoment: [ Abs: 5.91818  Tot: +0.00000 ]
LCAOMinimize: Iter:   1  F: -1894.2035773939398950  |grad|_K:  2.004e-02  alpha:  3.256e-02  linmin: -9.598e-02  cgtest:  3.381e-01  t[s]:     53.85
LCAOMinimize: 	Wrong curvature in test step, increasing alphaT to 9.768791e-02.
	FillingsUpdate:  mu: +0.447750398  nElectrons: 348.000000  magneticMoment: [ Abs: 11.38009  Tot: +0.00000 ]
LCAOMinimize: Iter:   2  F: -1912.6846726446626690  |grad|_K:  2.714e-02  alpha: -5.876e-02  linmin: -7.030e-03  cgtest:  2.457e-01  t[s]:     67.56
LCAOMinimize: 	Step increased F by 2.023459e+02, reducing alpha to 3.366654e-02.
	FillingsUpdate:  mu: +0.946283701  nElectrons: 348.000000  magneticMoment: [ Abs: 10.30545  Tot: +0.00000 ]
LCAOMinimize: Iter:   3  F: -1923.2469557145727777  |grad|_K:  3.934e-02  alpha:  3.367e-02  linmin: -3.355e-03  cgtest:  6.669e-01  t[s]:     92.42
	FillingsUpdate:  mu: +1.135075062  nElectrons: 348.000000  magneticMoment: [ Abs: 4.72863  Tot: +0.00000 ]
LCAOMinimize: Iter:   4  F: -1929.2539648051651966  |grad|_K:  2.157e-02  alpha:  1.302e-02  linmin:  3.603e-02  cgtest: -4.957e-01  t[s]:    106.92
LCAOMinimize: 	Bad step direction: g.d > 0.
LCAOMinimize: 	Undoing step.
LCAOMinimize: 	Step failed: resetting search direction.
	FillingsUpdate:  mu: +1.135075062  nElectrons: 348.000000  magneticMoment: [ Abs: 4.72863  Tot: +0.00000 ]
LCAOMinimize: Iter:   5  F: -1929.2539648051651966  |grad|_K:  2.157e-02  alpha:  0.000e+00
LCAOMinimize: 	Predicted alpha/alphaT>3.000000, increasing alphaT to 3.907075e-02.
	FillingsUpdate:  mu: +0.492255542  nElectrons: 348.000000  magneticMoment: [ Abs: 5.48007  Tot: +0.00000 ]
LCAOMinimize: Iter:   6  F: -1936.2093812080681801  |grad|_K:  1.369e-02  alpha:  2.416e-02  linmin: -2.558e-03  cgtest: -2.142e-01  t[s]:    135.90
	FillingsUpdate:  mu: +0.291352426  nElectrons: 348.000000  magneticMoment: [ Abs: 6.87952  Tot: +0.00000 ]
LCAOMinimize: Iter:   7  F: -1941.2767861164027181  |grad|_K:  7.204e-03  alpha:  4.349e-02  linmin: -7.779e-02  cgtest: -1.807e-01  t[s]:    150.43
LCAOMinimize: 	Wrong curvature in test step, increasing alphaT to 1.304646e-01.
	FillingsUpdate:  mu: +0.127944532  nElectrons: 348.000000  magneticMoment: [ Abs: 10.15858  Tot: +0.00000 ]
LCAOMinimize: Iter:   8  F: -1945.9518729385686129  |grad|_K:  1.389e-02  alpha: -5.918e-02  linmin:  1.952e-02  cgtest:  2.437e-01  t[s]:    163.92
LCAOMinimize: 	Bad step direction: g.d > 0.
LCAOMinimize: 	Undoing step.
LCAOMinimize: 	Step failed: resetting search direction.
	FillingsUpdate:  mu: +0.127944532  nElectrons: 348.000000  magneticMoment: [ Abs: 10.15858  Tot: +0.00000 ]
LCAOMinimize: Iter:   9  F: -1945.9518729385686129  |grad|_K:  1.389e-02  alpha:  0.000e+00
LCAOMinimize: 	Step increased F by 1.252460e+02, reducing alpha to 1.203434e-02.
	FillingsUpdate:  mu: +0.075219429  nElectrons: 348.000000  magneticMoment: [ Abs: 10.28159  Tot: -0.00000 ]
LCAOMinimize: Iter:  10  F: -1947.1660694394736311  |grad|_K:  6.938e-03  alpha:  1.203e-02  linmin: -1.132e-01  cgtest:  6.307e-01  t[s]:    198.57
LCAOMinimize: Encountered beta<0, resetting CG.
LCAOMinimize: 	Wrong curvature in test step, increasing alphaT to 3.610302e-02.
	FillingsUpdate:  mu: +0.075076566  nElectrons: 348.000000  magneticMoment: [ Abs: 10.66989  Tot: +0.00000 ]
LCAOMinimize: Iter:  11  F: -1947.7629154752137310  |grad|_K:  7.172e-03  alpha: -7.343e-02  linmin: -1.245e-01  cgtest:  8.393e-01  t[s]:    211.82
LCAOMinimize: 	Step increased F by 5.558168e+01, reducing alpha to 1.414308e-02.
	FillingsUpdate:  mu: +0.112169825  nElectrons: 348.000000  magneticMoment: [ Abs: 11.37247  Tot: -0.00000 ]
LCAOMinimize: Iter:  12  F: -1948.5855880627925671  |grad|_K:  6.114e-03  alpha:  1.414e-02  linmin: -1.412e-01  cgtest:  8.869e-01  t[s]:    236.60
LCAOMinimize: Encountered beta<0, resetting CG.
LCAOMinimize: 	Predicted alpha/alphaT>3.000000, increasing alphaT to 4.242923e-02.
LCAOMinimize: 	Predicted alpha/alphaT>3.000000, increasing alphaT to 1.272877e-01.
	FillingsUpdate:  mu: +0.109025525  nElectrons: 348.000000  magneticMoment: [ Abs: 11.69719  Tot: +0.00000 ]
LCAOMinimize: Iter:  13  F: -1949.1352894229044068  |grad|_K:  5.239e-03  alpha:  1.584e-02  linmin: -1.494e-01  cgtest:  9.405e-01  t[s]:    259.44
LCAOMinimize: Encountered beta<0, resetting CG.
LCAOMinimize: 	Predicted alpha/alphaT>3.000000, increasing alphaT to 4.751390e-02.
LCAOMinimize: 	Predicted alpha/alphaT>3.000000, increasing alphaT to 1.425417e-01.
	FillingsUpdate:  mu: +0.105625218  nElectrons: 348.000000  magneticMoment: [ Abs: 11.89675  Tot: -0.00000 ]
LCAOMinimize: Iter:  14  F: -1949.4056904991155079  |grad|_K:  4.756e-03  alpha:  1.083e-02  linmin: -1.636e-01  cgtest:  9.802e-01  t[s]:    282.39
LCAOMinimize: Encountered beta<0, resetting CG.
LCAOMinimize: 	Predicted alpha/alphaT>3.000000, increasing alphaT to 3.248065e-02.
LCAOMinimize: 	Predicted alpha/alphaT>3.000000, increasing alphaT to 9.744196e-02.
	FillingsUpdate:  mu: +0.097507079  nElectrons: 348.000000  magneticMoment: [ Abs: 12.14548  Tot: -0.00000 ]
LCAOMinimize: Iter:  15  F: -1949.6956631620282678  |grad|_K:  4.395e-03  alpha:  1.367e-02  linmin: -1.634e-01  cgtest:  9.385e-01  t[s]:    305.62
LCAOMinimize: Encountered beta<0, resetting CG.
LCAOMinimize: 	Wrong curvature in test step, increasing alphaT to 4.100017e-02.
	FillingsUpdate:  mu: +0.090967300  nElectrons: 348.000000  magneticMoment: [ Abs: 12.38108  Tot: -0.00000 ]
LCAOMinimize: Iter:  16  F: -1949.9485656917740926  |grad|_K:  4.095e-03  alpha: -1.133e+00  linmin: -1.505e-01  cgtest:  9.189e-01  t[s]:    319.61
LCAOMinimize: 	Step increased F by 5.613398e+00, reducing alpha to 1.054336e-02.
	FillingsUpdate:  mu: +0.084503712  nElectrons: 348.000000  magneticMoment: [ Abs: 12.56098  Tot: -0.00000 ]
LCAOMinimize: Iter:  17  F: -1950.1193684234488046  |grad|_K:  3.834e-03  alpha:  1.054e-02  linmin: -1.408e-01  cgtest:  9.347e-01  t[s]:    344.35
LCAOMinimize: 	Predicted alpha/alphaT>3.000000, increasing alphaT to 3.163008e-02.
LCAOMinimize: 	Predicted alpha/alphaT>3.000000, increasing alphaT to 9.489024e-02.
	FillingsUpdate:  mu: +0.068698018  nElectrons: 348.000000  magneticMoment: [ Abs: 12.83123  Tot: -0.00000 ]
LCAOMinimize: Iter:  18  F: -1950.3263243651824723  |grad|_K:  3.398e-03  alpha:  1.486e-02  linmin: -1.362e-01  cgtest:  9.010e-01  t[s]:    366.87
LCAOMinimize: Encountered beta<0, resetting CG.
LCAOMinimize: 	Predicted alpha/alphaT>3.000000, increasing alphaT to 4.457938e-02.
	FillingsUpdate:  mu: +0.024699260  nElectrons: 348.000000  magneticMoment: [ Abs: 14.02295  Tot: +0.00000 ]
LCAOMinimize: Iter:  19  F: -1950.5687427244081391  |grad|_K:  6.975e-03  alpha:  5.344e-02  linmin:  2.093e-02  cgtest: -1.439e-02  t[s]:    385.45
	FillingsUpdate:  mu: +0.016744073  nElectrons: 348.000000  magneticMoment: [ Abs: 14.17764  Tot: +0.00000 ]
LCAOMinimize: Iter:  20  F: -1950.5903232887774266  |grad|_K:  7.191e-03  alpha:  1.711e-03  linmin: -5.511e-03  cgtest:  9.896e-01  t[s]:    399.93
LCAOMinimize: 	Predicted alpha/alphaT>3.000000, increasing alphaT to 5.134103e-03.
	FillingsUpdate:  mu: +0.066609634  nElectrons: 348.000000  magneticMoment: [ Abs: 14.03174  Tot: -0.00000 ]
LCAOMinimize: Iter:  21  F: -1950.8191649397915626  |grad|_K:  2.479e-03  alpha:  9.014e-03  linmin: -2.428e-02  cgtest:  9.251e-02  t[s]:    418.43
LCAOMinimize: 	Predicted alpha/alphaT>3.000000, increasing alphaT to 2.704079e-02.
LCAOMinimize: 	Step increased F by 1.407075e-01, reducing alpha to 7.253817e-03.
	FillingsUpdate:  mu: +0.071608826  nElectrons: 348.000000  magneticMoment: [ Abs: 14.01523  Tot: -0.00000 ]
LCAOMinimize: Iter:  22  F: -1950.8606805759675353  |grad|_K:  2.166e-03  alpha:  7.254e-03  linmin: -1.021e-01  cgtest:  9.707e-01  t[s]:    447.40
LCAOMinimize: Encountered beta<0, resetting CG.
LCAOMinimize: 	Predicted alpha/alphaT>3.000000, increasing alphaT to 2.176145e-02.
LCAOMinimize: 	Predicted alpha/alphaT>3.000000, increasing alphaT to 6.528436e-02.
	FillingsUpdate:  mu: +0.160567435  nElectrons: 348.000000  magneticMoment: [ Abs: 14.27196  Tot: -0.00000 ]
LCAOMinimize: Iter:  23  F: -1951.0127029865202530  |grad|_K:  2.517e-03  alpha:  6.153e-02  linmin:  3.573e-02  cgtest: -2.463e-01  t[s]:    470.18
	FillingsUpdate:  mu: +0.166893811  nElectrons: 348.000000  magneticMoment: [ Abs: 14.30744  Tot: +0.00000 ]
LCAOMinimize: Iter:  24  F: -1951.0129496992083205  |grad|_K:  2.464e-03  alpha:  1.588e-03  linmin:  5.742e-03  cgtest:  9.736e-01  t[s]:    484.60
LCAOMinimize: 	Predicted alpha/alphaT>3.000000, increasing alphaT to 4.765356e-03.
LCAOMinimize: 	Predicted alpha/alphaT>3.000000, increasing alphaT to 1.429607e-02.
	FillingsUpdate:  mu: +0.130525346  nElectrons: 348.000000  magneticMoment: [ Abs: 14.42387  Tot: -0.00000 ]
LCAOMinimize: Iter:  25  F: -1951.0646499016886537  |grad|_K:  1.460e-03  alpha:  1.773e-02  linmin: -4.368e-03  cgtest:  8.571e-02  t[s]:    507.31
	FillingsUpdate:  mu: +0.109686920  nElectrons: 348.000000  magneticMoment: [ Abs: 14.65389  Tot: +0.00000 ]
LCAOMinimize: Iter:  26  F: -1951.0855847521538635  |grad|_K:  1.122e-03  alpha:  1.985e-02  linmin: -3.360e-03  cgtest: -9.346e-02  t[s]:    522.02
LCAOMinimize: 	Predicted alpha/alphaT>3.000000, increasing alphaT to 5.955021e-02.
	FillingsUpdate:  mu: +0.116269355  nElectrons: 348.000000  magneticMoment: [ Abs: 15.93630  Tot: -0.00000 ]
LCAOMinimize: Iter:  27  F: -1951.1655424465325268  |grad|_K:  1.373e-03  alpha:  1.225e-01  linmin: -7.557e-04  cgtest:  8.701e-02  t[s]:    540.68
	FillingsUpdate:  mu: +0.121413235  nElectrons: 348.000000  magneticMoment: [ Abs: 16.63317  Tot: +0.00000 ]
LCAOMinimize: Iter:  28  F: -1951.1969073379859765  |grad|_K:  1.384e-03  alpha:  4.209e-02  linmin:  1.612e-03  cgtest: -2.210e-02  t[s]:    555.19
	FillingsUpdate:  mu: +0.139674501  nElectrons: 348.000000  magneticMoment: [ Abs: 16.94351  Tot: -0.00000 ]
LCAOMinimize: Iter:  29  F: -1951.2134793273592095  |grad|_K:  9.676e-04  alpha:  1.698e-02  linmin: -3.741e-03  cgtest:  5.305e-01  t[s]:    569.87
LCAOMinimize: 	Predicted alpha/alphaT>3.000000, increasing alphaT to 5.094610e-02.
	FillingsUpdate:  mu: +0.116890688  nElectrons: 348.000000  magneticMoment: [ Abs: 17.52463  Tot: -0.00000 ]
LCAOMinimize: Iter:  30  F: -1951.2579482032297165  |grad|_K:  9.043e-04  alpha:  8.943e-02  linmin: -8.896e-03  cgtest:  3.626e-03  t[s]:    588.56
LCAOMinimize: None of the convergence criteria satisfied after 30 iterations.


---- Citations for features of the code used in this run ----

   Software package:
      R. Sundararaman, K. Letchworth-Weaver, K.A. Schwarz, D. Gunceler, Y. Ozhabes and T.A. Arias, 'JDFTx: software for joint density-functional theory', SoftwareX 6, 278 (2017)

   Simplified rotationally-invariant DFT+U:
      S. L. Dudarev et al., Phys. Rev. B 57, 1505 (1998)

   LibXC library of exchange-correlation functions:
      M. A. L. Marques, M. J. T. Oliveira and T. Burnus, Comput. Phys. Commun. 183, 2272 (2012)

   Hammer, Hansen, and Norskov exchange functional:
      B. Hammer, L. B. Hansen, and J. K. Nørskov, Phys. Rev. B 59, 7413 (1999)

   Perdew, Burke & Ernzerhof correlation functional:
      J. P. Perdew, K. Burke, and M. Ernzerhof, Phys. Rev. Lett. 77, 3865 (1996)

   Pseudopotentials:
      M Schlipf and F Gygi, Comput. Phys. Commun. 196, 36 (2015)

   Total energy minimization with Auxiliary Hamiltonian:
      C. Freysoldt, S. Boeck, and J. Neugebauer, Phys. Rev. B 79, 241103(R) (2009)

This list may not be complete. Please suggest additional citations or
report any other bugs at https://github.com/shankar1729/jdftx/issues

Initialization completed successfully at t[s]:    595.19


-------- Electronic minimization -----------
	FillingsUpdate:  mu: +0.116890794  nElectrons: 348.000000  magneticMoment: [ Abs: 17.52463  Tot: -0.00000 ]
ElecMinimize: Iter:   0  F: -1951.257948203222895  |grad|_K:  7.656e-04  alpha:  1.000e+00
	FillingsUpdate:  mu: +0.741878444  nElectrons: 348.000000  magneticMoment: [ Abs: 21.16731  Tot: -0.00000 ]
	SubspaceRotationAdjust: set factor to 0.98
ElecMinimize: Iter:   1  F: -1976.570038628612565  |grad|_K:  1.175e-03  alpha:  4.567e-01  linmin:  8.985e-03  t[s]:    686.26
ElecMinimize: 	Step increased F by 8.248294e+00, reducing alpha to 9.930398e-03.
	FillingsUpdate:  mu: +0.472415016  nElectrons: 348.000000  magneticMoment: [ Abs: 20.68329  Tot: -0.00000 ]
	SubspaceRotationAdjust: set factor to 1.04
ElecMinimize: Iter:   2  F: -1979.442383854200898  |grad|_K:  8.130e-04  alpha:  9.930e-03  linmin: -5.366e-03  t[s]:    802.67
	FillingsUpdate:  mu: +0.333934288  nElectrons: 348.000000  magneticMoment: [ Abs: 20.01506  Tot: -0.00000 ]
	SubspaceRotationAdjust: set factor to 0.946
ElecMinimize: Iter:   3  F: -1983.028385634903771  |grad|_K:  8.251e-04  alpha:  2.317e-02  linmin: -1.592e-03  t[s]:    876.89
	FillingsUpdate:  mu: +0.237791316  nElectrons: 348.000000  magneticMoment: [ Abs: 21.17219  Tot: -0.00000 ]
	SubspaceRotationAdjust: set factor to 0.684
ElecMinimize: Iter:   4  F: -1987.486376832033784  |grad|_K:  8.649e-04  alpha:  2.972e-02  linmin: -7.532e-04  t[s]:    951.59
	FillingsUpdate:  mu: +0.296777381  nElectrons: 348.000000  magneticMoment: [ Abs: 22.99870  Tot: +0.00000 ]
	SubspaceRotationAdjust: set factor to 0.527
ElecMinimize: Iter:   5  F: -1994.417031780784100  |grad|_K:  6.095e-04  alpha:  5.863e-02  linmin:  8.387e-04  t[s]:   1024.92
	FillingsUpdate:  mu: +0.228275399  nElectrons: 348.000000  magneticMoment: [ Abs: 23.12873  Tot: -0.00000 ]
	SubspaceRotationAdjust: set factor to 0.448
ElecMinimize: Iter:   6  F: -1997.410425553591040  |grad|_K:  5.371e-04  alpha:  3.578e-02  linmin: -1.046e-03  t[s]:   1103.03
	FillingsUpdate:  mu: +0.267385362  nElectrons: 348.000000  magneticMoment: [ Abs: 23.49401  Tot: -0.00000 ]
	SubspaceRotationAdjust: set factor to 0.497
ElecMinimize: Iter:   7  F: -1998.513692686768081  |grad|_K:  4.539e-04  alpha:  1.090e-02  linmin: -1.519e-03  t[s]:   1180.63
	FillingsUpdate:  mu: +0.362425810  nElectrons: 348.000000  magneticMoment: [ Abs: 23.72171  Tot: +0.00000 ]
	SubspaceRotationAdjust: set factor to 0.386
ElecMinimize: Iter:   8  F: -1999.364532313746622  |grad|_K:  5.288e-04  alpha:  1.611e-02  linmin:  7.109e-04  t[s]:   1260.33
	FillingsUpdate:  mu: +0.362825623  nElectrons: 348.000000  magneticMoment: [ Abs: 23.80393  Tot: -0.00000 ]
	SubspaceRotationAdjust: set factor to 0.3
ElecMinimize: Iter:   9  F: -1999.519767150904727  |grad|_K:  5.113e-04  alpha:  4.484e-03  linmin:  1.084e-05  t[s]:   1339.90
	FillingsUpdate:  mu: +0.324531555  nElectrons: 348.000000  magneticMoment: [ Abs: 24.27606  Tot: -0.00000 ]
	SubspaceRotationAdjust: set factor to 0.237
ElecMinimize: Iter:  10  F: -1999.850778318354287  |grad|_K:  4.680e-04  alpha:  7.208e-03  linmin: -5.027e-05  t[s]:   1417.19
	FillingsUpdate:  mu: +0.212680046  nElectrons: 348.000000  magneticMoment: [ Abs: 24.97707  Tot: +0.00000 ]
	SubspaceRotationAdjust: set factor to 0.207
ElecMinimize: Iter:  11  F: -2000.133851186525362  |grad|_K:  3.993e-04  alpha:  7.237e-03  linmin:  2.807e-05  t[s]:   1496.59
	FillingsUpdate:  mu: +0.175529369  nElectrons: 348.000000  magneticMoment: [ Abs: 25.69985  Tot: +0.00000 ]
	SubspaceRotationAdjust: set factor to 0.19
ElecMinimize: Iter:  12  F: -2000.352238104045909  |grad|_K:  3.527e-04  alpha:  7.914e-03  linmin: -4.157e-05  t[s]:   1570.97
	FillingsUpdate:  mu: +0.118867406  nElectrons: 348.000000  magneticMoment: [ Abs: 25.87628  Tot: +0.00000 ]
	SubspaceRotationAdjust: set factor to 0.174
ElecMinimize: Iter:  13  F: -2000.635847756875364  |grad|_K:  3.022e-04  alpha:  1.281e-02  linmin:  4.962e-05  t[s]:   1645.65
	FillingsUpdate:  mu: +0.108703885  nElectrons: 348.000000  magneticMoment: [ Abs: 25.97855  Tot: -0.00000 ]
	SubspaceRotationAdjust: set factor to 0.145
ElecMinimize: Iter:  14  F: -2000.848780849856894  |grad|_K:  2.830e-04  alpha:  1.364e-02  linmin:  1.359e-04  t[s]:   1721.56
	FillingsUpdate:  mu: +0.117995063  nElectrons: 348.000000  magneticMoment: [ Abs: 26.29405  Tot: +0.00000 ]
	SubspaceRotationAdjust: set factor to 0.113
	SubspaceRotationAdjust: resetting CG because factor has changed by 0.113484
ElecMinimize: 	State modified externally: resetting search direction.
ElecMinimize: Iter:  15  F: -2001.059138917429436  |grad|_K:  2.511e-04  alpha:  1.579e-02
ElecMinimize: 	Predicted alpha/alphaT>3.000000, increasing alphaT to 4.736242e-02.
ElecMinimize: 	Predicted alpha/alphaT>3.000000, increasing alphaT to 1.420873e-01.
	FillingsUpdate:  mu: +0.266267693  nElectrons: 348.000000  magneticMoment: [ Abs: 26.36224  Tot: -0.00000 ]
	SubspaceRotationAdjust: set factor to 0.0679
ElecMinimize: Iter:  16  F: -2003.469703957683578  |grad|_K:  2.301e-04  alpha:  2.535e-01  linmin:  2.637e-02  t[s]:   1948.09
	FillingsUpdate:  mu: +0.184014020  nElectrons: 348.000000  magneticMoment: [ Abs: 26.49323  Tot: +0.00000 ]
	SubspaceRotationAdjust: set factor to 0.0754
ElecMinimize: Iter:  17  F: -2003.802066266192924  |grad|_K:  1.535e-04  alpha:  9.202e-02  linmin:  3.138e-04  t[s]:   2022.50
	FillingsUpdate:  mu: +0.176573960  nElectrons: 348.000000  magneticMoment: [ Abs: 26.69154  Tot: -0.00000 ]
	SubspaceRotationAdjust: set factor to 0.0986
ElecMinimize: Iter:  18  F: -2004.335661644484389  |grad|_K:  9.237e-05  alpha:  1.260e-01  linmin: -2.744e-03  t[s]:   2100.12
	FillingsUpdate:  mu: +0.198927998  nElectrons: 348.000000  magneticMoment: [ Abs: 26.77547  Tot: +0.00000 ]
	SubspaceRotationAdjust: set factor to 0.087
ElecMinimize: Iter:  19  F: -2004.609084364545879  |grad|_K:  7.840e-05  alpha:  1.666e-01  linmin:  5.816e-04  t[s]:   2178.65
	FillingsUpdate:  mu: +0.141294469  nElectrons: 348.000000  magneticMoment: [ Abs: 27.01048  Tot: -0.00000 ]
	SubspaceRotationAdjust: set factor to 0.116
ElecMinimize: Iter:  20  F: -2004.752090525969379  |grad|_K:  5.690e-05  alpha:  1.392e-01  linmin: -9.730e-05  t[s]:   2257.19
	FillingsUpdate:  mu: +0.148299633  nElectrons: 348.000000  magneticMoment: [ Abs: 27.32020  Tot: +0.00000 ]
	SubspaceRotationAdjust: set factor to 0.0948
ElecMinimize: Iter:  21  F: -2004.838261082262534  |grad|_K:  5.601e-05  alpha:  1.506e-01  linmin:  4.560e-05  t[s]:   2332.06
	FillingsUpdate:  mu: +0.114102081  nElectrons: 348.000000  magneticMoment: [ Abs: 27.75028  Tot: +0.00000 ]
	SubspaceRotationAdjust: set factor to 0.119
ElecMinimize: Iter:  22  F: -2004.930618107870259  |grad|_K:  4.792e-05  alpha:  1.694e-01  linmin: -6.206e-05  t[s]:   2408.59
	FillingsUpdate:  mu: +0.145617974  nElectrons: 348.000000  magneticMoment: [ Abs: 28.10384  Tot: +0.00000 ]
	SubspaceRotationAdjust: set factor to 0.116
ElecMinimize: Iter:  23  F: -2004.996693026355388  |grad|_K:  4.746e-05  alpha:  1.607e-01  linmin:  8.079e-05  t[s]:   2484.45
	FillingsUpdate:  mu: +0.172534282  nElectrons: 348.000000  magneticMoment: [ Abs: 28.82207  Tot: -0.00000 ]
	SubspaceRotationAdjust: set factor to 0.0873
ElecMinimize: Iter:  24  F: -2005.062981109857219  |grad|_K:  5.465e-05  alpha:  1.739e-01  linmin: -2.379e-05  t[s]:   2560.20
	FillingsUpdate:  mu: +0.156813337  nElectrons: 348.000000  magneticMoment: [ Abs: 29.52018  Tot: +0.00000 ]
	SubspaceRotationAdjust: set factor to 0.118
ElecMinimize: Iter:  25  F: -2005.121876355318363  |grad|_K:  4.438e-05  alpha:  1.183e-01  linmin: -4.428e-05  t[s]:   2636.46
	FillingsUpdate:  mu: +0.158121832  nElectrons: 348.000000  magneticMoment: [ Abs: 30.23868  Tot: -0.00000 ]
	SubspaceRotationAdjust: set factor to 0.124
ElecMinimize: Iter:  26  F: -2005.196684944194430  |grad|_K:  4.666e-05  alpha:  2.028e-01  linmin: -1.480e-04  t[s]:   2710.28
	FillingsUpdate:  mu: +0.136793878  nElectrons: 348.000000  magneticMoment: [ Abs: 31.16037  Tot: -0.00000 ]
	SubspaceRotationAdjust: set factor to 0.162
ElecMinimize: Iter:  27  F: -2005.284164820856859  |grad|_K:  4.204e-05  alpha:  2.089e-01  linmin: -7.358e-05  t[s]:   2786.75
	FillingsUpdate:  mu: +0.161966433  nElectrons: 348.000000  magneticMoment: [ Abs: 32.37606  Tot: +0.00000 ]
	SubspaceRotationAdjust: set factor to 0.157
ElecMinimize: Iter:  28  F: -2005.371273682357923  |grad|_K:  5.194e-05  alpha:  2.603e-01  linmin: -1.116e-04  t[s]:   2861.46
	FillingsUpdate:  mu: +0.134073258  nElectrons: 348.000000  magneticMoment: [ Abs: 33.66340  Tot: +0.00000 ]
	SubspaceRotationAdjust: set factor to 0.148
ElecMinimize: Iter:  29  F: -2005.482190424844248  |grad|_K:  4.847e-05  alpha:  1.699e-01  linmin: -1.012e-04  t[s]:   2936.22
	FillingsUpdate:  mu: +0.139081725  nElectrons: 348.000000  magneticMoment: [ Abs: 34.68554  Tot: -0.00000 ]
	SubspaceRotationAdjust: set factor to 0.118
ElecMinimize: Iter:  30  F: -2005.550531072467948  |grad|_K:  6.634e-05  alpha:  1.470e-01  linmin:  4.230e-05  t[s]:   3012.66
	FillingsUpdate:  mu: +0.138474843  nElectrons: 348.000000  magneticMoment: [ Abs: 34.73527  Tot: -0.00000 ]
	SubspaceRotationAdjust: set factor to 0.102
ElecMinimize: Iter:  31  F: -2005.551015432010900  |grad|_K:  6.146e-05  alpha:  3.995e-03  linmin: -8.280e-04  t[s]:   3092.20
ElecMinimize: 	Predicted alpha/alphaT>3.000000, increasing alphaT to 1.198388e-02.
ElecMinimize: 	Predicted alpha/alphaT>3.000000, increasing alphaT to 3.595165e-02.
	FillingsUpdate:  mu: +0.128367892  nElectrons: 348.000000  magneticMoment: [ Abs: 35.57535  Tot: -0.00000 ]
	SubspaceRotationAdjust: set factor to 0.0969
ElecMinimize: Iter:  32  F: -2005.604016697038105  |grad|_K:  3.808e-05  alpha:  9.308e-02  linmin:  5.442e-03  t[s]:   3231.72
ElecMinimize: 	Bad step direction: g.d > 0.
ElecMinimize: 	Undoing step.
ElecMinimize: 	Step failed: resetting search direction.
	FillingsUpdate:  mu: +0.128367892  nElectrons: 348.000000  magneticMoment: [ Abs: 35.57535  Tot: -0.00000 ]
	SubspaceRotationAdjust: set factor to 0.116
ElecMinimize: Iter:  33  F: -2005.604016697037878  |grad|_K:  3.789e-05  alpha:  0.000e+00
ElecMinimize: 	Predicted alpha/alphaT>3.000000, increasing alphaT to 2.792337e-01.
	FillingsUpdate:  mu: +0.129784902  nElectrons: 348.000000  magneticMoment: [ Abs: 35.66876  Tot: +0.00000 ]
	SubspaceRotationAdjust: set factor to 0.129
ElecMinimize: Iter:  34  F: -2005.677501242295875  |grad|_K:  2.567e-05  alpha:  2.927e-01  linmin: -3.247e-04  t[s]:   3389.23
	FillingsUpdate:  mu: +0.155671320  nElectrons: 348.000000  magneticMoment: [ Abs: 35.83317  Tot: -0.00000 ]
	SubspaceRotationAdjust: set factor to 0.107
ElecMinimize: Iter:  35  F: -2005.722844504831755  |grad|_K:  2.608e-05  alpha:  3.874e-01  linmin: -2.460e-03  t[s]:   3465.20
	FillingsUpdate:  mu: +0.140710443  nElectrons: 348.000000  magneticMoment: [ Abs: 36.29536  Tot: -0.00000 ]
	SubspaceRotationAdjust: set factor to 0.0973
ElecMinimize: Iter:  36  F: -2005.762739668751237  |grad|_K:  2.376e-05  alpha:  3.249e-01  linmin: -5.163e-04  t[s]:   3542.79
	FillingsUpdate:  mu: +0.128123325  nElectrons: 348.000000  magneticMoment: [ Abs: 36.79786  Tot: +0.00000 ]
	SubspaceRotationAdjust: set factor to 0.103
ElecMinimize: Iter:  37  F: -2005.798083746760540  |grad|_K:  1.712e-05  alpha:  3.513e-01  linmin: -6.154e-04  t[s]:   3621.49
	FillingsUpdate:  mu: +0.131129920  nElectrons: 348.000000  magneticMoment: [ Abs: 37.23478  Tot: +0.00000 ]
	SubspaceRotationAdjust: set factor to 0.12
ElecMinimize: Iter:  38  F: -2005.818192544885051  |grad|_K:  1.645e-05  alpha:  3.844e-01  linmin: -1.179e-04  t[s]:   3700.06
	FillingsUpdate:  mu: +0.129123449  nElectrons: 348.000000  magneticMoment: [ Abs: 37.83922  Tot: -0.00000 ]
	SubspaceRotationAdjust: set factor to 0.137
ElecMinimize: Iter:  39  F: -2005.838631162638876  |grad|_K:  1.437e-05  alpha:  4.282e-01  linmin: -3.881e-04  t[s]:   3778.23
	FillingsUpdate:  mu: +0.140270863  nElectrons: 348.000000  magneticMoment: [ Abs: 38.39750  Tot: -0.00000 ]
	SubspaceRotationAdjust: set factor to 0.148
ElecMinimize: Iter:  40  F: -2005.853694482358151  |grad|_K:  1.560e-05  alpha:  4.086e-01  linmin:  2.437e-04  t[s]:   3854.75
	FillingsUpdate:  mu: +0.133709304  nElectrons: 348.000000  magneticMoment: [ Abs: 39.01700  Tot: +0.00000 ]
	SubspaceRotationAdjust: set factor to 0.136
ElecMinimize: Iter:  41  F: -2005.866941323371975  |grad|_K:  1.517e-05  alpha:  3.258e-01  linmin: -4.778e-04  t[s]:   3932.27
	FillingsUpdate:  mu: +0.137924544  nElectrons: 348.000000  magneticMoment: [ Abs: 39.85291  Tot: -0.00000 ]
	SubspaceRotationAdjust: set factor to 0.128
ElecMinimize: Iter:  42  F: -2005.882248867016187  |grad|_K:  1.511e-05  alpha:  3.694e-01  linmin:  3.548e-04  t[s]:   4007.46
	FillingsUpdate:  mu: +0.135970243  nElectrons: 348.000000  magneticMoment: [ Abs: 40.61219  Tot: +0.00000 ]
	SubspaceRotationAdjust: set factor to 0.154
ElecMinimize: Iter:  43  F: -2005.895198145269205  |grad|_K:  1.342e-05  alpha:  3.355e-01  linmin: -1.197e-04  t[s]:   4085.37
	FillingsUpdate:  mu: +0.131827347  nElectrons: 348.000000  magneticMoment: [ Abs: 41.20562  Tot: -0.00000 ]
	SubspaceRotationAdjust: set factor to 0.172
ElecMinimize: Iter:  44  F: -2005.906165380536777  |grad|_K:  1.296e-05  alpha:  3.441e-01  linmin: -2.570e-04  t[s]:   4165.07
	FillingsUpdate:  mu: +0.142557523  nElectrons: 348.000000  magneticMoment: [ Abs: 41.70070  Tot: -0.00000 ]
	SubspaceRotationAdjust: set factor to 0.171
ElecMinimize: Iter:  45  F: -2005.915117038957533  |grad|_K:  1.295e-05  alpha:  2.967e-01  linmin:  1.378e-04  t[s]:   4241.36
	FillingsUpdate:  mu: +0.134132511  nElectrons: 348.000000  magneticMoment: [ Abs: 42.07288  Tot: -0.00000 ]
	SubspaceRotationAdjust: set factor to 0.213
ElecMinimize: Iter:  46  F: -2005.923022836624114  |grad|_K:  1.047e-05  alpha:  2.736e-01  linmin: -9.926e-05  t[s]:   4318.85
	FillingsUpdate:  mu: +0.130853297  nElectrons: 348.000000  magneticMoment: [ Abs: 42.41079  Tot: +0.00000 ]
	SubspaceRotationAdjust: set factor to 0.251
ElecMinimize: Iter:  47  F: -2005.929660944163288  |grad|_K:  1.048e-05  alpha:  3.407e-01  linmin: -2.772e-04  t[s]:   4394.82
	FillingsUpdate:  mu: +0.139966513  nElectrons: 348.000000  magneticMoment: [ Abs: 42.76868  Tot: -0.00000 ]
	SubspaceRotationAdjust: set factor to 0.262
ElecMinimize: Iter:  48  F: -2005.935567783895294  |grad|_K:  1.050e-05  alpha:  3.043e-01  linmin: -4.869e-04  t[s]:   4471.51
	FillingsUpdate:  mu: +0.135762082  nElectrons: 348.000000  magneticMoment: [ Abs: 43.04275  Tot: -0.00000 ]
	SubspaceRotationAdjust: set factor to 0.265
ElecMinimize: Iter:  49  F: -2005.941764225685120  |grad|_K:  9.723e-06  alpha:  3.037e-01  linmin:  5.151e-06  t[s]:   4546.70
	FillingsUpdate:  mu: +0.133840547  nElectrons: 348.000000  magneticMoment: [ Abs: 43.19300  Tot: +0.00000 ]
	SubspaceRotationAdjust: set factor to 0.268
ElecMinimize: Iter:  50  F: -2005.946250235623211  |grad|_K:  1.012e-05  alpha:  2.619e-01  linmin:  5.632e-04  t[s]:   4622.81
	FillingsUpdate:  mu: +0.133690421  nElectrons: 348.000000  magneticMoment: [ Abs: 43.29981  Tot: -0.00000 ]
	SubspaceRotationAdjust: set factor to 0.368
ElecMinimize: Iter:  51  F: -2005.949485483695753  |grad|_K:  8.819e-06  alpha:  1.993e-01  linmin: -1.593e-04  t[s]:   4699.67
	FillingsUpdate:  mu: +0.137416224  nElectrons: 348.000000  magneticMoment: [ Abs: 43.41872  Tot: +0.00000 ]
	SubspaceRotationAdjust: set factor to 0.417
ElecMinimize: Iter:  52  F: -2005.952583845308936  |grad|_K:  8.428e-06  alpha:  2.202e-01  linmin: -5.680e-04  t[s]:   4777.87
	FillingsUpdate:  mu: +0.130369310  nElectrons: 348.000000  magneticMoment: [ Abs: 43.45178  Tot: +0.00000 ]
	SubspaceRotationAdjust: set factor to 0.412
ElecMinimize: Iter:  53  F: -2005.954095900405264  |grad|_K:  7.857e-06  alpha:  1.001e-01  linmin: -5.913e-04  t[s]:   4856.02
	FillingsUpdate:  mu: +0.132914462  nElectrons: 348.000000  magneticMoment: [ Abs: 43.49029  Tot: -0.00000 ]
	SubspaceRotationAdjust: set factor to 0.305
ElecMinimize: Iter:  54  F: -2005.956168477677465  |grad|_K:  9.123e-06  alpha:  1.751e-01  linmin: -3.663e-04  t[s]:   4933.99
	FillingsUpdate:  mu: +0.134438000  nElectrons: 348.000000  magneticMoment: [ Abs: 43.51387  Tot: -0.00000 ]
	SubspaceRotationAdjust: set factor to 0.318
ElecMinimize: Iter:  55  F: -2005.957464600655612  |grad|_K:  6.133e-06  alpha:  8.578e-02  linmin:  3.614e-05  t[s]:   5011.54
	FillingsUpdate:  mu: +0.140570447  nElectrons: 348.000000  magneticMoment: [ Abs: 43.52326  Tot: -0.00000 ]
	SubspaceRotationAdjust: set factor to 0.276
ElecMinimize: Iter:  56  F: -2005.958562587944698  |grad|_K:  7.030e-06  alpha:  1.672e-01  linmin: -5.930e-05  t[s]:   5089.25
	FillingsUpdate:  mu: +0.134609846  nElectrons: 348.000000  magneticMoment: [ Abs: 43.51987  Tot: +0.00000 ]
	SubspaceRotationAdjust: set factor to 0.385
ElecMinimize: Iter:  57  F: -2005.959592162896342  |grad|_K:  5.027e-06  alpha:  1.187e-01  linmin: -6.785e-06  t[s]:   5167.84
	FillingsUpdate:  mu: +0.135029408  nElectrons: 348.000000  magneticMoment: [ Abs: 43.51031  Tot: +0.00000 ]
	SubspaceRotationAdjust: set factor to 0.364
ElecMinimize: Iter:  58  F: -2005.960211222303769  |grad|_K:  5.151e-06  alpha:  1.399e-01  linmin: -1.709e-05  t[s]:   5241.10
	FillingsUpdate:  mu: +0.133443468  nElectrons: 348.000000  magneticMoment: [ Abs: 43.50084  Tot: -0.00000 ]
	SubspaceRotationAdjust: set factor to 0.508
ElecMinimize: Iter:  59  F: -2005.960837087477785  |grad|_K:  3.777e-06  alpha:  1.346e-01  linmin:  3.110e-05  t[s]:   5317.42
	FillingsUpdate:  mu: +0.135457353  nElectrons: 348.000000  magneticMoment: [ Abs: 43.49419  Tot: -0.00000 ]
	SubspaceRotationAdjust: set factor to 0.428
ElecMinimize: Iter:  60  F: -2005.961197266266481  |grad|_K:  4.409e-06  alpha:  1.449e-01  linmin:  9.379e-06  t[s]:   5395.36
	FillingsUpdate:  mu: +0.134121363  nElectrons: 348.000000  magneticMoment: [ Abs: 43.48024  Tot: -0.00000 ]
	SubspaceRotationAdjust: set factor to 0.591
ElecMinimize: Iter:  61  F: -2005.961577914878262  |grad|_K:  2.810e-06  alpha:  1.123e-01  linmin: -1.182e-05  t[s]:   5472.04
	FillingsUpdate:  mu: +0.134824755  nElectrons: 348.000000  magneticMoment: [ Abs: 43.46076  Tot: +0.00000 ]
	SubspaceRotationAdjust: set factor to 0.457
ElecMinimize: Iter:  62  F: -2005.961846173829827  |grad|_K:  3.703e-06  alpha:  1.928e-01  linmin: -8.381e-05  t[s]:   5548.02
	FillingsUpdate:  mu: +0.134316700  nElectrons: 348.000000  magneticMoment: [ Abs: 43.43812  Tot: -0.00000 ]
	SubspaceRotationAdjust: set factor to 0.468
ElecMinimize: Iter:  63  F: -2005.962081307660355  |grad|_K:  2.504e-06  alpha:  9.835e-02  linmin:  3.963e-05  t[s]:   5625.80
	FillingsUpdate:  mu: +0.134828023  nElectrons: 348.000000  magneticMoment: [ Abs: 43.40386  Tot: +0.00000 ]
	SubspaceRotationAdjust: set factor to 0.486
ElecMinimize: Iter:  64  F: -2005.962323699704712  |grad|_K:  2.726e-06  alpha:  2.223e-01  linmin: -9.656e-06  t[s]:   5702.02
	FillingsUpdate:  mu: +0.133843281  nElectrons: 348.000000  magneticMoment: [ Abs: 43.38089  Tot: +0.00000 ]
	SubspaceRotationAdjust: set factor to 0.427
ElecMinimize: Iter:  65  F: -2005.962469597023073  |grad|_K:  2.263e-06  alpha:  1.144e-01  linmin:  5.034e-05  t[s]:   5779.06
	FillingsUpdate:  mu: +0.133865745  nElectrons: 348.000000  magneticMoment: [ Abs: 43.35271  Tot: -0.00000 ]
	SubspaceRotationAdjust: set factor to 0.582
ElecMinimize: Iter:  66  F: -2005.962647763714131  |grad|_K:  1.981e-06  alpha:  2.007e-01  linmin: -7.527e-08  t[s]:   5856.13
	FillingsUpdate:  mu: +0.134598869  nElectrons: 348.000000  magneticMoment: [ Abs: 43.33508  Tot: -0.00000 ]
	SubspaceRotationAdjust: set factor to 0.539
ElecMinimize: Iter:  67  F: -2005.962759438259809  |grad|_K:  2.126e-06  alpha:  1.636e-01  linmin: -4.331e-05  t[s]:   5933.20
	FillingsUpdate:  mu: +0.134146048  nElectrons: 348.000000  magneticMoment: [ Abs: 43.31689  Tot: -0.00000 ]
	SubspaceRotationAdjust: set factor to 0.569
ElecMinimize: Iter:  68  F: -2005.962883362445382  |grad|_K:  1.681e-06  alpha:  1.558e-01  linmin: -2.761e-05  t[s]:   6009.47
	FillingsUpdate:  mu: +0.134191665  nElectrons: 348.000000  magneticMoment: [ Abs: 43.29841  Tot: -0.00000 ]
	SubspaceRotationAdjust: set factor to 0.693
ElecMinimize: Iter:  69  F: -2005.963011805346696  |grad|_K:  1.663e-06  alpha:  2.589e-01  linmin:  7.241e-06  t[s]:   6087.27
	FillingsUpdate:  mu: +0.134769172  nElectrons: 348.000000  magneticMoment: [ Abs: 43.28642  Tot: -0.00000 ]
	SubspaceRotationAdjust: set factor to 0.69
ElecMinimize: Iter:  70  F: -2005.963109339117636  |grad|_K:  1.898e-06  alpha:  2.023e-01  linmin: -1.526e-05  t[s]:   6165.29
	FillingsUpdate:  mu: +0.134226529  nElectrons: 348.000000  magneticMoment: [ Abs: 43.28100  Tot: -0.00000 ]
	SubspaceRotationAdjust: set factor to 0.651
ElecMinimize: Iter:  71  F: -2005.963194513162080  |grad|_K:  1.700e-06  alpha:  1.367e-01  linmin: -6.077e-06  t[s]:   6243.15
	FillingsUpdate:  mu: +0.134464934  nElectrons: 348.000000  magneticMoment: [ Abs: 43.27943  Tot: +0.00000 ]
	SubspaceRotationAdjust: set factor to 0.775
ElecMinimize: Iter:  72  F: -2005.963309910081989  |grad|_K:  1.594e-06  alpha:  2.280e-01  linmin: -1.599e-05  t[s]:   6316.61
	FillingsUpdate:  mu: +0.134723563  nElectrons: 348.000000  magneticMoment: [ Abs: 43.28368  Tot: +0.00000 ]
	SubspaceRotationAdjust: set factor to 0.912
	SubspaceRotationAdjust: resetting CG because factor has changed by 8.03849
ElecMinimize: 	State modified externally: resetting search direction.
ElecMinimize: Iter:  73  F: -2005.963429381269179  |grad|_K:  1.744e-06  alpha:  2.682e-01
	FillingsUpdate:  mu: +0.134575551  nElectrons: 348.000000  magneticMoment: [ Abs: 43.28912  Tot: -0.00000 ]
	SubspaceRotationAdjust: set factor to 0.537
ElecMinimize: Iter:  74  F: -2005.963537411480957  |grad|_K:  2.258e-06  alpha:  2.041e-01  linmin: -7.762e-05  t[s]:   6488.59
	FillingsUpdate:  mu: +0.134673040  nElectrons: 348.000000  magneticMoment: [ Abs: 43.29413  Tot: +0.00000 ]
	SubspaceRotationAdjust: set factor to 0.415
ElecMinimize: Iter:  75  F: -2005.963622115728413  |grad|_K:  1.336e-06  alpha:  9.101e-02  linmin: -3.277e-04  t[s]:   6568.26
ElecMinimize: 	Predicted alpha/alphaT>3.000000, increasing alphaT to 2.730162e-01.
	FillingsUpdate:  mu: +0.135022863  nElectrons: 348.000000  magneticMoment: [ Abs: 43.30836  Tot: +0.00000 ]
	SubspaceRotationAdjust: set factor to 0.463
ElecMinimize: Iter:  76  F: -2005.963729151827920  |grad|_K:  1.438e-06  alpha:  3.344e-01  linmin:  1.368e-05  t[s]:   6677.83
	FillingsUpdate:  mu: +0.134388961  nElectrons: 348.000000  magneticMoment: [ Abs: 43.32032  Tot: +0.00000 ]
	SubspaceRotationAdjust: set factor to 0.349
ElecMinimize: Iter:  77  F: -2005.963798670358528  |grad|_K:  1.327e-06  alpha:  1.940e-01  linmin:  2.639e-05  t[s]:   6756.06
	FillingsUpdate:  mu: +0.134417777  nElectrons: 348.000000  magneticMoment: [ Abs: 43.33104  Tot: -0.00000 ]
	SubspaceRotationAdjust: set factor to 0.423
ElecMinimize: Iter:  78  F: -2005.963868825918325  |grad|_K:  1.006e-06  alpha:  2.285e-01  linmin:  3.198e-05  t[s]:   6831.17
	FillingsUpdate:  mu: +0.134777642  nElectrons: 348.000000  magneticMoment: [ Abs: 43.33927  Tot: +0.00000 ]
	SubspaceRotationAdjust: set factor to 0.349
ElecMinimize: Iter:  79  F: -2005.963924406743672  |grad|_K:  1.092e-06  alpha:  3.152e-01  linmin:  7.283e-05  t[s]:   6907.09
	FillingsUpdate:  mu: +0.134233916  nElectrons: 348.000000  magneticMoment: [ Abs: 43.34682  Tot: -0.00000 ]
	SubspaceRotationAdjust: set factor to 0.278
ElecMinimize: Iter:  80  F: -2005.963966359021015  |grad|_K:  1.040e-06  alpha:  2.027e-01  linmin:  1.288e-06  t[s]:   6983.61
	FillingsUpdate:  mu: +0.134298867  nElectrons: 348.000000  magneticMoment: [ Abs: 43.35858  Tot: +0.00000 ]
	SubspaceRotationAdjust: set factor to 0.359
ElecMinimize: Iter:  81  F: -2005.964037124969991  |grad|_K:  1.210e-06  alpha:  3.744e-01  linmin:  3.146e-06  t[s]:   7062.78
	FillingsUpdate:  mu: +0.135209359  nElectrons: 348.000000  magneticMoment: [ Abs: 43.37179  Tot: +0.00000 ]
	SubspaceRotationAdjust: set factor to 0.303
ElecMinimize: Iter:  82  F: -2005.964131026414634  |grad|_K:  1.609e-06  alpha:  3.664e-01  linmin:  1.614e-04  t[s]:   7138.35
	FillingsUpdate:  mu: +0.134285695  nElectrons: 348.000000  magneticMoment: [ Abs: 43.38845  Tot: -0.00000 ]
	SubspaceRotationAdjust: set factor to 0.277
ElecMinimize: Iter:  83  F: -2005.964259599623347  |grad|_K:  1.604e-06  alpha:  2.868e-01  linmin:  1.924e-05  t[s]:   7211.27
	FillingsUpdate:  mu: +0.134279261  nElectrons: 348.000000  magneticMoment: [ Abs: 43.40686  Tot: +0.00000 ]
	SubspaceRotationAdjust: set factor to 0.325
ElecMinimize: Iter:  84  F: -2005.964445517540980  |grad|_K:  1.924e-06  alpha:  4.161e-01  linmin:  8.440e-05  t[s]:   7288.60
	FillingsUpdate:  mu: +0.135214416  nElectrons: 348.000000  magneticMoment: [ Abs: 43.42351  Tot: +0.00000 ]
	SubspaceRotationAdjust: set factor to 0.256
ElecMinimize: Iter:  85  F: -2005.964644521602395  |grad|_K:  2.177e-06  alpha:  3.040e-01  linmin:  5.225e-05  t[s]:   7364.56
	FillingsUpdate:  mu: +0.134363183  nElectrons: 348.000000  magneticMoment: [ Abs: 43.44582  Tot: -0.00000 ]
	SubspaceRotationAdjust: set factor to 0.279
ElecMinimize: Iter:  86  F: -2005.964911870457399  |grad|_K:  1.996e-06  alpha:  3.252e-01  linmin:  5.421e-05  t[s]:   7445.46
	FillingsUpdate:  mu: +0.134468836  nElectrons: 348.000000  magneticMoment: [ Abs: 43.46286  Tot: -0.00000 ]
	SubspaceRotationAdjust: set factor to 0.306
ElecMinimize: Iter:  87  F: -2005.965149682284391  |grad|_K:  2.087e-06  alpha:  3.445e-01  linmin:  3.894e-05  t[s]:   7522.75
	FillingsUpdate:  mu: +0.135127092  nElectrons: 348.000000  magneticMoment: [ Abs: 43.47404  Tot: -0.00000 ]
	SubspaceRotationAdjust: set factor to 0.249
ElecMinimize: Iter:  88  F: -2005.965364669730661  |grad|_K:  2.100e-06  alpha:  2.812e-01  linmin:  8.226e-05  t[s]:   7598.83
	FillingsUpdate:  mu: +0.134211117  nElectrons: 348.000000  magneticMoment: [ Abs: 43.48144  Tot: +0.00000 ]
	SubspaceRotationAdjust: set factor to 0.289
ElecMinimize: Iter:  89  F: -2005.965579848702191  |grad|_K:  1.778e-06  alpha:  2.817e-01  linmin:  8.331e-06  t[s]:   7676.50
	FillingsUpdate:  mu: +0.134321072  nElectrons: 348.000000  magneticMoment: [ Abs: 43.48332  Tot: +0.00000 ]
	SubspaceRotationAdjust: set factor to 0.306
ElecMinimize: Iter:  90  F: -2005.965794975729295  |grad|_K:  1.921e-06  alpha:  3.902e-01  linmin:  4.653e-05  t[s]:   7753.68
	FillingsUpdate:  mu: +0.135517606  nElectrons: 348.000000  magneticMoment: [ Abs: 43.47777  Tot: -0.00000 ]
	SubspaceRotationAdjust: set factor to 0.264
ElecMinimize: Iter:  91  F: -2005.965985111814462  |grad|_K:  2.050e-06  alpha:  2.992e-01  linmin: -6.510e-05  t[s]:   7829.03
	FillingsUpdate:  mu: +0.134731803  nElectrons: 348.000000  magneticMoment: [ Abs: 43.46612  Tot: +0.00000 ]
	SubspaceRotationAdjust: set factor to 0.281
ElecMinimize: Iter:  92  F: -2005.966206643566466  |grad|_K:  1.759e-06  alpha:  2.990e-01  linmin:  3.295e-05  t[s]:   7909.52
	FillingsUpdate:  mu: +0.134744691  nElectrons: 348.000000  magneticMoment: [ Abs: 43.44583  Tot: -0.00000 ]
	SubspaceRotationAdjust: set factor to 0.35
ElecMinimize: Iter:  93  F: -2005.966420782090836  |grad|_K:  1.710e-06  alpha:  3.980e-01  linmin:  2.403e-05  t[s]:   7983.05
	FillingsUpdate:  mu: +0.135723743  nElectrons: 348.000000  magneticMoment: [ Abs: 43.42189  Tot: -0.00000 ]
	SubspaceRotationAdjust: set factor to 0.281
ElecMinimize: Iter:  94  F: -2005.966593159801505  |grad|_K:  1.863e-06  alpha:  3.384e-01  linmin: -7.452e-06  t[s]:   8059.24
	FillingsUpdate:  mu: +0.134729578  nElectrons: 348.000000  magneticMoment: [ Abs: 43.40018  Tot: +0.00000 ]
	SubspaceRotationAdjust: set factor to 0.249
ElecMinimize: Iter:  95  F: -2005.966744556629919  |grad|_K:  1.568e-06  alpha:  2.516e-01  linmin: -2.558e-05  t[s]:   8137.55
	FillingsUpdate:  mu: +0.135012183  nElectrons: 348.000000  magneticMoment: [ Abs: 43.36931  Tot: +0.00000 ]
	SubspaceRotationAdjust: set factor to 0.312
ElecMinimize: Iter:  96  F: -2005.966917637557344  |grad|_K:  1.491e-06  alpha:  4.010e-01  linmin:  7.075e-06  t[s]:   8212.13
	FillingsUpdate:  mu: +0.135790837  nElectrons: 348.000000  magneticMoment: [ Abs: 43.34382  Tot: +0.00000 ]
	SubspaceRotationAdjust: set factor to 0.336
ElecMinimize: Iter:  97  F: -2005.967041559146992  |grad|_K:  1.352e-06  alpha:  3.192e-01  linmin:  1.291e-06  t[s]:   8290.58
	FillingsUpdate:  mu: +0.135338188  nElectrons: 348.000000  magneticMoment: [ Abs: 43.32283  Tot: -0.00000 ]
	SubspaceRotationAdjust: set factor to 0.317
ElecMinimize: Iter:  98  F: -2005.967144000000189  |grad|_K:  1.251e-06  alpha:  3.206e-01  linmin: -1.085e-04  t[s]:   8365.49
	FillingsUpdate:  mu: +0.135745138  nElectrons: 348.000000  magneticMoment: [ Abs: 43.30494  Tot: +0.00000 ]
	SubspaceRotationAdjust: set factor to 0.339
ElecMinimize: Iter:  99  F: -2005.967228600695307  |grad|_K:  1.135e-06  alpha:  3.050e-01  linmin:  1.058e-05  t[s]:   8442.30
	FillingsUpdate:  mu: +0.135577707  nElectrons: 348.000000  magneticMoment: [ Abs: 43.29047  Tot: +0.00000 ]
	SubspaceRotationAdjust: set factor to 0.428
ElecMinimize: Iter: 100  F: -2005.967322566964867  |grad|_K:  1.083e-06  alpha:  4.178e-01  linmin: -4.101e-07  t[s]:   8516.60
	FillingsUpdate:  mu: +0.135117441  nElectrons: 348.000000  magneticMoment: [ Abs: 43.28571  Tot: +0.00000 ]
	SubspaceRotationAdjust: set factor to 0.434
ElecMinimize: Iter: 101  F: -2005.967393719457277  |grad|_K:  1.066e-06  alpha:  3.476e-01  linmin: -2.183e-05  t[s]:   8592.75
	FillingsUpdate:  mu: +0.135847534  nElectrons: 348.000000  magneticMoment: [ Abs: 43.28643  Tot: -0.00000 ]
	SubspaceRotationAdjust: set factor to 0.383
ElecMinimize: Iter: 102  F: -2005.967450143849192  |grad|_K:  1.180e-06  alpha:  2.825e-01  linmin:  1.996e-05  t[s]:   8669.35
	FillingsUpdate:  mu: +0.135345193  nElectrons: 348.000000  magneticMoment: [ Abs: 43.29428  Tot: -0.00000 ]
	SubspaceRotationAdjust: set factor to 0.4
ElecMinimize: Iter: 103  F: -2005.967515913436728  |grad|_K:  9.141e-07  alpha:  2.712e-01  linmin: -3.356e-05  t[s]:   8745.66
	FillingsUpdate:  mu: +0.135518024  nElectrons: 348.000000  magneticMoment: [ Abs: 43.30508  Tot: -0.00000 ]
	SubspaceRotationAdjust: set factor to 0.503
ElecMinimize: Iter: 104  F: -2005.967574316950959  |grad|_K:  8.343e-07  alpha:  3.974e-01  linmin:  4.280e-07  t[s]:   8820.19
	FillingsUpdate:  mu: +0.136068227  nElectrons: 348.000000  magneticMoment: [ Abs: 43.31475  Tot: +0.00000 ]
	SubspaceRotationAdjust: set factor to 0.419
ElecMinimize: Iter: 105  F: -2005.967614362094764  |grad|_K:  8.913e-07  alpha:  3.286e-01  linmin:  1.132e-05  t[s]:   8897.18
	FillingsUpdate:  mu: +0.135558363  nElectrons: 348.000000  magneticMoment: [ Abs: 43.32443  Tot: -0.00000 ]
	SubspaceRotationAdjust: set factor to 0.349
ElecMinimize: Iter: 106  F: -2005.967641860835101  |grad|_K:  7.745e-07  alpha:  1.999e-01  linmin:  1.286e-05  t[s]:   8976.75
	FillingsUpdate:  mu: +0.135718748  nElectrons: 348.000000  magneticMoment: [ Abs: 43.33700  Tot: -0.00000 ]
	SubspaceRotationAdjust: set factor to 0.442
ElecMinimize: Iter: 107  F: -2005.967674850304775  |grad|_K:  6.691e-07  alpha:  3.152e-01  linmin:  9.369e-06  t[s]:   9053.16
	FillingsUpdate:  mu: +0.135912738  nElectrons: 348.000000  magneticMoment: [ Abs: 43.34854  Tot: +0.00000 ]
	SubspaceRotationAdjust: set factor to 0.452
ElecMinimize: Iter: 108  F: -2005.967703310129309  |grad|_K:  7.316e-07  alpha:  3.641e-01  linmin:  1.344e-05  t[s]:   9128.46
	FillingsUpdate:  mu: +0.135398347  nElectrons: 348.000000  magneticMoment: [ Abs: 43.35840  Tot: +0.00000 ]
	SubspaceRotationAdjust: set factor to 0.396
ElecMinimize: Iter: 109  F: -2005.967726356122739  |grad|_K:  7.974e-07  alpha:  2.476e-01  linmin: -1.673e-06  t[s]:   9202.56
	FillingsUpdate:  mu: +0.135706842  nElectrons: 348.000000  magneticMoment: [ Abs: 43.37045  Tot: +0.00000 ]
	SubspaceRotationAdjust: set factor to 0.457
ElecMinimize: Iter: 110  F: -2005.967760232857245  |grad|_K:  7.020e-07  alpha:  3.049e-01  linmin:  2.923e-05  t[s]:   9280.05
	FillingsUpdate:  mu: +0.135914745  nElectrons: 348.000000  magneticMoment: [ Abs: 43.38052  Tot: -0.00000 ]
	SubspaceRotationAdjust: set factor to 0.558
ElecMinimize: Iter: 111  F: -2005.967791950674609  |grad|_K:  7.489e-07  alpha:  3.698e-01  linmin:  7.483e-06  t[s]:   9357.55
	FillingsUpdate:  mu: +0.135526005  nElectrons: 348.000000  magneticMoment: [ Abs: 43.38809  Tot: +0.00000 ]
	SubspaceRotationAdjust: set factor to 0.415
ElecMinimize: Iter: 112  F: -2005.967818572606802  |grad|_K:  9.394e-07  alpha:  2.723e-01  linmin: -5.067e-06  t[s]:   9436.51
	FillingsUpdate:  mu: +0.135989985  nElectrons: 348.000000  magneticMoment: [ Abs: 43.39373  Tot: +0.00000 ]
	SubspaceRotationAdjust: set factor to 0.386
ElecMinimize: Iter: 113  F: -2005.967850987218071  |grad|_K:  7.896e-07  alpha:  2.088e-01  linmin:  1.981e-05  t[s]:   9516.35
	FillingsUpdate:  mu: +0.136038647  nElectrons: 348.000000  magneticMoment: [ Abs: 43.40014  Tot: +0.00000 ]
	SubspaceRotationAdjust: set factor to 0.484
ElecMinimize: Iter: 114  F: -2005.967902119916289  |grad|_K:  8.518e-07  alpha:  4.710e-01  linmin:  1.039e-05  t[s]:   9593.00
	FillingsUpdate:  mu: +0.135741810  nElectrons: 348.000000  magneticMoment: [ Abs: 43.40350  Tot: -0.00000 ]
	SubspaceRotationAdjust: set factor to 0.433
ElecMinimize: Iter: 115  F: -2005.967946147308339  |grad|_K:  9.924e-07  alpha:  3.478e-01  linmin: -1.670e-06  t[s]:   9669.99
	FillingsUpdate:  mu: +0.136281527  nElectrons: 348.000000  magneticMoment: [ Abs: 43.40229  Tot: +0.00000 ]
	SubspaceRotationAdjust: set factor to 0.348
ElecMinimize: Iter: 116  F: -2005.967978986830076  |grad|_K:  8.632e-07  alpha:  1.877e-01  linmin: -4.524e-05  t[s]:   9745.50
	FillingsUpdate:  mu: +0.136058723  nElectrons: 348.000000  magneticMoment: [ Abs: 43.39818  Tot: -0.00000 ]
	SubspaceRotationAdjust: set factor to 0.435
ElecMinimize: Iter: 117  F: -2005.968022510603760  |grad|_K:  7.658e-07  alpha:  3.320e-01  linmin:  8.547e-06  t[s]:   9825.82
	FillingsUpdate:  mu: +0.135811168  nElectrons: 348.000000  magneticMoment: [ Abs: 43.39227  Tot: +0.00000 ]
	SubspaceRotationAdjust: set factor to 0.488
ElecMinimize: Iter: 118  F: -2005.968059139672050  |grad|_K:  8.153e-07  alpha:  3.576e-01  linmin: -3.192e-06  t[s]:   9901.90
	FillingsUpdate:  mu: +0.136376027  nElectrons: 348.000000  magneticMoment: [ Abs: 43.38588  Tot: -0.00000 ]
	SubspaceRotationAdjust: set factor to 0.421
ElecMinimize: Iter: 119  F: -2005.968086510388957  |grad|_K:  8.662e-07  alpha:  2.341e-01  linmin: -1.381e-06  t[s]:   9979.77
	FillingsUpdate:  mu: +0.135998213  nElectrons: 348.000000  magneticMoment: [ Abs: 43.37900  Tot: -0.00000 ]
	SubspaceRotationAdjust: set factor to 0.445
ElecMinimize: Iter: 120  F: -2005.968119182886085  |grad|_K:  7.117e-07  alpha:  2.488e-01  linmin: -2.547e-05  t[s]:  10055.80
	FillingsUpdate:  mu: +0.136072683  nElectrons: 348.000000  magneticMoment: [ Abs: 43.37086  Tot: +0.00000 ]
	SubspaceRotationAdjust: set factor to 0.568
ElecMinimize: Iter: 121  F: -2005.968152162207161  |grad|_K:  6.607e-07  alpha:  3.707e-01  linmin:  8.635e-06  t[s]:  10135.07
	FillingsUpdate:  mu: +0.136423133  nElectrons: 348.000000  magneticMoment: [ Abs: 43.36327  Tot: -0.00000 ]
	SubspaceRotationAdjust: set factor to 0.488
ElecMinimize: Iter: 122  F: -2005.968180509214335  |grad|_K:  7.701e-07  alpha:  3.720e-01  linmin:  7.102e-06  t[s]:  10212.88
	FillingsUpdate:  mu: +0.135864861  nElectrons: 348.000000  magneticMoment: [ Abs: 43.35966  Tot: -0.00000 ]
	SubspaceRotationAdjust: set factor to 0.412
ElecMinimize: Iter: 123  F: -2005.968199335893587  |grad|_K:  7.736e-07  alpha:  1.877e-01  linmin:  8.844e-05  t[s]:  10287.26
	FillingsUpdate:  mu: +0.136127660  nElectrons: 348.000000  magneticMoment: [ Abs: 43.35438  Tot: +0.00000 ]
	SubspaceRotationAdjust: set factor to 0.515
ElecMinimize: Iter: 124  F: -2005.968230430691165  |grad|_K:  6.566e-07  alpha:  3.019e-01  linmin:  7.478e-06  t[s]:  10362.01
	FillingsUpdate:  mu: +0.136403326  nElectrons: 348.000000  magneticMoment: [ Abs: 43.35235  Tot: +0.00000 ]
	SubspaceRotationAdjust: set factor to 0.546
ElecMinimize: Iter: 125  F: -2005.968257691005647  |grad|_K:  7.435e-07  alpha:  3.621e-01  linmin:  3.076e-06  t[s]:  10438.95
	FillingsUpdate:  mu: +0.135765160  nElectrons: 348.000000  magneticMoment: [ Abs: 43.35343  Tot: -0.00000 ]
	SubspaceRotationAdjust: set factor to 0.474
ElecMinimize: Iter: 126  F: -2005.968278311848280  |grad|_K:  7.935e-07  alpha:  2.174e-01  linmin:  2.871e-05  t[s]:  10517.31
	FillingsUpdate:  mu: +0.136262653  nElectrons: 348.000000  magneticMoment: [ Abs: 43.35623  Tot: +0.00000 ]
	SubspaceRotationAdjust: set factor to 0.524
ElecMinimize: Iter: 127  F: -2005.968305887016186  |grad|_K:  6.562e-07  alpha:  2.516e-01  linmin:  3.644e-06  t[s]:  10595.02
	FillingsUpdate:  mu: +0.136438135  nElectrons: 348.000000  magneticMoment: [ Abs: 43.36191  Tot: +0.00000 ]
	SubspaceRotationAdjust: set factor to 0.644
ElecMinimize: Iter: 128  F: -2005.968333673450388  |grad|_K:  6.507e-07  alpha:  3.692e-01  linmin: -3.070e-06  t[s]:  10674.55
	FillingsUpdate:  mu: +0.135900477  nElectrons: 348.000000  magneticMoment: [ Abs: 43.36769  Tot: +0.00000 ]
	SubspaceRotationAdjust: set factor to 0.501
ElecMinimize: Iter: 129  F: -2005.968353029038099  |grad|_K:  7.514e-07  alpha:  2.625e-01  linmin: -6.820e-06  t[s]:  10751.56
	FillingsUpdate:  mu: +0.136476659  nElectrons: 348.000000  magneticMoment: [ Abs: 43.37252  Tot: +0.00000 ]
	SubspaceRotationAdjust: set factor to 0.422
ElecMinimize: Iter: 130  F: -2005.968369292928173  |grad|_K:  5.808e-07  alpha:  1.633e-01  linmin: -7.995e-06  t[s]:  10830.97
	FillingsUpdate:  mu: +0.136405787  nElectrons: 348.000000  magneticMoment: [ Abs: 43.38019  Tot: +0.00000 ]
	SubspaceRotationAdjust: set factor to 0.571
ElecMinimize: Iter: 131  F: -2005.968389588624404  |grad|_K:  4.970e-07  alpha:  3.435e-01  linmin: -1.300e-06  t[s]:  10908.87
	FillingsUpdate:  mu: +0.136067271  nElectrons: 348.000000  magneticMoment: [ Abs: 43.38582  Tot: -0.00000 ]
	SubspaceRotationAdjust: set factor to 0.468
ElecMinimize: Iter: 132  F: -2005.968402651335964  |grad|_K:  5.579e-07  alpha:  3.025e-01  linmin: -8.091e-06  t[s]:  10985.97
	FillingsUpdate:  mu: +0.136544451  nElectrons: 348.000000  magneticMoment: [ Abs: 43.38926  Tot: -0.00000 ]
	SubspaceRotationAdjust: set factor to 0.4
ElecMinimize: Iter: 133  F: -2005.968412447718265  |grad|_K:  4.753e-07  alpha:  1.776e-01  linmin: -2.425e-05  t[s]:  11055.53
	FillingsUpdate:  mu: +0.136467614  nElectrons: 348.000000  magneticMoment: [ Abs: 43.39374  Tot: -0.00000 ]
	SubspaceRotationAdjust: set factor to 0.535
ElecMinimize: Iter: 134  F: -2005.968425470827924  |grad|_K:  4.396e-07  alpha:  3.285e-01  linmin: -1.686e-06  t[s]:  11131.47
	FillingsUpdate:  mu: +0.136190447  nElectrons: 348.000000  magneticMoment: [ Abs: 43.39694  Tot: -0.00000 ]
	SubspaceRotationAdjust: set factor to 0.46
ElecMinimize: Iter: 135  F: -2005.968435999035364  |grad|_K:  4.994e-07  alpha:  3.115e-01  linmin: -2.953e-06  t[s]:  11211.03
	FillingsUpdate:  mu: +0.136620487  nElectrons: 348.000000  magneticMoment: [ Abs: 43.39863  Tot: +0.00000 ]
	SubspaceRotationAdjust: set factor to 0.401
ElecMinimize: Iter: 136  F: -2005.968444518693104  |grad|_K:  4.714e-07  alpha:  1.933e-01  linmin: -1.101e-05  t[s]:  11289.13
	FillingsUpdate:  mu: +0.136536904  nElectrons: 348.000000  magneticMoment: [ Abs: 43.40139  Tot: -0.00000 ]
	SubspaceRotationAdjust: set factor to 0.525
ElecMinimize: Iter: 137  F: -2005.968457389999685  |grad|_K:  4.623e-07  alpha:  3.306e-01  linmin:  1.923e-06  t[s]:  11367.08
	FillingsUpdate:  mu: +0.136192579  nElectrons: 348.000000  magneticMoment: [ Abs: 43.40344  Tot: -0.00000 ]
	SubspaceRotationAdjust: set factor to 0.439
ElecMinimize: Iter: 138  F: -2005.968469412410741  |grad|_K:  5.618e-07  alpha:  3.218e-01  linmin: -2.501e-06  t[s]:  11441.66
	FillingsUpdate:  mu: +0.136658308  nElectrons: 348.000000  magneticMoment: [ Abs: 43.40371  Tot: +0.00000 ]
	SubspaceRotationAdjust: set factor to 0.375
ElecMinimize: Iter: 139  F: -2005.968479482254907  |grad|_K:  4.908e-07  alpha:  1.806e-01  linmin: -1.768e-05  t[s]:  11517.81
	FillingsUpdate:  mu: +0.136682796  nElectrons: 348.000000  magneticMoment: [ Abs: 43.40320  Tot: -0.00000 ]
	SubspaceRotationAdjust: set factor to 0.5
ElecMinimize: Iter: 140  F: -2005.968494891521232  |grad|_K:  4.925e-07  alpha:  3.645e-01  linmin:  1.467e-06  t[s]:  11594.35
	FillingsUpdate:  mu: +0.136260253  nElectrons: 348.000000  magneticMoment: [ Abs: 43.40262  Tot: +0.00000 ]
	SubspaceRotationAdjust: set factor to 0.432
ElecMinimize: Iter: 141  F: -2005.968506330574201  |grad|_K:  5.572e-07  alpha:  2.705e-01  linmin: -7.924e-06  t[s]:  11671.14
	FillingsUpdate:  mu: +0.136701525  nElectrons: 348.000000  magneticMoment: [ Abs: 43.40102  Tot: +0.00000 ]
	SubspaceRotationAdjust: set factor to 0.405
ElecMinimize: Iter: 142  F: -2005.968518091828173  |grad|_K:  4.759e-07  alpha:  2.161e-01  linmin:  8.998e-06  t[s]:  11749.53
	FillingsUpdate:  mu: +0.136705112  nElectrons: 348.000000  magneticMoment: [ Abs: 43.39906  Tot: +0.00000 ]
	SubspaceRotationAdjust: set factor to 0.525
ElecMinimize: Iter: 143  F: -2005.968532689267704  |grad|_K:  4.600e-07  alpha:  3.693e-01  linmin:  5.605e-06  t[s]:  11828.97
	FillingsUpdate:  mu: +0.136274569  nElectrons: 348.000000  magneticMoment: [ Abs: 43.39739  Tot: -0.00000 ]
	SubspaceRotationAdjust: set factor to 0.458
ElecMinimize: Iter: 144  F: -2005.968543975768398  |grad|_K:  5.210e-07  alpha:  3.060e-01  linmin: -2.193e-05  t[s]:  11905.98
	FillingsUpdate:  mu: +0.136729202  nElectrons: 348.000000  magneticMoment: [ Abs: 43.39524  Tot: +0.00000 ]
	SubspaceRotationAdjust: set factor to 0.401
ElecMinimize: Iter: 145  F: -2005.968553353801781  |grad|_K:  4.543e-07  alpha:  1.964e-01  linmin: -8.247e-07  t[s]:  11985.86
	FillingsUpdate:  mu: +0.136576095  nElectrons: 348.000000  magneticMoment: [ Abs: 43.39299  Tot: -0.00000 ]
	SubspaceRotationAdjust: set factor to 0.524
ElecMinimize: Iter: 146  F: -2005.968565683769839  |grad|_K:  4.135e-07  alpha:  3.414e-01  linmin: -4.400e-06  t[s]:  12065.30
	FillingsUpdate:  mu: +0.136293002  nElectrons: 348.000000  magneticMoment: [ Abs: 43.39160  Tot: -0.00000 ]
	SubspaceRotationAdjust: set factor to 0.519
ElecMinimize: Iter: 147  F: -2005.968575765312835  |grad|_K:  4.539e-07  alpha:  3.368e-01  linmin: -1.738e-05  t[s]:  12143.74
	FillingsUpdate:  mu: +0.136797535  nElectrons: 348.000000  magneticMoment: [ Abs: 43.39029  Tot: -0.00000 ]
	SubspaceRotationAdjust: set factor to 0.457
ElecMinimize: Iter: 148  F: -2005.968583626764030  |grad|_K:  4.660e-07  alpha:  2.170e-01  linmin: -1.334e-06  t[s]:  12218.54
	FillingsUpdate:  mu: +0.136533826  nElectrons: 348.000000  magneticMoment: [ Abs: 43.38943  Tot: +0.00000 ]
	SubspaceRotationAdjust: set factor to 0.549
ElecMinimize: Iter: 149  F: -2005.968594438458922  |grad|_K:  4.062e-07  alpha:  2.842e-01  linmin: -1.952e-05  t[s]:  12297.42
	FillingsUpdate:  mu: +0.136355394  nElectrons: 348.000000  magneticMoment: [ Abs: 43.38926  Tot: +0.00000 ]
	SubspaceRotationAdjust: set factor to 0.659
ElecMinimize: Iter: 150  F: -2005.968605279580743  |grad|_K:  4.349e-07  alpha:  3.741e-01  linmin: -5.368e-06  t[s]:  12374.85
	FillingsUpdate:  mu: +0.136842280  nElectrons: 348.000000  magneticMoment: [ Abs: 43.38940  Tot: -0.00000 ]
	SubspaceRotationAdjust: set factor to 0.534
ElecMinimize: Iter: 151  F: -2005.968613278595285  |grad|_K:  5.233e-07  alpha:  2.409e-01  linmin: -2.369e-06  t[s]:  12450.36
	FillingsUpdate:  mu: +0.136406215  nElectrons: 348.000000  magneticMoment: [ Abs: 43.39069  Tot: -0.00000 ]
	SubspaceRotationAdjust: set factor to 0.523
ElecMinimize: Iter: 152  F: -2005.968623178122243  |grad|_K:  4.378e-07  alpha:  2.070e-01  linmin: -1.966e-05  t[s]:  12527.43
	FillingsUpdate:  mu: +0.136501323  nElectrons: 348.000000  magneticMoment: [ Abs: 43.39248  Tot: -0.00000 ]
	SubspaceRotationAdjust: set factor to 0.66
ElecMinimize: Iter: 153  F: -2005.968636196647594  |grad|_K:  4.260e-07  alpha:  3.873e-01  linmin:  8.133e-06  t[s]:  12607.87
	FillingsUpdate:  mu: +0.136876560  nElectrons: 348.000000  magneticMoment: [ Abs: 43.39418  Tot: +0.00000 ]
	SubspaceRotationAdjust: set factor to 0.621
ElecMinimize: Iter: 154  F: -2005.968646737792596  |grad|_K:  4.964e-07  alpha:  3.325e-01  linmin:  6.119e-06  t[s]:  12685.98
	FillingsUpdate:  mu: +0.136382912  nElectrons: 348.000000  magneticMoment: [ Abs: 43.39623  Tot: -0.00000 ]
	SubspaceRotationAdjust: set factor to 0.528
ElecMinimize: Iter: 155  F: -2005.968654282754642  |grad|_K:  4.740e-07  alpha:  1.773e-01  linmin:  2.326e-05  t[s]:  12765.07
	FillingsUpdate:  mu: +0.136666227  nElectrons: 348.000000  magneticMoment: [ Abs: 43.39880  Tot: -0.00000 ]
	SubspaceRotationAdjust: set factor to 0.641
ElecMinimize: Iter: 156  F: -2005.968664333149718  |grad|_K:  3.918e-07  alpha:  2.572e-01  linmin:  1.060e-05  t[s]:  12841.75
	FillingsUpdate:  mu: +0.136821145  nElectrons: 348.000000  magneticMoment: [ Abs: 43.40142  Tot: +0.00000 ]
	SubspaceRotationAdjust: set factor to 0.787
ElecMinimize: Iter: 157  F: -2005.968674188797650  |grad|_K:  4.057e-07  alpha:  3.680e-01  linmin:  3.777e-06  t[s]:  12920.70
	FillingsUpdate:  mu: +0.136408106  nElectrons: 348.000000  magneticMoment: [ Abs: 43.40313  Tot: -0.00000 ]
	SubspaceRotationAdjust: set factor to 0.579
ElecMinimize: Iter: 158  F: -2005.968680195844399  |grad|_K:  4.866e-07  alpha:  2.100e-01  linmin:  1.134e-05  t[s]:  12996.61
	FillingsUpdate:  mu: +0.136807628  nElectrons: 348.000000  magneticMoment: [ Abs: 43.40434  Tot: +0.00000 ]
	SubspaceRotationAdjust: set factor to 0.554
ElecMinimize: Iter: 159  F: -2005.968687102619924  |grad|_K:  3.649e-07  alpha:  1.667e-01  linmin:  1.259e-05  t[s]:  13073.91
	FillingsUpdate:  mu: +0.136765165  nElectrons: 348.000000  magneticMoment: [ Abs: 43.40587  Tot: +0.00000 ]
	SubspaceRotationAdjust: set factor to 0.728
ElecMinimize: Iter: 160  F: -2005.968695023714872  |grad|_K:  3.257e-07  alpha:  3.409e-01  linmin:  3.718e-08  t[s]:  13150.32
	FillingsUpdate:  mu: +0.136551148  nElectrons: 348.000000  magneticMoment: [ Abs: 43.40682  Tot: -0.00000 ]
	SubspaceRotationAdjust: set factor to 0.637
ElecMinimize: Iter: 161  F: -2005.968700822314077  |grad|_K:  3.689e-07  alpha:  3.127e-01  linmin: -3.156e-06  t[s]:  13231.55
	FillingsUpdate:  mu: +0.136905863  nElectrons: 348.000000  magneticMoment: [ Abs: 43.40682  Tot: -0.00000 ]
	SubspaceRotationAdjust: set factor to 0.536
ElecMinimize: Iter: 162  F: -2005.968704470771854  |grad|_K:  3.485e-07  alpha:  1.514e-01  linmin: -3.406e-05  t[s]:  13307.53
	FillingsUpdate:  mu: +0.136760055  nElectrons: 348.000000  magneticMoment: [ Abs: 43.40687  Tot: +0.00000 ]
	SubspaceRotationAdjust: set factor to 0.712
ElecMinimize: Iter: 163  F: -2005.968710095220558  |grad|_K:  2.863e-07  alpha:  2.630e-01  linmin: -2.305e-06  t[s]:  13382.83
	FillingsUpdate:  mu: +0.136564941  nElectrons: 348.000000  magneticMoment: [ Abs: 43.40652  Tot: +0.00000 ]
	SubspaceRotationAdjust: set factor to 0.622
ElecMinimize: Iter: 164  F: -2005.968714681872598  |grad|_K:  3.320e-07  alpha:  3.197e-01  linmin: -5.777e-06  t[s]:  13459.19
	FillingsUpdate:  mu: +0.136867803  nElectrons: 348.000000  magneticMoment: [ Abs: 43.40581  Tot: -0.00000 ]
	SubspaceRotationAdjust: set factor to 0.519
ElecMinimize: Iter: 165  F: -2005.968717399247453  |grad|_K:  2.983e-07  alpha:  1.393e-01  linmin: -4.052e-05  t[s]:  13539.25
	FillingsUpdate:  mu: +0.136773579  nElectrons: 348.000000  magneticMoment: [ Abs: 43.40468  Tot: -0.00000 ]
	SubspaceRotationAdjust: set factor to 0.742
ElecMinimize: Iter: 166  F: -2005.968721692284817  |grad|_K:  2.543e-07  alpha:  2.741e-01  linmin:  1.310e-06  t[s]:  13615.71
	FillingsUpdate:  mu: +0.136533097  nElectrons: 348.000000  magneticMoment: [ Abs: 43.40376  Tot: +0.00000 ]
	SubspaceRotationAdjust: set factor to 0.542
ElecMinimize: Iter: 167  F: -2005.968724713663505  |grad|_K:  3.220e-07  alpha:  2.672e-01  linmin: -1.419e-05  t[s]:  13692.94
	FillingsUpdate:  mu: +0.136806328  nElectrons: 348.000000  magneticMoment: [ Abs: 43.40261  Tot: -0.00000 ]
	SubspaceRotationAdjust: set factor to 0.493
ElecMinimize: Iter: 168  F: -2005.968727212572503  |grad|_K:  2.482e-07  alpha:  1.369e-01  linmin: -1.387e-05  t[s]:  13768.69
	FillingsUpdate:  mu: +0.136842272  nElectrons: 348.000000  magneticMoment: [ Abs: 43.40118  Tot: -0.00000 ]
	SubspaceRotationAdjust: set factor to 0.636
ElecMinimize: Iter: 169  F: -2005.968730801447919  |grad|_K:  2.528e-07  alpha:  3.325e-01  linmin:  4.329e-06  t[s]:  13848.39
	FillingsUpdate:  mu: +0.136561964  nElectrons: 348.000000  magneticMoment: [ Abs: 43.40047  Tot: -0.00000 ]
	SubspaceRotationAdjust: set factor to 0.543
ElecMinimize: Iter: 170  F: -2005.968733176634714  |grad|_K:  2.824e-07  alpha:  2.134e-01  linmin:  2.416e-06  t[s]:  13926.95
	FillingsUpdate:  mu: +0.136747467  nElectrons: 348.000000  magneticMoment: [ Abs: 43.39926  Tot: -0.00000 ]
	SubspaceRotationAdjust: set factor to 0.616
ElecMinimize: Iter: 171  F: -2005.968736171384535  |grad|_K:  2.320e-07  alpha:  2.147e-01  linmin:  5.498e-06  t[s]:  14001.45
	FillingsUpdate:  mu: +0.136793121  nElectrons: 348.000000  magneticMoment: [ Abs: 43.39816  Tot: +0.00000 ]
	SubspaceRotationAdjust: set factor to 0.78
ElecMinimize: Iter: 172  F: -2005.968739636215787  |grad|_K:  2.494e-07  alpha:  3.685e-01  linmin:  1.299e-06  t[s]:  14077.40
	FillingsUpdate:  mu: +0.136518917  nElectrons: 348.000000  magneticMoment: [ Abs: 43.39783  Tot: +0.00000 ]
	SubspaceRotationAdjust: set factor to 0.585
ElecMinimize: Iter: 173  F: -2005.968742082989593  |grad|_K:  3.126e-07  alpha:  2.259e-01  linmin:  5.085e-06  t[s]:  14152.79
	FillingsUpdate:  mu: +0.136770736  nElectrons: 348.000000  magneticMoment: [ Abs: 43.39733  Tot: -0.00000 ]
	SubspaceRotationAdjust: set factor to 0.557
ElecMinimize: Iter: 174  F: -2005.968744823050429  |grad|_K:  2.339e-07  alpha:  1.602e-01  linmin:  2.471e-06  t[s]:  14230.05
	FillingsUpdate:  mu: +0.136755364  nElectrons: 348.000000  magneticMoment: [ Abs: 43.39737  Tot: -0.00000 ]
	SubspaceRotationAdjust: set factor to 0.718
ElecMinimize: Iter: 175  F: -2005.968748270379365  |grad|_K:  2.248e-07  alpha:  3.603e-01  linmin: -3.450e-06  t[s]:  14306.76
	FillingsUpdate:  mu: +0.136566626  nElectrons: 348.000000  magneticMoment: [ Abs: 43.39792  Tot: -0.00000 ]
	SubspaceRotationAdjust: set factor to 0.601
ElecMinimize: Iter: 176  F: -2005.968750837007065  |grad|_K:  2.598e-07  alpha:  2.904e-01  linmin: -4.390e-06  t[s]:  14386.30
	FillingsUpdate:  mu: +0.136810991  nElectrons: 348.000000  magneticMoment: [ Abs: 43.39832  Tot: -0.00000 ]
	SubspaceRotationAdjust: set factor to 0.502
ElecMinimize: Iter: 177  F: -2005.968752583562491  |grad|_K:  2.250e-07  alpha:  1.469e-01  linmin: -1.828e-05  t[s]:  14461.99
	FillingsUpdate:  mu: +0.136738660  nElectrons: 348.000000  magneticMoment: [ Abs: 43.39964  Tot: -0.00000 ]
	SubspaceRotationAdjust: set factor to 0.672
ElecMinimize: Iter: 178  F: -2005.968755227787142  |grad|_K:  1.993e-07  alpha:  2.977e-01  linmin: -8.346e-07  t[s]:  14539.54
	FillingsUpdate:  mu: +0.136576031  nElectrons: 348.000000  magneticMoment: [ Abs: 43.40082  Tot: -0.00000 ]
	SubspaceRotationAdjust: set factor to 0.554
ElecMinimize: Iter: 179  F: -2005.968757282622619  |grad|_K:  2.315e-07  alpha:  2.956e-01  linmin: -5.407e-06  t[s]:  14615.69
	FillingsUpdate:  mu: +0.136793852  nElectrons: 348.000000  magneticMoment: [ Abs: 43.40135  Tot: -0.00000 ]
	SubspaceRotationAdjust: set factor to 0.479
ElecMinimize: Iter: 180  F: -2005.968758697013072  |grad|_K:  1.981e-07  alpha:  1.500e-01  linmin: -1.388e-05  t[s]:  14690.11
	FillingsUpdate:  mu: +0.136758123  nElectrons: 348.000000  magneticMoment: [ Abs: 43.40229  Tot: +0.00000 ]
	SubspaceRotationAdjust: set factor to 0.676
ElecMinimize: Iter: 181  F: -2005.968760802794577  |grad|_K:  1.804e-07  alpha:  3.060e-01  linmin: -1.061e-06  t[s]:  14765.90
	FillingsUpdate:  mu: +0.136577537  nElectrons: 348.000000  magneticMoment: [ Abs: 43.40310  Tot: -0.00000 ]
	SubspaceRotationAdjust: set factor to 0.512
ElecMinimize: Iter: 182  F: -2005.968762292934343  |grad|_K:  2.222e-07  alpha:  2.620e-01  linmin: -1.024e-05  t[s]:  14843.42
	FillingsUpdate:  mu: +0.136763592  nElectrons: 348.000000  magneticMoment: [ Abs: 43.40359  Tot: -0.00000 ]
	SubspaceRotationAdjust: set factor to 0.487
ElecMinimize: Iter: 183  F: -2005.968763715640762  |grad|_K:  1.775e-07  alpha:  1.642e-01  linmin: -2.844e-06  t[s]:  14920.21
	FillingsUpdate:  mu: +0.136776918  nElectrons: 348.000000  magneticMoment: [ Abs: 43.40414  Tot: -0.00000 ]
	SubspaceRotationAdjust: set factor to 0.656
ElecMinimize: Iter: 184  F: -2005.968765586737845  |grad|_K:  1.767e-07  alpha:  3.397e-01  linmin:  3.058e-06  t[s]:  14996.71
	FillingsUpdate:  mu: +0.136589805  nElectrons: 348.000000  magneticMoment: [ Abs: 43.40428  Tot: -0.00000 ]
	SubspaceRotationAdjust: set factor to 0.542
ElecMinimize: Iter: 185  F: -2005.968766899820139  |grad|_K:  2.064e-07  alpha:  2.412e-01  linmin: -4.031e-06  t[s]:  15074.23
[...]
ElecMinimize: Iter:  12  F: -2005.998378103174673  |grad|_K:  9.875e-08  alpha:  2.920e-01  linmin:  8.573e-08  t[s]:  76358.50
	FillingsUpdate:  mu: +0.138640758  nElectrons: 348.000000  magneticMoment: [ Abs: 42.29432  Tot: +0.00000 ]
	SubspaceRotationAdjust: set factor to 1.12
ElecMinimize: Iter:  13  F: -2005.998378676248421  |grad|_K:  7.148e-08  alpha:  3.360e-01  linmin:  7.298e-07  t[s]:  76437.41
	FillingsUpdate:  mu: +0.138696624  nElectrons: 348.000000  magneticMoment: [ Abs: 42.29432  Tot: +0.00000 ]
	SubspaceRotationAdjust: set factor to 1.11
ElecMinimize: Iter:  14  F: -2005.998378957063323  |grad|_K:  5.396e-08  alpha:  3.143e-01  linmin:  2.500e-06  t[s]:  76515.73
	FillingsUpdate:  mu: +0.138675724  nElectrons: 348.000000  magneticMoment: [ Abs: 42.29440  Tot: +0.00000 ]
	SubspaceRotationAdjust: set factor to 1.22
ElecMinimize: Iter:  15  F: -2005.998379120560003  |grad|_K:  4.024e-08  alpha:  3.210e-01  linmin: -1.387e-05  t[s]:  76592.21
	FillingsUpdate:  mu: +0.138658361  nElectrons: 348.000000  magneticMoment: [ Abs: 42.29436  Tot: +0.00000 ]
	SubspaceRotationAdjust: set factor to 1.36
ElecMinimize: Iter:  16  F: -2005.998379218217451  |grad|_K:  3.205e-08  alpha:  3.444e-01  linmin: -2.076e-07  t[s]:  76669.31
ElecMinimize: Converged (|Delta F|<1.000000e-06 for 5 iters).
Setting wave functions to eigenvectors of Hamiltonian

# Ionic positions in lattice coordinates:
ion Ni   0.001416494697611   0.005314911622045   0.153348604491037 1
ion Ni  -0.248810719833193   0.244845135287987   0.051111420555901 1
ion Ni  -0.250797566216919   0.757466427726677   0.050564697420382 1
ion V   0.508921144662447   0.002846048196738   0.153346217978559 1
ion V  -0.006868704031689   0.503466285273974   0.149684710313421 1
ion V   0.000000000000000   0.000000000000000  -0.050000000000000 0
ion V   0.500000000000000   0.500000000000000  -0.050000000000000 0
ion V   0.250000000000000   0.750000000000000  -0.150000000000000 0
ion V  -0.250000000000000   0.250000000000000  -0.150000000000000 0
ion Co   0.505248228509689   0.496702928587901   0.146052504210818 1
ion Co   0.244764590273113   0.250450078683405   0.050865129364417 1
ion Co   0.500000000000000   0.000000000000000  -0.050000000000000 0
ion Co   0.000000000000000   0.500000000000000  -0.050000000000000 0
ion Co  -0.250000000000000   0.750000000000000  -0.150000000000000 0
ion Cr   0.248661699994298   0.755971819849395   0.051667945015934 1
ion Cr   0.250000000000000   0.250000000000000  -0.150000000000000 0
ion O   0.242487630527755   0.268040235636885   0.150457608084208 1
ion O   0.245233650791952   0.736661343842785   0.145445554908417 1
ion O  -0.238997189253784   0.267257123948238   0.149695818345234 1
ion O  -0.241694375686723   0.736929495434078   0.146083083486822 1
ion O   0.009775976808139  -0.013503458034012   0.054571227477820 1
ion O   0.486931067834867  -0.011891307947781   0.052443816667922 1
ion O   0.010434609679449   0.522964109449692   0.053523003790948 1
ion O   0.489467742362348   0.527526254262767   0.049269850383089 1
ion O   0.250000000000000   0.250000000000000  -0.050000000000000 0
ion O   0.250000000000000   0.750000000000000  -0.050000000000000 0
ion O  -0.250000000000000   0.250000000000000  -0.050000000000000 0
ion O  -0.250000000000000   0.750000000000000  -0.050000000000000 0
ion O   0.000000000000000   0.000000000000000  -0.150000000000000 0
ion O   0.500000000000000   0.000000000000000  -0.150000000000000 0
ion O   0.000000000000000   0.500000000000000  -0.150000000000000 0
ion O   0.500000000000000   0.500000000000000  -0.150000000000000 0
ion O  -0.012675810514275  -0.028286179504218   0.241445419625487 1
ion H   0.071241938610568   0.086878254640575   0.261446664384906 1

# Forces in Lattice coordinates:
force Ni  -0.001707506656197   0.001714645745603   0.036002355878410 1
force Ni  -0.002003374153336  -0.001983740788192   0.012452846248013 1
force Ni  -0.001243119598428  -0.007137388737577   0.028760012851571 1
force V   0.000512208291783   0.005931329713576   0.030222818789595 1
force V   0.000030827770042   0.003938429762365   0.005328125769558 1
force V  -0.121005634860274   0.032070591934724   0.643885395181524 0
force V   0.047178957921987  -0.021163640184700   0.323632716377335 0
force V   0.029733066590321  -0.028005844939579  -0.459791851516659 0
force V   0.021171903838774  -0.018041284190090  -0.376229417129345 0
force Co   0.000716700602692  -0.006928576762961   0.002265049684716 1
force Co  -0.005962589707570  -0.001721391393684   0.000723163186676 1
force Co   0.068912812350146   0.038108433258841   0.279534974772308 0
force Co  -0.088118044915042  -0.034847875141090   0.282440045730648 0
force Co   0.029623125211884  -0.003066890222461  -0.068470558033027 0
force Cr   0.000576281755314   0.001056453073937  -0.003540719679400 1
force Cr   0.022101673907976   0.015765580701804  -1.382032915690082 0
force O   0.002520403840781   0.001830134502147  -0.020017835118201 1
force O   0.001880323039087   0.002346589296067  -0.018408801960952 1
force O  -0.002947402681689   0.005310041750711   0.011648542390414 1
force O  -0.001675813339717   0.002050966428208  -0.004767507823408 1
force O   0.001304395939561   0.003502626792211  -0.011526956976908 1
force O   0.004463944945770   0.008643718197397  -0.002020407351022 1
force O  -0.000472914394698   0.002655840812494   0.028274851719291 1
force O  -0.001232600732060   0.001716014127996  -0.017534931608045 1
force O  -0.004812433259083  -0.014013016288866   1.053451511795882 0
force O  -0.018560020030934   0.014400383849802   0.403460448740507 0
force O  -0.003367576226489   0.021689961209410  -0.015270095538785 0
force O  -0.010648357934520   0.010832208452939   0.125285812161249 0
force O   0.050402404231855  -0.005696740872441  -0.232841705520579 0
force O  -0.022645839303150   0.003630613275410  -0.086256028261946 0
force O   0.017844106800813   0.015732883940402  -0.164589618924238 0
force O  -0.004743988202764  -0.013643079962043  -0.307758171362540 0
force O   0.003541656196685   0.003812621080341  -0.019217671761411 1
force H  -0.011694011057383  -0.007411594124897  -0.001579112419350 1

# Energy components:
   Eewald =     5662.0709370792319532
       EH =     7472.2700092964523719
     Eloc =   -15295.8756957395507925
      Enl =     -526.0872518290135531
   Epulay =       -0.0004805379600646
      Exc =     -246.5857704992537833
       KE =      927.1772494831631093
        U =        1.0326312941869051
-------------------------------------
     Etot =    -2005.9983714527443226
       TS =        0.0000077654731808
-------------------------------------
        F =    -2005.9983792182174511

IonicMinimize: Iter:  18  F: -2005.998379218217451  |grad|_K:  3.863e-04  alpha:  1.000e+00  linmin: -1.122e-02  t[s]:  76680.92

#--- Lowdin population analysis ---
# oxidation-state Ni +3.705 +3.243 +3.495
# magnetic-moments Ni +1.005 -0.731 -0.919
# oxidation-state V +1.128 +1.353 +0.948 +0.958 +1.050 +1.036
# magnetic-moments V -2.970 +2.080 -2.888 +2.866 -2.933 +2.917
# oxidation-state Co +1.224 +1.191 +1.201 +1.196 +1.221
# magnetic-moments Co -2.636 +2.627 +2.644 -2.635 +2.668
# oxidation-state Cr +2.897 +2.906
# magnetic-moments Cr +3.125 -3.851
# oxidation-state O -0.935 -0.829 -0.853 -0.826 -0.795 -0.850 -0.822 -0.845 -1.004 -0.939 -0.930 -0.947 -0.955 -0.985 -0.986 -0.959 -0.791
# magnetic-moments O +0.078 -0.034 -0.037 -0.135 -0.050 -0.071 -0.143 -0.198 -0.007 -0.011 -0.049 -0.019 +0.077 +0.113 +0.012 +0.052 +0.222
# oxidation-state H +0.365
# magnetic-moments H -0.004


-------- Electronic minimization -----------
	FillingsUpdate:  mu: +0.165320388  nElectrons: 348.000000  magneticMoment: [ Abs: 42.29445  Tot: -0.00000 ]
ElecMinimize: Iter:   0  F: -2005.687377762743381  |grad|_K:  9.143e-05  alpha:  1.000e+00
	FillingsUpdate:  mu: +0.147802852  nElectrons: 348.000000  magneticMoment: [ Abs: 42.28265  Tot: -0.00000 ]
	SubspaceRotationAdjust: set factor to 1.49
ElecMinimize: Iter:   1  F: -2005.855921361083347  |grad|_K:  5.873e-05  alpha:  7.058e-02  linmin: -1.238e-02  t[s]:  76780.96
	FillingsUpdate:  mu: +0.132107951  nElectrons: 348.000000  magneticMoment: [ Abs: 42.24418  Tot: -0.00000 ]
	SubspaceRotationAdjust: set factor to 1.39
ElecMinimize: Iter:   2  F: -2005.976258841107438  |grad|_K:  2.446e-05  alpha:  1.229e-01  linmin:  1.128e-03  t[s]:  76856.72
	FillingsUpdate:  mu: +0.135597572  nElectrons: 348.000000  magneticMoment: [ Abs: 42.30385  Tot: -0.00000 ]
	SubspaceRotationAdjust: set factor to 1.64
ElecMinimize: Iter:   3  F: -2005.987952483196068  |grad|_K:  1.361e-05  alpha:  1.182e-01  linmin: -1.747e-03  t[s]:  76933.56
	FillingsUpdate:  mu: +0.141592753  nElectrons: 348.000000  magneticMoment: [ Abs: 42.30418  Tot: +0.00000 ]
	SubspaceRotationAdjust: set factor to 1.62
ElecMinimize: Iter:   4  F: -2005.994806859651135  |grad|_K:  7.317e-06  alpha:  1.805e-01  linmin: -1.837e-05  t[s]:  77012.07
	FillingsUpdate:  mu: +0.138511520  nElectrons: 348.000000  magneticMoment: [ Abs: 42.28421  Tot: +0.00000 ]
	SubspaceRotationAdjust: set factor to 1.37
ElecMinimize: Iter:   5  F: -2005.996815785217450  |grad|_K:  4.936e-06  alpha:  2.146e-01  linmin:  6.094e-05  t[s]:  77088.59
	FillingsUpdate:  mu: +0.137470223  nElectrons: 348.000000  magneticMoment: [ Abs: 42.29325  Tot: +0.00000 ]
	SubspaceRotationAdjust: set factor to 1.67
ElecMinimize: Iter:   6  F: -2005.997751449407360  |grad|_K:  2.844e-06  alpha:  2.209e-01  linmin: -1.443e-05  t[s]:  77166.36
	FillingsUpdate:  mu: +0.140056963  nElectrons: 348.000000  magneticMoment: [ Abs: 42.29881  Tot: +0.00000 ]
	SubspaceRotationAdjust: set factor to 1.42
ElecMinimize: Iter:   7  F: -2005.998070057788482  |grad|_K:  2.002e-06  alpha:  2.250e-01  linmin: -1.070e-05  t[s]:  77244.82
	FillingsUpdate:  mu: +0.139390440  nElectrons: 348.000000  magneticMoment: [ Abs: 42.29899  Tot: +0.00000 ]
	SubspaceRotationAdjust: set factor to 1.54
ElecMinimize: Iter:   8  F: -2005.998248169187946  |grad|_K:  1.358e-06  alpha:  2.538e-01  linmin:  2.499e-06  t[s]:  77322.10
	FillingsUpdate:  mu: +0.138353239  nElectrons: 348.000000  magneticMoment: [ Abs: 42.29770  Tot: +0.00000 ]
	SubspaceRotationAdjust: set factor to 1.53
ElecMinimize: Iter:   9  F: -2005.998337145374762  |grad|_K:  9.825e-07  alpha:  2.758e-01  linmin:  1.367e-06  t[s]:  77401.41
	FillingsUpdate:  mu: +0.139101491  nElectrons: 348.000000  magneticMoment: [ Abs: 42.29801  Tot: +0.00000 ]
	SubspaceRotationAdjust: set factor to 1.35
ElecMinimize: Iter:  10  F: -2005.998377591968392  |grad|_K:  7.167e-07  alpha:  2.396e-01  linmin: -9.561e-07  t[s]:  77479.45
	FillingsUpdate:  mu: +0.139115637  nElectrons: 348.000000  magneticMoment: [ Abs: 42.29984  Tot: -0.00000 ]
	SubspaceRotationAdjust: set factor to 1.46
ElecMinimize: Iter:  11  F: -2005.998402162603725  |grad|_K:  4.642e-07  alpha:  2.735e-01  linmin: -1.872e-06  t[s]:  77553.78
	FillingsUpdate:  mu: +0.138857690  nElectrons: 348.000000  magneticMoment: [ Abs: 42.29922  Tot: +0.00000 ]
	SubspaceRotationAdjust: set factor to 1.36
ElecMinimize: Iter:  12  F: -2005.998411599727433  |grad|_K:  3.427e-07  alpha:  2.504e-01  linmin:  1.186e-06  t[s]:  77629.45
	FillingsUpdate:  mu: +0.138975977  nElectrons: 348.000000  magneticMoment: [ Abs: 42.29905  Tot: +0.00000 ]
	SubspaceRotationAdjust: set factor to 1.37
ElecMinimize: Iter:  13  F: -2005.998417451113028  |grad|_K:  2.406e-07  alpha:  2.850e-01  linmin:  5.958e-07  t[s]:  77705.04
	FillingsUpdate:  mu: +0.138997631  nElectrons: 348.000000  magneticMoment: [ Abs: 42.29978  Tot: -0.00000 ]
	SubspaceRotationAdjust: set factor to 1.4
ElecMinimize: Iter:  14  F: -2005.998420112785652  |grad|_K:  1.774e-07  alpha:  2.629e-01  linmin:  4.975e-07  t[s]:  77782.84
	FillingsUpdate:  mu: +0.138947316  nElectrons: 348.000000  magneticMoment: [ Abs: 42.29972  Tot: -0.00000 ]
	SubspaceRotationAdjust: set factor to 1.33
ElecMinimize: Iter:  15  F: -2005.998421650451291  |grad|_K:  1.275e-07  alpha:  2.795e-01  linmin:  1.351e-06  t[s]:  77861.32
	FillingsUpdate:  mu: +0.138962169  nElectrons: 348.000000  magneticMoment: [ Abs: 42.29968  Tot: +0.00000 ]
	SubspaceRotationAdjust: set factor to 1.4
ElecMinimize: Iter:  16  F: -2005.998422403441282  |grad|_K:  9.116e-08  alpha:  2.650e-01  linmin:  3.442e-06  t[s]:  77935.41
	FillingsUpdate:  mu: +0.138972401  nElectrons: 348.000000  magneticMoment: [ Abs: 42.29979  Tot: -0.00000 ]
	SubspaceRotationAdjust: set factor to 1.43
ElecMinimize: Iter:  17  F: -2005.998422836114969  |grad|_K:  7.132e-08  alpha:  2.979e-01  linmin:  7.321e-06  t[s]:  78008.29
	FillingsUpdate:  mu: +0.138955111  nElectrons: 348.000000  magneticMoment: [ Abs: 42.29971  Tot: +0.00000 ]
	SubspaceRotationAdjust: set factor to 1.44
ElecMinimize: Iter:  18  F: -2005.998423079251324  |grad|_K:  5.497e-08  alpha:  2.735e-01  linmin:  2.679e-06  t[s]:  78083.64
	FillingsUpdate:  mu: +0.138949946  nElectrons: 348.000000  magneticMoment: [ Abs: 42.29979  Tot: +0.00000 ]
	SubspaceRotationAdjust: set factor to 1.67
ElecMinimize: Iter:  19  F: -2005.998423241143428  |grad|_K:  4.296e-08  alpha:  3.062e-01  linmin: -5.373e-06  t[s]:  78160.59
	FillingsUpdate:  mu: +0.138970432  nElectrons: 348.000000  magneticMoment: [ Abs: 42.29981  Tot: +0.00000 ]
	SubspaceRotationAdjust: set factor to 1.7
ElecMinimize: Iter:  20  F: -2005.998423339930923  |grad|_K:  3.775e-08  alpha:  3.061e-01  linmin: -1.210e-05  t[s]:  78238.16
ElecMinimize: Converged (|Delta F|<1.000000e-06 for 5 iters).
Setting wave functions to eigenvectors of Hamiltonian

# Ionic positions in lattice coordinates:
ion Ni   0.001239122037646   0.006137082673862   0.153595019616850 1
ion Ni  -0.248946076272808   0.245749716485800   0.051355929497821 1
ion Ni  -0.250542899399567   0.757427752427947   0.050753930844064 1
ion V   0.509236776322528   0.004282451079114   0.153635302391267 1
ion V  -0.006665609227490   0.505020201684324   0.149920830307041 1
ion V   0.000000000000000   0.000000000000000  -0.050000000000000 0
ion V   0.500000000000000   0.500000000000000  -0.050000000000000 0
ion V   0.250000000000000   0.750000000000000  -0.150000000000000 0
ion V  -0.250000000000000   0.250000000000000  -0.150000000000000 0
ion Co   0.505440631582483   0.497221400580218   0.146265959422845 1
ion Co   0.245019180339475   0.250704640025004   0.051076063175694 1
ion Co   0.500000000000000   0.000000000000000  -0.050000000000000 0
ion Co   0.000000000000000   0.500000000000000  -0.050000000000000 0
ion Co  -0.250000000000000   0.750000000000000  -0.150000000000000 0
ion Cr   0.248986820627372   0.756922376206546   0.051807891308483 1
ion Cr   0.250000000000000   0.250000000000000  -0.150000000000000 0
ion O   0.242613413889209   0.269661490585439   0.150723194700622 1
ion O   0.245227662795124   0.738166115576960   0.145466871609037 1
ion O  -0.238329367914832   0.268527293281758   0.149897692560405 1
ion O  -0.241613658662733   0.737937854074367   0.145919692842425 1
ion O   0.010012602974324  -0.012830561450874   0.054650906322024 1
ion O   0.487419025985495  -0.011318027281145   0.052732677078336 1
ion O   0.010797374060541   0.523326250150391   0.053576776605690 1
ion O   0.489475659874455   0.527591806798497   0.049398409196190 1
ion O   0.250000000000000   0.250000000000000  -0.050000000000000 0
ion O   0.250000000000000   0.750000000000000  -0.050000000000000 0
ion O  -0.250000000000000   0.250000000000000  -0.050000000000000 0
ion O  -0.250000000000000   0.750000000000000  -0.050000000000000 0
ion O   0.000000000000000   0.000000000000000  -0.150000000000000 0
ion O   0.500000000000000   0.000000000000000  -0.150000000000000 0
ion O   0.000000000000000   0.500000000000000  -0.150000000000000 0
ion O   0.500000000000000   0.500000000000000  -0.150000000000000 0
ion O  -0.013338237416834  -0.033009354027813   0.241552846427194 1
ion H   0.064008724670679   0.084051759577387   0.262547656852782 1

# Forces in Lattice coordinates:
force Ni   0.000278790098997   0.004662638970223   0.004666775529844 1
force Ni  -0.001968273934758   0.000626978094665  -0.030718842517790 1
force Ni  -0.001088335873436   0.001344326965080  -0.036685318704605 1
force V  -0.002996985049188  -0.004316755116219   0.006689053643956 1
force V   0.005483003501837   0.002271969153995  -0.042723941067881 1
force V  -0.121650860327140   0.032887898106038   0.650845002108783 0
force V   0.046227405980995  -0.019888256975468   0.334611839166103 0
force V   0.030014865550291  -0.027983115506231  -0.454760197204434 0
force V   0.020936182673330  -0.017918606784310  -0.370663808168273 0
force Co  -0.001871979280915   0.010773286201368  -0.015609884673637 1
force Co  -0.003137297404048   0.001444132659219  -0.023253343067054 1
force Co   0.069536042433039   0.038343909057552   0.283648488366729 0
force Co  -0.087338836300324  -0.033939463218368   0.283051873049876 0
force Co   0.028900351511462  -0.002988599335098  -0.053229038038856 0
force Cr  -0.001700638422992  -0.010859495755862  -0.041769008211126 1
force Cr   0.022387087790934   0.015692283626800  -1.375028762749483 0
force O   0.001571110140237  -0.004242944506860  -0.020090080725943 1
force O   0.005152788302135  -0.001364506635733  -0.003243941219001 1
force O  -0.004914518307058   0.000953120086441   0.024905875942939 1
force O  -0.005151649592633  -0.000257019654125   0.030183475387735 1
force O  -0.000682072857091   0.005409562822412  -0.006389247771493 1
force O   0.003261414676504   0.006129267974818  -0.001314200861481 1
force O  -0.000134286462247   0.002976577207760   0.048580816347780 1
force O  -0.001743696131776   0.005147996124501  -0.019539655587865 1
force O  -0.004066201096183  -0.014534214800727   1.059450801696309 0
force O  -0.016935242028946   0.016124284931889   0.410878475836256 0
force O  -0.003654157264041   0.021231367548570  -0.008466318682329 0
force O  -0.010988709244913   0.011755571043903   0.134426641497067 0
force O   0.050431676685027  -0.005900520221465  -0.232667665583831 0
force O  -0.022749024534035   0.003600993407733  -0.086632775161304 0
force O   0.017929196932610   0.015711280671812  -0.164772300627465 0
force O  -0.004785768589214  -0.013708285598601  -0.305925842600064 0
force O  -0.003852296259313  -0.002348244854442  -0.076903948254488 1
force H   0.000984504791309   0.008981712666746   0.028491763416050 1

# Energy components:
   Eewald =     5655.2295000368640103
       EH =     7465.5639565594874512
     Eloc =   -15282.3237511980878480
      Enl =     -526.0867469620329757
   Epulay =       -0.0004805379600646
      Exc =     -246.5828286080180192
       KE =      927.1693812204151754
        U =        1.0325546860060453
-------------------------------------
     Etot =    -2005.9984148033261135
       TS =        0.0000085366048463
-------------------------------------
        F =    -2005.9984233399309232

IonicMinimize: Iter:  19  F: -2005.998423339930923  |grad|_K:  5.438e-04  alpha:  8.224e-01  linmin:  6.162e-03  t[s]:  78249.64
IonicMinimize: Converged (|Delta F|<1.000000e-04 for 3 iters).

#--- Lowdin population analysis ---
# oxidation-state Ni +3.707 +3.245 +3.497
# magnetic-moments Ni +1.005 -0.732 -0.920
# oxidation-state V +1.128 +1.353 +0.949 +0.959 +1.050 +1.036
# magnetic-moments V -2.971 +2.080 -2.888 +2.866 -2.933 +2.917
# oxidation-state Co +1.224 +1.191 +1.201 +1.197 +1.221
# magnetic-moments Co -2.637 +2.627 +2.643 -2.635 +2.668
# oxidation-state Cr +2.899 +2.906
# magnetic-moments Cr +3.125 -3.851
# oxidation-state O -0.936 -0.828 -0.854 -0.825 -0.796 -0.849 -0.822 -0.845 -1.004 -0.940 -0.931 -0.948 -0.955 -0.985 -0.986 -0.959 -0.793
# magnetic-moments O +0.077 -0.033 -0.037 -0.134 -0.049 -0.071 -0.144 -0.199 -0.007 -0.011 -0.048 -0.018 +0.077 +0.114 +0.012 +0.052 +0.221
# oxidation-state H +0.367
# magnetic-moments H -0.004


Dumping 'run.ionpos' ... done
Dumping 'run.lattice' ... done
Dumping 'run.Ecomponents' ... done
End date and time: Sat May 17 19:02:21 2025  (Duration: 0-21:44:12.76)
Done!
