/var/spool/slurmd/job44155/slurm_script: line 9: module: command not found
/var/spool/slurmd/job44155/slurm_script: line 10: module: command not found

*************** JDFTx 1.7.0  ***************

Start date and time: Sat May 10 05:59:07 2025
Executable /data2/jt577/jdftx_eat_withLibXC/build/jdftx with command-line: -i /data2/jt577/May_2025/Relax_Mag/rel18+1_6/OH/runs/calc_/run.in
Running on hosts (process indices):  node3403 (0-8)
Divided in process groups (process indices):  0 (0)  1 (1)  2 (2)  3 (3)  4 (4)  5 (5)  6 (6)  7 (7)  8 (8)
Resource initialization completed at t[s]:      0.00
Run totals: 9 processes, 90 threads, 0 GPUs


Input parsed successfully to the following command list (including defaults):

add-mix 
add-U 	Ni d 0.22 \
	V d 0.12 \
	Co d 0.2 \
	Cr d 0.16
basis kpoint-dependent
coords-type Lattice
core-overlap-check vector
coulomb-interaction Periodic
davidson-band-ratio 1.1
dump End IonicPositions Lattice Ecomponents
dump-name run.$VAR
elec-cutoff 30
elec-eigen-algo Davidson
elec-ex-corr gga-x-rpbe gga-c-pbe
elec-smearing Fermi 0.001
electronic-minimize  \
	dirUpdateScheme      FletcherReeves \
	linminMethod         DirUpdateRecommended \
	nIterations          1000 \
	history              15 \
	knormThreshold       0 \
	energyDiffThreshold  1e-06 \
	nEnergyDiff          5 \
	alphaTstart          1 \
	alphaTmin            1e-10 \
	updateTestStepSize   yes \
	alphaTreduceFactor   0.1 \
	alphaTincreaseFactor 3 \
	nAlphaAdjustMax      3 \
	wolfeEnergy          0.0001 \
	wolfeGradient        0.9 \
	fdTest               no
exchange-regularization WignerSeitzTruncated
fluid None
fluid-ex-corr (null) lda-PZ
fluid-gummel-loop 10 1.000000e-05
fluid-minimize  \
	dirUpdateScheme      PolakRibiere \
	linminMethod         DirUpdateRecommended \
	nIterations          100 \
	history              15 \
	knormThreshold       0 \
	energyDiffThreshold  0 \
	nEnergyDiff          2 \
	alphaTstart          1 \
	alphaTmin            1e-10 \
	updateTestStepSize   yes \
	alphaTreduceFactor   0.1 \
	alphaTincreaseFactor 3 \
	nAlphaAdjustMax      3 \
	wolfeEnergy          0.0001 \
	wolfeGradient        0.9 \
	fdTest               no
fluid-solvent H2O 55.338 ScalarEOS \
	epsBulk 78.4 \
	pMol 0.92466 \
	epsInf 1.77 \
	Pvap 1.06736e-10 \
	sigmaBulk 4.62e-05 \
	Rvdw 2.61727 \
	Res 1.42 \
	tauNuc 343133 \
	poleEl 15 7 1
forces-output-coords Positions
initial-magnetic-moments  \
	Ni 1 -1 -1 \
	V -1 1 -1 1 -1 1 \
	Co -1 1 1 -1 1 \
	Cr 1 -1
initial-state run.$VAR
ion Ni  0.000000000000000   0.000000000000000   0.150000000000000 1
ion Ni -0.250000000000000   0.250000000000000   0.050000000000000 1
ion Ni -0.250000000000000   0.750000000000000   0.050000000000000 1
ion V  0.500000000000000   0.000000000000000   0.150000000000000 1
ion V  0.000000000000000   0.500000000000000   0.150000000000000 1
ion V  0.000000000000000   0.000000000000000  -0.050000000000000 0
ion V  0.500000000000000   0.500000000000000  -0.050000000000000 0
ion V  0.250000000000000   0.750000000000000  -0.150000000000000 0
ion V -0.250000000000000   0.250000000000000  -0.150000000000000 0
ion Co  0.500000000000000   0.500000000000000   0.150000000000000 1
ion Co  0.250000000000000   0.250000000000000   0.050000000000000 1
ion Co  0.500000000000000   0.000000000000000  -0.050000000000000 0
ion Co  0.000000000000000   0.500000000000000  -0.050000000000000 0
ion Co -0.250000000000000   0.750000000000000  -0.150000000000000 0
ion Cr  0.250000000000000   0.750000000000000   0.050000000000000 1
ion Cr  0.250000000000000   0.250000000000000  -0.150000000000000 0
ion O  0.250000000000000   0.250000000000000   0.150000000000000 1
ion O  0.250000000000000   0.750000000000000   0.150000000000000 1
ion O -0.250000000000000   0.250000000000000   0.150000000000000 1
ion O -0.250000000000000   0.750000000000000   0.150000000000000 1
ion O  0.000000000000000   0.000000000000000   0.050000000000000 1
ion O  0.500000000000000   0.000000000000000   0.050000000000000 1
ion O  0.000000000000000   0.500000000000000   0.050000000000000 1
ion O  0.500000000000000   0.500000000000000   0.050000000000000 1
ion O  0.250000000000000   0.250000000000000  -0.050000000000000 0
ion O  0.250000000000000   0.750000000000000  -0.050000000000000 0
ion O -0.250000000000000   0.250000000000000  -0.050000000000000 0
ion O -0.250000000000000   0.750000000000000  -0.050000000000000 0
ion O  0.000000000000000   0.000000000000000  -0.150000000000000 0
ion O  0.500000000000000   0.000000000000000  -0.150000000000000 0
ion O  0.000000000000000   0.500000000000000  -0.150000000000000 0
ion O  0.500000000000000   0.500000000000000  -0.150000000000000 0
ion O -0.008040138212305  -0.008269777577920   0.235000196603227 1
ion H  0.095742872057713   0.094897636790041   0.252810710255288 1
ion-species SG15/$ID_ONCV_PBE.upf
ion-width 0
ionic-minimize  \
	dirUpdateScheme      L-BFGS \
	linminMethod         DirUpdateRecommended \
	nIterations          1000 \
	history              15 \
	knormThreshold       0.0001 \
	energyDiffThreshold  0.0001 \
	nEnergyDiff          3 \
	alphaTstart          1 \
	alphaTmin            1e-10 \
	updateTestStepSize   yes \
	alphaTreduceFactor   0.1 \
	alphaTincreaseFactor 3 \
	nAlphaAdjustMax      3 \
	wolfeEnergy          0.0001 \
	wolfeGradient        0.9 \
	fdTest               no
kpoint   0.500000000000   0.500000000000   0.500000000000  1.00000000000000
kpoint-folding 3 3 1 
latt-move-scale 1 1 1
latt-scale 1 1 1 
lattice  \
	   8.140000000000001    8.140000000000001    0.000000000000000  \
	   8.140000000000001   -8.140000000000001    0.000000000000000  \
	   0.000000000000000    0.000000000000000   40.700000000000003 
lattice-minimize  \
	dirUpdateScheme      L-BFGS \
	linminMethod         DirUpdateRecommended \
	nIterations          0 \
	history              15 \
	knormThreshold       0 \
	energyDiffThreshold  1e-06 \
	nEnergyDiff          2 \
	alphaTstart          1 \
	alphaTmin            1e-10 \
	updateTestStepSize   yes \
	alphaTreduceFactor   0.1 \
	alphaTincreaseFactor 3 \
	nAlphaAdjustMax      3 \
	wolfeEnergy          0.0001 \
	wolfeGradient        0.9 \
	fdTest               no
lcao-params -1 1e-06 0.001
pcm-variant GLSSA13
spintype z-spin
subspace-rotation-factor 1 yes
symmetries none
symmetry-threshold 0.0001


Applied RMS atom displacement 0 bohrs to make symmetries exact.

---------- Initializing the Grid ----------
R = 
[         8.14         8.14            0  ]
[         8.14        -8.14            0  ]
[            0            0         40.7  ]
unit cell volume = 5393.53
G =
[   0.385945   0.385945         -0  ]
[   0.385945  -0.385945         -0  ]
[         -0         -0   0.154378  ]
Minimum fftbox size, Smin = [  60  60  204  ]
Chosen fftbox size, S = [  60  60  210  ]

---------- Exchange Correlation functional ----------
Initialized LibXC exchange functional 'Hammer, Hansen, and Norskov'
Initialized LibXC correlation functional 'Perdew, Burke & Ernzerhof'

---------- Setting up pseudopotentials ----------
Width of ionic core gaussian charges (only for fluid interactions / plotting) set to 0

Reading pseudopotential file '/data2/jt577/jdftx_eat_withLibXC/build/pseudopotentials/SG15/Ni_ONCV_PBE.upf':
  'Ni' pseudopotential, 'PBE' functional
  Generated using ONCVPSP code by D. R. Hamann
  Author: Martin Schlipf and Francois Gygi  Date: 150915.
  18 valence electrons, 4 orbitals, 6 projectors, 1292 radial grid points, with lMax = 2
  Transforming local potential to a uniform radial grid of dG=0.02 with 1419 points.
  Transforming nonlocal projectors to a uniform radial grid of dG=0.02 with 528 points.
    3S    l: 0   occupation:  2.0   eigenvalue: -4.081355
    3P    l: 1   occupation:  6.0   eigenvalue: -2.623460
    4S    l: 0   occupation:  2.0   eigenvalue: -0.207378
    3D    l: 2   occupation:  8.0   eigenvalue: -0.326118
  Transforming atomic orbitals to a uniform radial grid of dG=0.02 with 528 points.
  WARNING: large normalization error in atomic orbital 1s (integral: 0.000006).
  Core radius for overlap checks: 1.99 bohrs.
  Reading pulay file /data2/jt577/jdftx_eat_withLibXC/build/pseudopotentials/SG15/Ni_ONCV_PBE.pulay ... using dE_dnG = -7.250568e-04 computed for Ecut = 30.

Reading pseudopotential file '/data2/jt577/jdftx_eat_withLibXC/build/pseudopotentials/SG15/V_ONCV_PBE.upf':
  'V' pseudopotential, 'PBE' functional
  Generated using ONCVPSP code by D. R. Hamann
  Author: Martin Schlipf and Francois Gygi  Date: 150915.
  13 valence electrons, 4 orbitals, 6 projectors, 1536 radial grid points, with lMax = 2
  Transforming local potential to a uniform radial grid of dG=0.02 with 1419 points.
  Transforming nonlocal projectors to a uniform radial grid of dG=0.02 with 528 points.
    3S    l: 0   occupation:  2.0   eigenvalue: -2.581105
    3P    l: 1   occupation:  6.0   eigenvalue: -1.618486
    4S    l: 0   occupation:  2.0   eigenvalue: -0.172804
    3D    l: 2   occupation:  3.0   eigenvalue: -0.189795
  Transforming atomic orbitals to a uniform radial grid of dG=0.02 with 528 points.
  Core radius for overlap checks: 1.80 bohrs.
  Reading pulay file /data2/jt577/jdftx_eat_withLibXC/build/pseudopotentials/SG15/V_ONCV_PBE.pulay ... using dE_dnG = -1.698632e-04 computed for Ecut = 30.

Reading pseudopotential file '/data2/jt577/jdftx_eat_withLibXC/build/pseudopotentials/SG15/Co_ONCV_PBE.upf':
  'Co' pseudopotential, 'PBE' functional
  Generated using ONCVPSP code by D. R. Hamann
  Author: Martin Schlipf and Francois Gygi  Date: 150915.
  17 valence electrons, 4 orbitals, 6 projectors, 1388 radial grid points, with lMax = 2
  Transforming local potential to a uniform radial grid of dG=0.02 with 1419 points.
  Transforming nonlocal projectors to a uniform radial grid of dG=0.02 with 528 points.
    3S    l: 0   occupation:  2.0   eigenvalue: -3.763303
    3P    l: 1   occupation:  6.0   eigenvalue: -2.412101
    4S    l: 0   occupation:  2.0   eigenvalue: -0.201022
    3D    l: 2   occupation:  7.0   eigenvalue: -0.301498
  Transforming atomic orbitals to a uniform radial grid of dG=0.02 with 528 points.
  Core radius for overlap checks: 1.94 bohrs.
  Reading pulay file /data2/jt577/jdftx_eat_withLibXC/build/pseudopotentials/SG15/Co_ONCV_PBE.pulay ... using dE_dnG = -9.787391e-05 computed for Ecut = 30.

Reading pseudopotential file '/data2/jt577/jdftx_eat_withLibXC/build/pseudopotentials/SG15/Cr_ONCV_PBE.upf':
  'Cr' pseudopotential, 'PBE' functional
  Generated using ONCVPSP code by D. R. Hamann
  Author: Martin Schlipf and Francois Gygi  Date: 150915.
  14 valence electrons, 4 orbitals, 6 projectors, 1160 radial grid points, with lMax = 2
  Transforming local potential to a uniform radial grid of dG=0.02 with 1419 points.
  Transforming nonlocal projectors to a uniform radial grid of dG=0.02 with 528 points.
    3S    l: 0   occupation:  2.0   eigenvalue: -2.865131
    3P    l: 1   occupation:  6.0   eigenvalue: -1.810600
    4S    l: 0   occupation:  2.0   eigenvalue: -0.180525
    3D    l: 2   occupation:  4.0   eigenvalue: -0.220312
  Transforming atomic orbitals to a uniform radial grid of dG=0.02 with 528 points.
  WARNING: large normalization error in atomic orbital 1s (integral: 0.000001).
  Core radius for overlap checks: 2.10 bohrs.
  Reading pulay file /data2/jt577/jdftx_eat_withLibXC/build/pseudopotentials/SG15/Cr_ONCV_PBE.pulay ... using dE_dnG = -9.817895e-06 computed for Ecut = 30.

Reading pseudopotential file '/data2/jt577/jdftx_eat_withLibXC/build/pseudopotentials/SG15/O_ONCV_PBE.upf':
  'O' pseudopotential, 'PBE' functional
  Generated using ONCVPSP code by D. R. Hamann
  Author: Martin Schlipf and Francois Gygi  Date: 150915.
  6 valence electrons, 2 orbitals, 4 projectors, 936 radial grid points, with lMax = 1
  Transforming local potential to a uniform radial grid of dG=0.02 with 1419 points.
  Transforming nonlocal projectors to a uniform radial grid of dG=0.02 with 528 points.
    2S    l: 0   occupation:  2.0   eigenvalue: -0.880572
    2P    l: 1   occupation:  4.0   eigenvalue: -0.331869
  Transforming atomic orbitals to a uniform radial grid of dG=0.02 with 528 points.
  Core radius for overlap checks: 1.29 bohrs.
  Reading pulay file /data2/jt577/jdftx_eat_withLibXC/build/pseudopotentials/SG15/O_ONCV_PBE.pulay ... using dE_dnG = -8.209514e-03 computed for Ecut = 30.

Reading pseudopotential file '/data2/jt577/jdftx_eat_withLibXC/build/pseudopotentials/SG15/H_ONCV_PBE.upf':
  'H' pseudopotential, 'PBE' functional
  Generated using ONCVPSP code by D. R. Hamann
  Author: Martin Schlipf and Francois Gygi  Date: 150915.
  1 valence electrons, 1 orbitals, 2 projectors, 1166 radial grid points, with lMax = 0
  Transforming local potential to a uniform radial grid of dG=0.02 with 1419 points.
  Transforming nonlocal projectors to a uniform radial grid of dG=0.02 with 528 points.
    1S    l: 0   occupation:  1.0   eigenvalue: -0.238602
  Transforming atomic orbitals to a uniform radial grid of dG=0.02 with 528 points.
  Core radius for overlap checks: 1.01 bohrs.
  Reading pulay file /data2/jt577/jdftx_eat_withLibXC/build/pseudopotentials/SG15/H_ONCV_PBE.pulay ... using dE_dnG = -8.245991e-05 computed for Ecut = 30.

Initialized 6 species with 34 total atoms.

Folded 1 k-points by 3x3x1 to 9 k-points.

---------- Setting up k-points, bands, fillings ----------
No reducable k-points. 
Computing the number of bands and number of electrons
Calculating initial fillings.
nElectrons: 348.000000   nBands: 229   nStates: 18

----- Setting up reduced wavefunction bases (one per k-point) -----
average nbasis = 42312.000 , ideal nbasis = 42330.081

---------- Setting up ewald sum ----------
Optimum gaussian width for ewald sums = 3.887061 bohr.
Real space sum over 605 unit cells with max indices [  5  5  2  ]
Reciprocal space sum over 5915 terms with max indices [  6  6  17  ]

---------- Allocating electronic variables ----------
Initializing wave functions:  linear combination of atomic orbitals
Ni (M=1) pseudo-atom majority spin occupations:   s ( 1 0.5 )  p ( 3 )  d ( 5 )
Ni (M=1) pseudo-atom minority spin occupations:   s ( 1 0 )  p ( 3 )  d ( 4.5 )
V (M=1) pseudo-atom majority spin occupations:   s ( 1 0 )  p ( 3 )  d ( 3 )
V (M=1) pseudo-atom minority spin occupations:   s ( 1 0 )  p ( 3 )  d ( 2 )
Co (M=1) pseudo-atom majority spin occupations:   s ( 1 0 )  p ( 3 )  d ( 5 )
Co (M=1) pseudo-atom minority spin occupations:   s ( 1 0 )  p ( 3 )  d ( 4 )
Cr (M=1) pseudo-atom majority spin occupations:   s ( 1 0 )  p ( 3 )  d ( 3.5 )
Cr (M=1) pseudo-atom minority spin occupations:   s ( 1 0 )  p ( 3 )  d ( 2.5 )
O pseudo-atom occupations:   s ( 2 )  p ( 4 )
H pseudo-atom occupations:   s ( 1 )
	FillingsUpdate:  mu: +0.173779781  nElectrons: 348.000000  magneticMoment: [ Abs: 5.61747  Tot: +0.00000 ]
LCAOMinimize: Iter:   0  F: -1869.0592294589307585  |grad|_K:  3.584e-02  alpha:  1.000e+00
LCAOMinimize: 	Step increased F by 2.867966e+02, reducing alpha to 3.199808e-02.
	FillingsUpdate:  mu: +0.010718344  nElectrons: 348.000000  magneticMoment: [ Abs: 5.90029  Tot: +0.00000 ]
LCAOMinimize: Iter:   1  F: -1893.4956636582653573  |grad|_K:  1.999e-02  alpha:  3.200e-02  linmin: -9.844e-02  cgtest:  3.598e-01  t[s]:     53.76
LCAOMinimize: 	Wrong curvature in test step, increasing alphaT to 9.599423e-02.
	FillingsUpdate:  mu: +0.370521190  nElectrons: 348.000000  magneticMoment: [ Abs: 10.96207  Tot: -0.00000 ]
LCAOMinimize: Iter:   2  F: -1912.1031559391619794  |grad|_K:  2.521e-02  alpha: -4.859e-02  linmin: -2.503e-02  cgtest:  3.344e-01  t[s]:     67.35
LCAOMinimize: 	Step increased F by 1.964741e+02, reducing alpha to 3.513117e-02.
	FillingsUpdate:  mu: +0.635343901  nElectrons: 348.000000  magneticMoment: [ Abs: 10.14710  Tot: +0.00000 ]
LCAOMinimize: Iter:   3  F: -1923.1264015634194493  |grad|_K:  3.213e-02  alpha:  3.513e-02  linmin: -9.292e-03  cgtest:  5.061e-01  t[s]:     91.95
	FillingsUpdate:  mu: +0.715687571  nElectrons: 348.000000  magneticMoment: [ Abs: 8.07850  Tot: -0.00000 ]
LCAOMinimize: Iter:   4  F: -1932.4932586197342061  |grad|_K:  1.735e-02  alpha:  1.410e-02  linmin:  2.367e-02  cgtest: -9.911e-01  t[s]:    106.45
LCAOMinimize: 	Bad step direction: g.d > 0.
LCAOMinimize: 	Undoing step.
LCAOMinimize: 	Step failed: resetting search direction.
	FillingsUpdate:  mu: +0.715687571  nElectrons: 348.000000  magneticMoment: [ Abs: 8.07850  Tot: -0.00000 ]
LCAOMinimize: Iter:   5  F: -1932.4932586197342061  |grad|_K:  1.735e-02  alpha:  0.000e+00
	FillingsUpdate:  mu: +0.463803137  nElectrons: 348.000000  magneticMoment: [ Abs: 8.02113  Tot: +0.00000 ]
LCAOMinimize: Iter:   6  F: -1934.4496612498132890  |grad|_K:  1.564e-02  alpha:  1.598e-02  linmin:  5.000e-02  cgtest: -4.553e-01  t[s]:    131.30
LCAOMinimize: 	Bad step direction: g.d > 0.
LCAOMinimize: 	Undoing step.
LCAOMinimize: 	Step failed: resetting search direction.
	FillingsUpdate:  mu: +0.463803137  nElectrons: 348.000000  magneticMoment: [ Abs: 8.02113  Tot: +0.00000 ]
LCAOMinimize: Iter:   7  F: -1934.4496612498132890  |grad|_K:  1.564e-02  alpha:  0.000e+00
	FillingsUpdate:  mu: +0.388414650  nElectrons: 348.000000  magneticMoment: [ Abs: 7.51042  Tot: -0.00000 ]
LCAOMinimize: Iter:   8  F: -1935.5233413486198515  |grad|_K:  9.103e-03  alpha:  1.024e-02  linmin:  1.057e-02  cgtest: -1.265e-01  t[s]:    156.19
LCAOMinimize: 	Wrong curvature in test step, increasing alphaT to 3.071006e-02.
	FillingsUpdate:  mu: +0.398552199  nElectrons: 348.000000  magneticMoment: [ Abs: 7.56347  Tot: +0.00000 ]
LCAOMinimize: Iter:   9  F: -1936.2708313777750391  |grad|_K:  8.520e-03  alpha: -5.197e-01  linmin: -5.238e-02  cgtest:  9.705e-01  t[s]:    169.75
LCAOMinimize: Encountered beta<0, resetting CG.
	FillingsUpdate:  mu: -0.017339451  nElectrons: 348.000000  magneticMoment: [ Abs: 13.10578  Tot: +0.00000 ]
LCAOMinimize: Iter:  10  F: -1942.5122113153627197  |grad|_K:  2.290e-02  alpha:  1.392e-01  linmin:  9.343e-02  cgtest: -1.451e-01  t[s]:    184.34
LCAOMinimize: 	Bad step direction: g.d > 0.
LCAOMinimize: 	Undoing step.
LCAOMinimize: 	Step failed: resetting search direction.
	FillingsUpdate:  mu: -0.017339451  nElectrons: 348.000000  magneticMoment: [ Abs: 13.10578  Tot: +0.00000 ]
LCAOMinimize: Iter:  11  F: -1942.5122113153627197  |grad|_K:  2.290e-02  alpha:  0.000e+00
	FillingsUpdate:  mu: +0.446482228  nElectrons: 348.000000  magneticMoment: [ Abs: 11.95736  Tot: +0.00000 ]
LCAOMinimize: Iter:  12  F: -1946.5618390917106808  |grad|_K:  1.611e-02  alpha:  3.414e-02  linmin:  5.819e-02  cgtest: -8.324e-01  t[s]:    209.22
	FillingsUpdate:  mu: +0.511458096  nElectrons: 348.000000  magneticMoment: [ Abs: 11.58456  Tot: +0.00000 ]
LCAOMinimize: Iter:  13  F: -1947.3812630608028940  |grad|_K:  1.212e-02  alpha:  1.046e-02  linmin: -1.646e-02  cgtest:  1.002e+00  t[s]:    223.71
LCAOMinimize: Encountered beta<0, resetting CG.
	FillingsUpdate:  mu: +0.190442109  nElectrons: 348.000000  magneticMoment: [ Abs: 12.24808  Tot: +0.00000 ]
LCAOMinimize: Iter:  14  F: -1949.4012628250470698  |grad|_K:  6.989e-03  alpha:  2.804e-02  linmin:  4.454e-02  cgtest: -3.342e-01  t[s]:    238.29
	FillingsUpdate:  mu: +0.061050691  nElectrons: 348.000000  magneticMoment: [ Abs: 13.47716  Tot: +0.00000 ]
LCAOMinimize: Iter:  15  F: -1949.8035725558268041  |grad|_K:  8.717e-03  alpha:  1.949e-02  linmin: -1.838e-02  cgtest:  6.859e-01  t[s]:    252.71
	FillingsUpdate:  mu: +0.042888855  nElectrons: 348.000000  magneticMoment: [ Abs: 13.71554  Tot: -0.00000 ]
LCAOMinimize: Iter:  16  F: -1950.0467656907458149  |grad|_K:  6.899e-03  alpha:  3.080e-03  linmin: -1.055e-01  cgtest:  9.313e-01  t[s]:    267.19
LCAOMinimize: Encountered beta<0, resetting CG.
LCAOMinimize: 	Predicted alpha/alphaT>3.000000, increasing alphaT to 9.240478e-03.
	FillingsUpdate:  mu: +0.050444275  nElectrons: 348.000000  magneticMoment: [ Abs: 13.66614  Tot: -0.00000 ]
LCAOMinimize: Iter:  17  F: -1950.3871012920415069  |grad|_K:  4.403e-03  alpha:  1.478e-02  linmin: -1.035e-02  cgtest:  7.075e-02  t[s]:    285.87
	FillingsUpdate:  mu: +0.139994724  nElectrons: 348.000000  magneticMoment: [ Abs: 13.89682  Tot: +0.00000 ]
LCAOMinimize: Iter:  18  F: -1950.5904108108491073  |grad|_K:  3.385e-03  alpha:  2.264e-02  linmin:  1.739e-02  cgtest: -3.658e-01  t[s]:    300.51
	FillingsUpdate:  mu: +0.155337670  nElectrons: 348.000000  magneticMoment: [ Abs: 14.07753  Tot: +0.00000 ]
LCAOMinimize: Iter:  19  F: -1950.6205424664804013  |grad|_K:  3.553e-03  alpha:  5.032e-03  linmin: -1.192e-02  cgtest:  9.534e-01  t[s]:    315.17
LCAOMinimize: 	Predicted alpha/alphaT>3.000000, increasing alphaT to 1.509459e-02.
	FillingsUpdate:  mu: +0.121056352  nElectrons: 348.000000  magneticMoment: [ Abs: 14.35738  Tot: -0.00000 ]
LCAOMinimize: Iter:  20  F: -1950.7133037282064834  |grad|_K:  2.364e-03  alpha:  1.496e-02  linmin:  6.387e-03  cgtest: -6.966e-02  t[s]:    334.09
	FillingsUpdate:  mu: +0.107605082  nElectrons: 348.000000  magneticMoment: [ Abs: 14.78017  Tot: -0.00000 ]
LCAOMinimize: Iter:  21  F: -1950.7716154787906362  |grad|_K:  1.786e-03  alpha:  2.344e-02  linmin:  1.221e-03  cgtest:  4.541e-02  t[s]:    348.96
LCAOMinimize: 	Predicted alpha/alphaT>3.000000, increasing alphaT to 7.033431e-02.
	FillingsUpdate:  mu: +0.136806672  nElectrons: 348.000000  magneticMoment: [ Abs: 15.82471  Tot: +0.00000 ]
LCAOMinimize: Iter:  22  F: -1950.9329868732063460  |grad|_K:  1.412e-03  alpha:  1.072e-01  linmin: -4.047e-04  cgtest:  3.654e-01  t[s]:    367.83
	FillingsUpdate:  mu: +0.119334172  nElectrons: 348.000000  magneticMoment: [ Abs: 15.95835  Tot: -0.00000 ]
LCAOMinimize: Iter:  23  F: -1950.9493968653100637  |grad|_K:  1.265e-03  alpha:  2.055e-02  linmin:  5.278e-03  cgtest: -1.678e-01  t[s]:    382.67
LCAOMinimize: 	Predicted alpha/alphaT>3.000000, increasing alphaT to 6.164490e-02.
	FillingsUpdate:  mu: +0.106330698  nElectrons: 348.000000  magneticMoment: [ Abs: 16.92621  Tot: -0.00000 ]
LCAOMinimize: Iter:  24  F: -1951.0108155984803489  |grad|_K:  1.427e-03  alpha:  8.889e-02  linmin: -2.501e-03  cgtest:  7.385e-01  t[s]:    401.56
	FillingsUpdate:  mu: +0.119293545  nElectrons: 348.000000  magneticMoment: [ Abs: 17.16382  Tot: -0.00000 ]
LCAOMinimize: Iter:  25  F: -1951.0350808157841129  |grad|_K:  8.198e-04  alpha:  1.775e-02  linmin: -2.370e-02  cgtest:  3.979e-01  t[s]:    416.54
LCAOMinimize: 	Predicted alpha/alphaT>3.000000, increasing alphaT to 5.325847e-02.
	FillingsUpdate:  mu: +0.132478155  nElectrons: 348.000000  magneticMoment: [ Abs: 17.69540  Tot: -0.00000 ]
LCAOMinimize: Iter:  26  F: -1951.0563198482227563  |grad|_K:  7.921e-04  alpha:  6.013e-02  linmin: -3.727e-04  cgtest:  2.817e-02  t[s]:    435.77
	FillingsUpdate:  mu: +0.137103756  nElectrons: 348.000000  magneticMoment: [ Abs: 18.82679  Tot: -0.00000 ]
LCAOMinimize: Iter:  27  F: -1951.0916886977670401  |grad|_K:  9.221e-04  alpha:  1.106e-01  linmin: -2.675e-03  cgtest:  2.989e-01  t[s]:    450.59
	FillingsUpdate:  mu: +0.119684690  nElectrons: 348.000000  magneticMoment: [ Abs: 19.10142  Tot: +0.00000 ]
LCAOMinimize: Iter:  28  F: -1951.1053667432374823  |grad|_K:  8.730e-04  alpha:  3.507e-02  linmin:  1.999e-03  cgtest: -2.716e-01  t[s]:    465.43
	FillingsUpdate:  mu: +0.119234512  nElectrons: 348.000000  magneticMoment: [ Abs: 20.09383  Tot: +0.00000 ]
LCAOMinimize: Iter:  29  F: -1951.1319425269612111  |grad|_K:  7.407e-04  alpha:  7.672e-02  linmin: -2.197e-03  cgtest:  6.390e-01  t[s]:    480.25
	FillingsUpdate:  mu: +0.134072793  nElectrons: 348.000000  magneticMoment: [ Abs: 20.29605  Tot: +0.00000 ]
LCAOMinimize: Iter:  30  F: -1951.1407806068893933  |grad|_K:  5.739e-04  alpha:  3.315e-02  linmin:  1.401e-04  cgtest: -2.475e-02  t[s]:    494.95
LCAOMinimize: None of the convergence criteria satisfied after 30 iterations.


---- Citations for features of the code used in this run ----

   Software package:
      R. Sundararaman, K. Letchworth-Weaver, K.A. Schwarz, D. Gunceler, Y. Ozhabes and T.A. Arias, 'JDFTx: software for joint density-functional theory', SoftwareX 6, 278 (2017)

   Simplified rotationally-invariant DFT+U:
      S. L. Dudarev et al., Phys. Rev. B 57, 1505 (1998)

   LibXC library of exchange-correlation functions:
      M. A. L. Marques, M. J. T. Oliveira and T. Burnus, Comput. Phys. Commun. 183, 2272 (2012)

   Hammer, Hansen, and Norskov exchange functional:
      B. Hammer, L. B. Hansen, and J. K. Nørskov, Phys. Rev. B 59, 7413 (1999)

   Perdew, Burke & Ernzerhof correlation functional:
      J. P. Perdew, K. Burke, and M. Ernzerhof, Phys. Rev. Lett. 77, 3865 (1996)

   Pseudopotentials:
      M Schlipf and F Gygi, Comput. Phys. Commun. 196, 36 (2015)

   Total energy minimization with Auxiliary Hamiltonian:
      C. Freysoldt, S. Boeck, and J. Neugebauer, Phys. Rev. B 79, 241103(R) (2009)

This list may not be complete. Please suggest additional citations or
report any other bugs at https://github.com/shankar1729/jdftx/issues

Initialization completed successfully at t[s]:    501.65


-------- Electronic minimization -----------
	FillingsUpdate:  mu: +0.134072797  nElectrons: 348.000000  magneticMoment: [ Abs: 20.29605  Tot: +0.00000 ]
ElecMinimize: Iter:   0  F: -1951.140780606896215  |grad|_K:  7.646e-04  alpha:  1.000e+00
	FillingsUpdate:  mu: +0.605185648  nElectrons: 348.000000  magneticMoment: [ Abs: 21.16691  Tot: +0.00000 ]
	SubspaceRotationAdjust: set factor to 0.872
ElecMinimize: Iter:   1  F: -1977.654035376402817  |grad|_K:  1.287e-03  alpha:  4.576e-01  linmin:  9.106e-03  t[s]:    596.26
	FillingsUpdate:  mu: +0.652393117  nElectrons: 348.000000  magneticMoment: [ Abs: 22.20572  Tot: -0.00000 ]
	SubspaceRotationAdjust: set factor to 0.541
ElecMinimize: Iter:   2  F: -1977.962531430325498  |grad|_K:  1.004e-03  alpha:  3.772e-02  linmin:  5.892e-03  t[s]:    670.09
	FillingsUpdate:  mu: +0.281702012  nElectrons: 348.000000  magneticMoment: [ Abs: 21.91282  Tot: +0.00000 ]
	SubspaceRotationAdjust: set factor to 0.858
ElecMinimize: Iter:   3  F: -1983.535555084416728  |grad|_K:  6.224e-04  alpha:  4.760e-02  linmin: -1.852e-03  t[s]:    747.32
	FillingsUpdate:  mu: +0.588566766  nElectrons: 348.000000  magneticMoment: [ Abs: 23.22568  Tot: -0.00000 ]
	SubspaceRotationAdjust: set factor to 0.512
ElecMinimize: Iter:   4  F: -1988.110098521395457  |grad|_K:  1.119e-03  alpha:  5.912e-02  linmin:  1.330e-03  t[s]:    824.12
	FillingsUpdate:  mu: +0.605592473  nElectrons: 348.000000  magneticMoment: [ Abs: 25.21138  Tot: -0.00000 ]
	SubspaceRotationAdjust: set factor to 0.321
ElecMinimize: Iter:   5  F: -1993.716917390778917  |grad|_K:  7.877e-04  alpha:  3.111e-02  linmin: -9.004e-05  t[s]:    905.50
	FillingsUpdate:  mu: +0.256789776  nElectrons: 348.000000  magneticMoment: [ Abs: 26.67456  Tot: -0.00000 ]
	SubspaceRotationAdjust: set factor to 0.25
ElecMinimize: Iter:   6  F: -1997.144816868605403  |grad|_K:  4.373e-04  alpha:  2.987e-02  linmin:  1.984e-03  t[s]:    983.49
	FillingsUpdate:  mu: +0.372695953  nElectrons: 348.000000  magneticMoment: [ Abs: 26.64345  Tot: +0.00000 ]
	SubspaceRotationAdjust: set factor to 0.317
ElecMinimize: Iter:   7  F: -1997.514121341144801  |grad|_K:  4.550e-04  alpha:  1.872e-02  linmin: -2.787e-05  t[s]:   1061.73
	FillingsUpdate:  mu: +0.446139640  nElectrons: 348.000000  magneticMoment: [ Abs: 26.67311  Tot: +0.00000 ]
	SubspaceRotationAdjust: set factor to 0.256
ElecMinimize: Iter:   8  F: -1998.604285408026726  |grad|_K:  5.234e-04  alpha:  2.983e-02  linmin:  3.169e-05  t[s]:   1135.80
	FillingsUpdate:  mu: +0.423867630  nElectrons: 348.000000  magneticMoment: [ Abs: 27.09676  Tot: -0.00000 ]
	SubspaceRotationAdjust: set factor to 0.206
ElecMinimize: Iter:   9  F: -1999.383046061926279  |grad|_K:  4.376e-04  alpha:  1.589e-02  linmin: -1.822e-04  t[s]:   1212.74
	FillingsUpdate:  mu: +0.285755970  nElectrons: 348.000000  magneticMoment: [ Abs: 27.52838  Tot: +0.00000 ]
	SubspaceRotationAdjust: set factor to 0.166
ElecMinimize: Iter:  10  F: -2000.077836754655436  |grad|_K:  3.523e-04  alpha:  1.972e-02  linmin: -1.165e-04  t[s]:   1291.00
	FillingsUpdate:  mu: +0.219594180  nElectrons: 348.000000  magneticMoment: [ Abs: 27.74409  Tot: -0.00000 ]
	SubspaceRotationAdjust: set factor to 0.141
ElecMinimize: Iter:  11  F: -2000.663020900991569  |grad|_K:  2.874e-04  alpha:  2.614e-02  linmin: -3.925e-05  t[s]:   1369.02
	FillingsUpdate:  mu: +0.170957458  nElectrons: 348.000000  magneticMoment: [ Abs: 27.87186  Tot: +0.00000 ]
	SubspaceRotationAdjust: set factor to 0.143
ElecMinimize: Iter:  12  F: -2001.114154792011732  |grad|_K:  2.496e-04  alpha:  3.086e-02  linmin: -1.754e-05  t[s]:   1446.62
	FillingsUpdate:  mu: +0.134108422  nElectrons: 348.000000  magneticMoment: [ Abs: 28.00972  Tot: +0.00000 ]
	SubspaceRotationAdjust: set factor to 0.15
ElecMinimize: Iter:  13  F: -2001.520522099131767  |grad|_K:  2.515e-04  alpha:  3.754e-02  linmin:  2.206e-04  t[s]:   1523.05
	FillingsUpdate:  mu: +0.212250372  nElectrons: 348.000000  magneticMoment: [ Abs: 28.11371  Tot: -0.00000 ]
	SubspaceRotationAdjust: set factor to 0.137
ElecMinimize: Iter:  14  F: -2001.841469211765570  |grad|_K:  2.787e-04  alpha:  3.197e-02  linmin: -1.981e-04  t[s]:   1601.26
	FillingsUpdate:  mu: +0.142302718  nElectrons: 348.000000  magneticMoment: [ Abs: 28.39056  Tot: +0.00000 ]
	SubspaceRotationAdjust: set factor to 0.158
ElecMinimize: Iter:  15  F: -2002.191832678222681  |grad|_K:  2.565e-04  alpha:  2.273e-02  linmin:  1.097e-04  t[s]:   1678.63
	FillingsUpdate:  mu: +0.104895134  nElectrons: 348.000000  magneticMoment: [ Abs: 28.37595  Tot: -0.00000 ]
	SubspaceRotationAdjust: set factor to 0.185
ElecMinimize: Iter:  16  F: -2002.389608327208862  |grad|_K:  2.529e-04  alpha:  1.773e-02  linmin:  7.573e-06  t[s]:   1760.14
	FillingsUpdate:  mu: +0.119243992  nElectrons: 348.000000  magneticMoment: [ Abs: 28.50853  Tot: -0.00000 ]
	SubspaceRotationAdjust: set factor to 0.195
ElecMinimize: Iter:  17  F: -2002.567221300191704  |grad|_K:  2.546e-04  alpha:  1.581e-02  linmin:  5.369e-05  t[s]:   1837.77
	FillingsUpdate:  mu: +0.132572132  nElectrons: 348.000000  magneticMoment: [ Abs: 28.73897  Tot: -0.00000 ]
	SubspaceRotationAdjust: set factor to 0.18
ElecMinimize: Iter:  18  F: -2002.723456626029247  |grad|_K:  2.579e-04  alpha:  1.424e-02  linmin: -9.292e-05  t[s]:   1911.74
	FillingsUpdate:  mu: +0.159128712  nElectrons: 348.000000  magneticMoment: [ Abs: 28.84814  Tot: -0.00000 ]
	SubspaceRotationAdjust: set factor to 0.165
ElecMinimize: Iter:  19  F: -2002.942384135868906  |grad|_K:  2.414e-04  alpha:  1.869e-02  linmin:  2.404e-04  t[s]:   1987.44
	FillingsUpdate:  mu: +0.209426999  nElectrons: 348.000000  magneticMoment: [ Abs: 28.85865  Tot: -0.00000 ]
	SubspaceRotationAdjust: set factor to 0.154
ElecMinimize: Iter:  20  F: -2003.055754859333092  |grad|_K:  2.314e-04  alpha:  1.229e-02  linmin:  6.366e-06  t[s]:   2062.64
	FillingsUpdate:  mu: +0.271227214  nElectrons: 348.000000  magneticMoment: [ Abs: 28.86534  Tot: -0.00000 ]
	SubspaceRotationAdjust: set factor to 0.149
ElecMinimize: Iter:  21  F: -2003.186518844313014  |grad|_K:  2.230e-04  alpha:  1.399e-02  linmin: -5.678e-06  t[s]:   2143.26
	FillingsUpdate:  mu: +0.318966257  nElectrons: 348.000000  magneticMoment: [ Abs: 28.87278  Tot: -0.00000 ]
	SubspaceRotationAdjust: set factor to 0.156
ElecMinimize: Iter:  22  F: -2003.309067157988466  |grad|_K:  2.119e-04  alpha:  1.405e-02  linmin: -6.639e-06  t[s]:   2218.19
	FillingsUpdate:  mu: +0.326951051  nElectrons: 348.000000  magneticMoment: [ Abs: 28.88136  Tot: +0.00000 ]
	SubspaceRotationAdjust: set factor to 0.161
ElecMinimize: Iter:  23  F: -2003.435683225444109  |grad|_K:  2.095e-04  alpha:  1.586e-02  linmin: -1.305e-04  t[s]:   2294.82
	FillingsUpdate:  mu: +0.303190474  nElectrons: 348.000000  magneticMoment: [ Abs: 28.97802  Tot: -0.00000 ]
	SubspaceRotationAdjust: set factor to 0.18
ElecMinimize: Iter:  24  F: -2003.592110773438662  |grad|_K:  1.994e-04  alpha:  2.002e-02  linmin:  3.105e-04  t[s]:   2372.60
	FillingsUpdate:  mu: +0.287051276  nElectrons: 348.000000  magneticMoment: [ Abs: 28.94912  Tot: -0.00000 ]
	SubspaceRotationAdjust: set factor to 0.191
ElecMinimize: Iter:  25  F: -2003.654381580534846  |grad|_K:  2.021e-04  alpha:  1.067e-02  linmin:  3.289e-07  t[s]:   2449.16
	FillingsUpdate:  mu: +0.256095132  nElectrons: 348.000000  magneticMoment: [ Abs: 28.93709  Tot: +0.00000 ]
	SubspaceRotationAdjust: set factor to 0.181
ElecMinimize: Iter:  26  F: -2003.742139152792788  |grad|_K:  2.072e-04  alpha:  1.225e-02  linmin: -2.740e-05  t[s]:   2523.06
	FillingsUpdate:  mu: +0.233926382  nElectrons: 348.000000  magneticMoment: [ Abs: 29.08375  Tot: +0.00000 ]
	SubspaceRotationAdjust: set factor to 0.163
ElecMinimize: Iter:  27  F: -2003.841421138685746  |grad|_K:  2.066e-04  alpha:  1.300e-02  linmin: -1.965e-05  t[s]:   2601.27
	FillingsUpdate:  mu: +0.194875226  nElectrons: 348.000000  magneticMoment: [ Abs: 29.44254  Tot: +0.00000 ]
	SubspaceRotationAdjust: set factor to 0.149
ElecMinimize: Iter:  28  F: -2003.945453436777143  |grad|_K:  2.007e-04  alpha:  1.378e-02  linmin:  6.430e-06  t[s]:   2676.51
	FillingsUpdate:  mu: +0.151819462  nElectrons: 348.000000  magneticMoment: [ Abs: 29.88666  Tot: +0.00000 ]
	SubspaceRotationAdjust: set factor to 0.155
ElecMinimize: Iter:  29  F: -2004.033399620104092  |grad|_K:  1.864e-04  alpha:  1.243e-02  linmin:  4.897e-05  t[s]:   2750.95
	FillingsUpdate:  mu: +0.134602532  nElectrons: 348.000000  magneticMoment: [ Abs: 30.23777  Tot: -0.00000 ]
	SubspaceRotationAdjust: set factor to 0.18
ElecMinimize: Iter:  30  F: -2004.094409155066160  |grad|_K:  1.770e-04  alpha:  1.035e-02  linmin:  7.117e-06  t[s]:   2829.21
	FillingsUpdate:  mu: +0.126374836  nElectrons: 348.000000  magneticMoment: [ Abs: 30.53499  Tot: +0.00000 ]
	SubspaceRotationAdjust: set factor to 0.201
ElecMinimize: Iter:  31  F: -2004.154122989202278  |grad|_K:  1.760e-04  alpha:  1.090e-02  linmin: -7.178e-05  t[s]:   2909.66
	FillingsUpdate:  mu: +0.102217893  nElectrons: 348.000000  magneticMoment: [ Abs: 30.85134  Tot: -0.00000 ]
	SubspaceRotationAdjust: set factor to 0.206
ElecMinimize: Iter:  32  F: -2004.245751006923001  |grad|_K:  1.751e-04  alpha:  1.541e-02  linmin: -1.709e-04  t[s]:   2984.11
	FillingsUpdate:  mu: +0.094218052  nElectrons: 348.000000  magneticMoment: [ Abs: 31.22702  Tot: -0.00000 ]
	SubspaceRotationAdjust: set factor to 0.231
ElecMinimize: Iter:  33  F: -2004.369056206532150  |grad|_K:  1.621e-04  alpha:  2.039e-02  linmin: -2.921e-05  t[s]:   3061.89
	FillingsUpdate:  mu: +0.103013489  nElectrons: 348.000000  magneticMoment: [ Abs: 31.59280  Tot: +0.00000 ]
	SubspaceRotationAdjust: set factor to 0.314
ElecMinimize: Iter:  34  F: -2004.463294693695616  |grad|_K:  1.518e-04  alpha:  2.007e-02  linmin:  1.846e-05  t[s]:   3138.21
	FillingsUpdate:  mu: +0.101658826  nElectrons: 348.000000  magneticMoment: [ Abs: 31.87140  Tot: +0.00000 ]
	SubspaceRotationAdjust: set factor to 0.405
ElecMinimize: Iter:  35  F: -2004.528528128872495  |grad|_K:  1.494e-04  alpha:  1.643e-02  linmin:  2.268e-06  t[s]:   3215.67
	FillingsUpdate:  mu: +0.143352275  nElectrons: 348.000000  magneticMoment: [ Abs: 32.07460  Tot: +0.00000 ]
	SubspaceRotationAdjust: set factor to 0.455
ElecMinimize: Iter:  36  F: -2004.595643103060638  |grad|_K:  1.576e-04  alpha:  1.724e-02  linmin:  8.446e-06  t[s]:   3288.88
	FillingsUpdate:  mu: +0.134962854  nElectrons: 348.000000  magneticMoment: [ Abs: 32.18854  Tot: -0.00000 ]
	SubspaceRotationAdjust: set factor to 0.414
ElecMinimize: Iter:  37  F: -2004.654640254594597  |grad|_K:  1.696e-04  alpha:  1.342e-02  linmin:  2.690e-05  t[s]:   3364.33
	FillingsUpdate:  mu: +0.177108157  nElectrons: 348.000000  magneticMoment: [ Abs: 32.33442  Tot: +0.00000 ]
	SubspaceRotationAdjust: set factor to 0.352
ElecMinimize: Iter:  38  F: -2004.714288486366740  |grad|_K:  1.704e-04  alpha:  1.217e-02  linmin: -1.671e-05  t[s]:   3440.61
	FillingsUpdate:  mu: +0.212313672  nElectrons: 348.000000  magneticMoment: [ Abs: 32.54765  Tot: -0.00000 ]
	SubspaceRotationAdjust: set factor to 0.351
ElecMinimize: Iter:  39  F: -2004.769354327819201  |grad|_K:  1.497e-04  alpha:  1.061e-02  linmin:  2.945e-05  t[s]:   3518.56
	FillingsUpdate:  mu: +0.210376694  nElectrons: 348.000000  magneticMoment: [ Abs: 32.76903  Tot: +0.00000 ]
	SubspaceRotationAdjust: set factor to 0.388
ElecMinimize: Iter:  40  F: -2004.810606332596308  |grad|_K:  1.378e-04  alpha:  1.078e-02  linmin: -3.585e-05  t[s]:   3595.30
	FillingsUpdate:  mu: +0.202629770  nElectrons: 348.000000  magneticMoment: [ Abs: 33.01985  Tot: -0.00000 ]
	SubspaceRotationAdjust: set factor to 0.375
ElecMinimize: Iter:  41  F: -2004.856477352750517  |grad|_K:  1.403e-04  alpha:  1.333e-02  linmin: -2.642e-05  t[s]:   3671.34
	FillingsUpdate:  mu: +0.180208643  nElectrons: 348.000000  magneticMoment: [ Abs: 33.28211  Tot: +0.00000 ]
	SubspaceRotationAdjust: set factor to 0.314
ElecMinimize: Iter:  42  F: -2004.907799859431861  |grad|_K:  1.458e-04  alpha:  1.454e-02  linmin: -2.304e-05  t[s]:   3746.24
	FillingsUpdate:  mu: +0.149778533  nElectrons: 348.000000  magneticMoment: [ Abs: 33.48123  Tot: -0.00000 ]
	SubspaceRotationAdjust: set factor to 0.28
ElecMinimize: Iter:  43  F: -2004.962023221519985  |grad|_K:  1.357e-04  alpha:  1.428e-02  linmin:  3.590e-05  t[s]:   3822.29
	FillingsUpdate:  mu: +0.153563418  nElectrons: 348.000000  magneticMoment: [ Abs: 33.62377  Tot: -0.00000 ]
	SubspaceRotationAdjust: set factor to 0.263
ElecMinimize: Iter:  44  F: -2005.004199340852210  |grad|_K:  1.313e-04  alpha:  1.355e-02  linmin: -1.834e-05  t[s]:   3897.74
	FillingsUpdate:  mu: +0.147089592  nElectrons: 348.000000  magneticMoment: [ Abs: 33.88988  Tot: +0.00000 ]
	SubspaceRotationAdjust: set factor to 0.285
ElecMinimize: Iter:  45  F: -2005.057378367096589  |grad|_K:  1.235e-04  alpha:  1.739e-02  linmin:  6.096e-06  t[s]:   3974.29
	FillingsUpdate:  mu: +0.137624287  nElectrons: 348.000000  magneticMoment: [ Abs: 34.14210  Tot: -0.00000 ]
	SubspaceRotationAdjust: set factor to 0.364
ElecMinimize: Iter:  46  F: -2005.098985191473275  |grad|_K:  1.167e-04  alpha:  1.563e-02  linmin:  1.147e-05  t[s]:   4051.28
	FillingsUpdate:  mu: +0.133368962  nElectrons: 348.000000  magneticMoment: [ Abs: 34.40460  Tot: -0.00000 ]
	SubspaceRotationAdjust: set factor to 0.433
ElecMinimize: Iter:  47  F: -2005.135671725190605  |grad|_K:  1.177e-04  alpha:  1.558e-02  linmin:  2.020e-05  t[s]:   4127.61
	FillingsUpdate:  mu: +0.142341905  nElectrons: 348.000000  magneticMoment: [ Abs: 34.68035  Tot: -0.00000 ]
	SubspaceRotationAdjust: set factor to 0.45
ElecMinimize: Iter:  48  F: -2005.162676967616562  |grad|_K:  1.210e-04  alpha:  1.085e-02  linmin:  1.413e-05  t[s]:   4207.14
	FillingsUpdate:  mu: +0.155842446  nElectrons: 348.000000  magneticMoment: [ Abs: 34.99619  Tot: -0.00000 ]
	SubspaceRotationAdjust: set factor to 0.378
ElecMinimize: Iter:  49  F: -2005.184843011521934  |grad|_K:  1.320e-04  alpha:  8.697e-03  linmin:  1.168e-05  t[s]:   4279.17
	FillingsUpdate:  mu: +0.148318315  nElectrons: 348.000000  magneticMoment: [ Abs: 35.35424  Tot: +0.00000 ]
	SubspaceRotationAdjust: set factor to 0.287
ElecMinimize: Iter:  50  F: -2005.209045098485831  |grad|_K:  1.358e-04  alpha:  8.005e-03  linmin:  1.488e-05  t[s]:   4357.92
	FillingsUpdate:  mu: +0.144024964  nElectrons: 348.000000  magneticMoment: [ Abs: 35.58578  Tot: -0.00000 ]
	SubspaceRotationAdjust: set factor to 0.231
ElecMinimize: Iter:  51  F: -2005.229794755758348  |grad|_K:  1.225e-04  alpha:  6.091e-03  linmin:  2.507e-05  t[s]:   4433.44
	FillingsUpdate:  mu: +0.148237646  nElectrons: 348.000000  magneticMoment: [ Abs: 35.65548  Tot: -0.00000 ]
	SubspaceRotationAdjust: set factor to 0.21
ElecMinimize: Iter:  52  F: -2005.239953115038134  |grad|_K:  1.090e-04  alpha:  3.306e-03  linmin: -1.477e-04  t[s]:   4511.24
	FillingsUpdate:  mu: +0.151883927  nElectrons: 348.000000  magneticMoment: [ Abs: 35.68396  Tot: -0.00000 ]
	SubspaceRotationAdjust: set factor to 0.211
ElecMinimize: Iter:  53  F: -2005.246848391963113  |grad|_K:  9.950e-05  alpha:  2.881e-03  linmin:  1.152e-04  t[s]:   4586.17
	FillingsUpdate:  mu: +0.149989223  nElectrons: 348.000000  magneticMoment: [ Abs: 35.68859  Tot: -0.00000 ]
	SubspaceRotationAdjust: set factor to 0.219
ElecMinimize: Iter:  54  F: -2005.249161562727295  |grad|_K:  9.671e-05  alpha:  1.167e-03  linmin: -2.567e-04  t[s]:   4660.12
	FillingsUpdate:  mu: +0.144338492  nElectrons: 348.000000  magneticMoment: [ Abs: 35.69049  Tot: -0.00000 ]
	SubspaceRotationAdjust: set factor to 0.23
ElecMinimize: Iter:  55  F: -2005.251602335675216  |grad|_K:  9.387e-05  alpha:  1.292e-03  linmin:  2.695e-04  t[s]:   4738.06
	FillingsUpdate:  mu: +0.142483839  nElectrons: 348.000000  magneticMoment: [ Abs: 35.69082  Tot: +0.00000 ]
	SubspaceRotationAdjust: set factor to 0.237
ElecMinimize: Iter:  56  F: -2005.252176626775736  |grad|_K:  9.401e-05  alpha:  3.609e-04  linmin: -2.781e-04  t[s]:   4812.75
	FillingsUpdate:  mu: +0.139058940  nElectrons: 348.000000  magneticMoment: [ Abs: 35.69177  Tot: -0.00000 ]
	SubspaceRotationAdjust: set factor to 0.243
ElecMinimize: Iter:  57  F: -2005.253095535449347  |grad|_K:  9.322e-05  alpha:  5.289e-04  linmin:  2.682e-04  t[s]:   4892.77
	FillingsUpdate:  mu: +0.138086331  nElectrons: 348.000000  magneticMoment: [ Abs: 35.69268  Tot: -0.00000 ]
	SubspaceRotationAdjust: set factor to 0.246
ElecMinimize: Iter:  58  F: -2005.253380182678029  |grad|_K:  9.318e-05  alpha:  2.063e-04  linmin: -9.490e-05  t[s]:   4968.88
	FillingsUpdate:  mu: +0.137072133  nElectrons: 348.000000  magneticMoment: [ Abs: 35.69440  Tot: -0.00000 ]
	SubspaceRotationAdjust: set factor to 0.246
ElecMinimize: Iter:  59  F: -2005.253770638885044  |grad|_K:  9.280e-05  alpha:  2.449e-04  linmin:  8.785e-05  t[s]:   5045.33
	FillingsUpdate:  mu: +0.136044791  nElectrons: 348.000000  magneticMoment: [ Abs: 35.69625  Tot: +0.00000 ]
	SubspaceRotationAdjust: set factor to 0.246
ElecMinimize: Iter:  60  F: -2005.254019803067195  |grad|_K:  9.245e-05  alpha:  1.721e-04  linmin:  5.251e-06  t[s]:   5120.34
	FillingsUpdate:  mu: +0.135032013  nElectrons: 348.000000  magneticMoment: [ Abs: 35.69860  Tot: -0.00000 ]
	SubspaceRotationAdjust: set factor to 0.245
ElecMinimize: Iter:  61  F: -2005.254264269669193  |grad|_K:  9.201e-05  alpha:  1.638e-04  linmin:  2.635e-05  t[s]:   5197.42
	FillingsUpdate:  mu: +0.134179256  nElectrons: 348.000000  magneticMoment: [ Abs: 35.70131  Tot: -0.00000 ]
	SubspaceRotationAdjust: set factor to 0.243
ElecMinimize: Iter:  62  F: -2005.254480594267534  |grad|_K:  9.152e-05  alpha:  1.483e-04  linmin:  1.431e-05  t[s]:   5273.37
	FillingsUpdate:  mu: +0.133461521  nElectrons: 348.000000  magneticMoment: [ Abs: 35.70448  Tot: +0.00000 ]
	SubspaceRotationAdjust: set factor to 0.241
ElecMinimize: Iter:  63  F: -2005.254688963749686  |grad|_K:  9.095e-05  alpha:  1.435e-04  linmin:  7.731e-06  t[s]:   5349.92
	FillingsUpdate:  mu: +0.132091786  nElectrons: 348.000000  magneticMoment: [ Abs: 35.70819  Tot: -0.00000 ]
	SubspaceRotationAdjust: set factor to 0.239
ElecMinimize: Iter:  64  F: -2005.254896098233985  |grad|_K:  9.030e-05  alpha:  1.439e-04  linmin: -2.757e-06  t[s]:   5425.29
	FillingsUpdate:  mu: +0.130062798  nElectrons: 348.000000  magneticMoment: [ Abs: 35.71260  Tot: -0.00000 ]
	SubspaceRotationAdjust: set factor to 0.236
ElecMinimize: Iter:  65  F: -2005.255112268430594  |grad|_K:  8.954e-05  alpha:  1.512e-04  linmin: -1.826e-05  t[s]:   5501.94
	FillingsUpdate:  mu: +0.127567079  nElectrons: 348.000000  magneticMoment: [ Abs: 35.71801  Tot: -0.00000 ]
	SubspaceRotationAdjust: set factor to 0.235
ElecMinimize: Iter:  66  F: -2005.255352646571282  |grad|_K:  8.859e-05  alpha:  1.687e-04  linmin: -4.533e-05  t[s]:   5575.12
	FillingsUpdate:  mu: +0.123962076  nElectrons: 348.000000  magneticMoment: [ Abs: 35.72507  Tot: -0.00000 ]
	SubspaceRotationAdjust: set factor to 0.234
ElecMinimize: Iter:  67  F: -2005.255650189770677  |grad|_K:  8.729e-05  alpha:  2.072e-04  linmin: -1.058e-04  t[s]:   5651.82
	FillingsUpdate:  mu: +0.118847569  nElectrons: 348.000000  magneticMoment: [ Abs: 35.73565  Tot: -0.00000 ]
	SubspaceRotationAdjust: set factor to 0.236
ElecMinimize: Iter:  68  F: -2005.256124342237399  |grad|_K:  8.504e-05  alpha:  3.114e-04  linmin: -3.135e-04  t[s]:   5726.87
ElecMinimize: 	Predicted alpha/alphaT>3.000000, increasing alphaT to 9.343439e-04.
	FillingsUpdate:  mu: +0.083950770  nElectrons: 348.000000  magneticMoment: [ Abs: 35.76186  Tot: +0.00000 ]
	SubspaceRotationAdjust: set factor to 0.279
ElecMinimize: Iter:  69  F: -2005.259590035837164  |grad|_K:  6.793e-05  alpha:  2.258e-03  linmin:  1.851e-03  t[s]:   5833.28
	FillingsUpdate:  mu: +0.083866874  nElectrons: 348.000000  magneticMoment: [ Abs: 35.76180  Tot: -0.00000 ]
	SubspaceRotationAdjust: set factor to 0.3
ElecMinimize: Iter:  70  F: -2005.259590871992032  |grad|_K:  7.043e-05  alpha:  2.348e-05  linmin:  3.767e-06  t[s]:   5908.42
ElecMinimize: 	Predicted alpha/alphaT>3.000000, increasing alphaT to 7.044232e-05.
ElecMinimize: 	Predicted alpha/alphaT>3.000000, increasing alphaT to 2.113270e-04.
	FillingsUpdate:  mu: +0.083245537  nElectrons: 348.000000  magneticMoment: [ Abs: 35.75956  Tot: +0.00000 ]
	SubspaceRotationAdjust: set factor to 0.306
ElecMinimize: Iter:  71  F: -2005.260019970977055  |grad|_K:  7.016e-05  alpha:  4.946e-04  linmin: -1.340e-05  t[s]:   6049.37
	FillingsUpdate:  mu: +0.083639277  nElectrons: 348.000000  magneticMoment: [ Abs: 35.75595  Tot: -0.00000 ]
	SubspaceRotationAdjust: set factor to 0.301
ElecMinimize: Iter:  72  F: -2005.260461944323424  |grad|_K:  6.918e-05  alpha:  5.097e-04  linmin: -2.556e-05  t[s]:   6128.30
	FillingsUpdate:  mu: +0.085241827  nElectrons: 348.000000  magneticMoment: [ Abs: 35.75051  Tot: -0.00000 ]
	SubspaceRotationAdjust: set factor to 0.288
ElecMinimize: Iter:  73  F: -2005.260919937441258  |grad|_K:  6.786e-05  alpha:  5.403e-04  linmin: -7.026e-06  t[s]:   6207.80
	FillingsUpdate:  mu: +0.085955721  nElectrons: 348.000000  magneticMoment: [ Abs: 35.74344  Tot: +0.00000 ]
	SubspaceRotationAdjust: set factor to 0.268
ElecMinimize: Iter:  74  F: -2005.261354592344787  |grad|_K:  6.646e-05  alpha:  5.379e-04  linmin:  2.254e-05  t[s]:   6285.55
	FillingsUpdate:  mu: +0.086283300  nElectrons: 348.000000  magneticMoment: [ Abs: 35.73546  Tot: -0.00000 ]
	SubspaceRotationAdjust: set factor to 0.244
ElecMinimize: Iter:  75  F: -2005.261744507403364  |grad|_K:  6.501e-05  alpha:  5.090e-04  linmin:  2.964e-05  t[s]:   6362.01
	FillingsUpdate:  mu: +0.088771528  nElectrons: 348.000000  magneticMoment: [ Abs: 35.72695  Tot: +0.00000 ]
	SubspaceRotationAdjust: set factor to 0.219
ElecMinimize: Iter:  76  F: -2005.262101935419651  |grad|_K:  6.345e-05  alpha:  4.894e-04  linmin:  2.851e-05  t[s]:   6440.56
	FillingsUpdate:  mu: +0.092968605  nElectrons: 348.000000  magneticMoment: [ Abs: 35.71807  Tot: -0.00000 ]
	SubspaceRotationAdjust: set factor to 0.195
ElecMinimize: Iter:  77  F: -2005.262439118427892  |grad|_K:  6.174e-05  alpha:  4.847e-04  linmin:  2.368e-05  t[s]:   6518.24
	FillingsUpdate:  mu: +0.096294144  nElectrons: 348.000000  magneticMoment: [ Abs: 35.70887  Tot: +0.00000 ]
	SubspaceRotationAdjust: set factor to 0.172
ElecMinimize: Iter:  78  F: -2005.262765551495704  |grad|_K:  5.990e-05  alpha:  4.946e-04  linmin:  1.713e-05  t[s]:   6596.96
	FillingsUpdate:  mu: +0.098566954  nElectrons: 348.000000  magneticMoment: [ Abs: 35.69936  Tot: +0.00000 ]
	SubspaceRotationAdjust: set factor to 0.151
ElecMinimize: Iter:  79  F: -2005.263087981896206  |grad|_K:  5.794e-05  alpha:  5.175e-04  linmin:  9.818e-06  t[s]:   6674.00
	FillingsUpdate:  mu: +0.099714887  nElectrons: 348.000000  magneticMoment: [ Abs: 35.68958  Tot: -0.00000 ]
	SubspaceRotationAdjust: set factor to 0.133
	SubspaceRotationAdjust: resetting CG because factor has changed by 0.132601
ElecMinimize: 	State modified externally: resetting search direction.
ElecMinimize: Iter:  80  F: -2005.263411132066722  |grad|_K:  5.389e-05  alpha:  5.526e-04
ElecMinimize: 	Predicted alpha/alphaT>3.000000, increasing alphaT to 1.657838e-03.
ElecMinimize: 	Predicted alpha/alphaT>3.000000, increasing alphaT to 4.973514e-03.
ElecMinimize: 	Predicted alpha/alphaT>3.000000, increasing alphaT to 1.492054e-02.
	FillingsUpdate:  mu: +0.122780412  nElectrons: 348.000000  magneticMoment: [ Abs: 35.93364  Tot: +0.00000 ]
	SubspaceRotationAdjust: set factor to 0.0837
ElecMinimize: Iter:  81  F: -2005.391134212762836  |grad|_K:  4.702e-05  alpha:  2.347e-01  linmin: -1.147e-02  t[s]:   6911.44
	FillingsUpdate:  mu: +0.172647331  nElectrons: 348.000000  magneticMoment: [ Abs: 35.79231  Tot: -0.00000 ]
	SubspaceRotationAdjust: set factor to 0.0591
ElecMinimize: Iter:  82  F: -2005.494126362482348  |grad|_K:  4.126e-05  alpha:  2.429e-01  linmin:  7.207e-03  t[s]:   6987.15
	FillingsUpdate:  mu: +0.131260354  nElectrons: 348.000000  magneticMoment: [ Abs: 36.18067  Tot: +0.00000 ]
	SubspaceRotationAdjust: set factor to 0.0639
ElecMinimize: Iter:  83  F: -2005.571340465664207  |grad|_K:  2.393e-05  alpha:  2.964e-01  linmin: -2.518e-03  t[s]:   7066.13
	FillingsUpdate:  mu: +0.128853227  nElectrons: 348.000000  magneticMoment: [ Abs: 36.45561  Tot: +0.00000 ]
	SubspaceRotationAdjust: set factor to 0.0764
ElecMinimize: Iter:  84  F: -2005.613771324270829  |grad|_K:  1.757e-05  alpha:  4.049e-01  linmin: -1.720e-03  t[s]:   7143.09
	FillingsUpdate:  mu: +0.134804603  nElectrons: 348.000000  magneticMoment: [ Abs: 36.65009  Tot: -0.00000 ]
	SubspaceRotationAdjust: set factor to 0.0715
ElecMinimize: Iter:  85  F: -2005.635170912259809  |grad|_K:  1.688e-05  alpha:  3.860e-01  linmin: -3.049e-04  t[s]:   7219.69
	FillingsUpdate:  mu: +0.122369950  nElectrons: 348.000000  magneticMoment: [ Abs: 37.04183  Tot: -0.00000 ]
	SubspaceRotationAdjust: set factor to 0.072
ElecMinimize: Iter:  86  F: -2005.654676710703143  |grad|_K:  1.501e-05  alpha:  3.884e-01  linmin: -7.626e-04  t[s]:   7296.54
	FillingsUpdate:  mu: +0.120600730  nElectrons: 348.000000  magneticMoment: [ Abs: 37.52219  Tot: -0.00000 ]
	SubspaceRotationAdjust: set factor to 0.0854
ElecMinimize: Iter:  87  F: -2005.676410966894991  |grad|_K:  1.529e-05  alpha:  5.333e-01  linmin: -3.883e-04  t[s]:   7373.34
	FillingsUpdate:  mu: +0.127972669  nElectrons: 348.000000  magneticMoment: [ Abs: 37.99937  Tot: +0.00000 ]
	SubspaceRotationAdjust: set factor to 0.0944
ElecMinimize: Iter:  88  F: -2005.696762338269536  |grad|_K:  1.455e-05  alpha:  4.894e-01  linmin: -3.727e-04  t[s]:   7447.35
	FillingsUpdate:  mu: +0.127038566  nElectrons: 348.000000  magneticMoment: [ Abs: 38.46369  Tot: +0.00000 ]
	SubspaceRotationAdjust: set factor to 0.0907
ElecMinimize: Iter:  89  F: -2005.713116348357516  |grad|_K:  1.488e-05  alpha:  4.283e-01  linmin:  2.597e-04  t[s]:   7522.77
	FillingsUpdate:  mu: +0.132830946  nElectrons: 348.000000  magneticMoment: [ Abs: 38.85996  Tot: -0.00000 ]
	SubspaceRotationAdjust: set factor to 0.0938
ElecMinimize: Iter:  90  F: -2005.728696634869948  |grad|_K:  1.267e-05  alpha:  4.113e-01  linmin: -3.328e-04  t[s]:   7601.99
	FillingsUpdate:  mu: +0.128819774  nElectrons: 348.000000  magneticMoment: [ Abs: 39.17887  Tot: -0.00000 ]
	SubspaceRotationAdjust: set factor to 0.107
ElecMinimize: Iter:  91  F: -2005.740656802662670  |grad|_K:  1.128e-05  alpha:  4.145e-01  linmin: -9.071e-05  t[s]:   7679.91
	FillingsUpdate:  mu: +0.129320932  nElectrons: 348.000000  magneticMoment: [ Abs: 39.45908  Tot: -0.00000 ]
	SubspaceRotationAdjust: set factor to 0.116
ElecMinimize: Iter:  92  F: -2005.749998760272774  |grad|_K:  1.022e-05  alpha:  4.167e-01  linmin: -2.043e-04  t[s]:   7755.54
	FillingsUpdate:  mu: +0.132515075  nElectrons: 348.000000  magneticMoment: [ Abs: 39.65691  Tot: +0.00000 ]
	SubspaceRotationAdjust: set factor to 0.117
ElecMinimize: Iter:  93  F: -2005.757242795060165  |grad|_K:  9.383e-06  alpha:  3.897e-01  linmin:  4.504e-05  t[s]:   7831.77
	FillingsUpdate:  mu: +0.129134641  nElectrons: 348.000000  magneticMoment: [ Abs: 39.85881  Tot: -0.00000 ]
	SubspaceRotationAdjust: set factor to 0.125
ElecMinimize: Iter:  94  F: -2005.763493277243242  |grad|_K:  8.478e-06  alpha:  4.070e-01  linmin: -2.002e-04  t[s]:   7904.65
	FillingsUpdate:  mu: +0.130840643  nElectrons: 348.000000  magneticMoment: [ Abs: 40.05118  Tot: +0.00000 ]
	SubspaceRotationAdjust: set factor to 0.143
ElecMinimize: Iter:  95  F: -2005.769233246219983  |grad|_K:  8.106e-06  alpha:  4.478e-01  linmin: -1.615e-05  t[s]:   7980.61
	FillingsUpdate:  mu: +0.131636905  nElectrons: 348.000000  magneticMoment: [ Abs: 40.22538  Tot: +0.00000 ]
	SubspaceRotationAdjust: set factor to 0.161
ElecMinimize: Iter:  96  F: -2005.774032847198441  |grad|_K:  7.819e-06  alpha:  4.164e-01  linmin:  5.772e-05  t[s]:   8059.68
	FillingsUpdate:  mu: +0.130281805  nElectrons: 348.000000  magneticMoment: [ Abs: 40.39957  Tot: +0.00000 ]
	SubspaceRotationAdjust: set factor to 0.167
ElecMinimize: Iter:  97  F: -2005.778406980765340  |grad|_K:  7.596e-06  alpha:  4.121e-01  linmin: -1.467e-04  t[s]:   8138.36
	FillingsUpdate:  mu: +0.134780733  nElectrons: 348.000000  magneticMoment: [ Abs: 40.55319  Tot: +0.00000 ]
	SubspaceRotationAdjust: set factor to 0.16
ElecMinimize: Iter:  98  F: -2005.781893735332915  |grad|_K:  7.206e-06  alpha:  3.381e-01  linmin:  3.503e-05  t[s]:   8217.26
	FillingsUpdate:  mu: +0.129724876  nElectrons: 348.000000  magneticMoment: [ Abs: 40.68130  Tot: -0.00000 ]
	SubspaceRotationAdjust: set factor to 0.158
ElecMinimize: Iter:  99  F: -2005.784865638624524  |grad|_K:  6.141e-06  alpha:  3.288e-01  linmin: -6.804e-05  t[s]:   8294.85
	FillingsUpdate:  mu: +0.131005622  nElectrons: 348.000000  magneticMoment: [ Abs: 40.78628  Tot: +0.00000 ]
	SubspaceRotationAdjust: set factor to 0.179
ElecMinimize: Iter: 100  F: -2005.787338622740890  |grad|_K:  5.300e-06  alpha:  3.723e-01  linmin:  4.842e-05  t[s]:   8372.78
	FillingsUpdate:  mu: +0.131110495  nElectrons: 348.000000  magneticMoment: [ Abs: 40.87629  Tot: -0.00000 ]
	SubspaceRotationAdjust: set factor to 0.213
ElecMinimize: Iter: 101  F: -2005.789250657774573  |grad|_K:  4.676e-06  alpha:  3.911e-01  linmin: -6.179e-05  t[s]:   8447.28
	FillingsUpdate:  mu: +0.130620573  nElectrons: 348.000000  magneticMoment: [ Abs: 40.94872  Tot: -0.00000 ]
	SubspaceRotationAdjust: set factor to 0.252
ElecMinimize: Iter: 102  F: -2005.790786447752680  |grad|_K:  4.361e-06  alpha:  3.989e-01  linmin: -4.671e-05  t[s]:   8526.69
	FillingsUpdate:  mu: +0.134079654  nElectrons: 348.000000  magneticMoment: [ Abs: 41.00255  Tot: -0.00000 ]
	SubspaceRotationAdjust: set factor to 0.26
ElecMinimize: Iter: 103  F: -2005.791961780352722  |grad|_K:  4.740e-06  alpha:  3.522e-01  linmin: -4.500e-05  t[s]:   8601.09
	FillingsUpdate:  mu: +0.129739586  nElectrons: 348.000000  magneticMoment: [ Abs: 41.03806  Tot: -0.00000 ]
	SubspaceRotationAdjust: set factor to 0.214
ElecMinimize: Iter: 104  F: -2005.792774465231105  |grad|_K:  4.600e-06  alpha:  2.034e-01  linmin: -3.004e-05  t[s]:   8676.62
	FillingsUpdate:  mu: +0.133321986  nElectrons: 348.000000  magneticMoment: [ Abs: 41.08279  Tot: +0.00000 ]
	SubspaceRotationAdjust: set factor to 0.22
ElecMinimize: Iter: 105  F: -2005.793756970746699  |grad|_K:  3.609e-06  alpha:  2.624e-01  linmin: -1.394e-04  t[s]:   8749.35
	FillingsUpdate:  mu: +0.132587742  nElectrons: 348.000000  magneticMoment: [ Abs: 41.11430  Tot: -0.00000 ]
	SubspaceRotationAdjust: set factor to 0.252
ElecMinimize: Iter: 106  F: -2005.794638149850698  |grad|_K:  3.107e-06  alpha:  3.783e-01  linmin:  1.720e-05  t[s]:   8826.21
	FillingsUpdate:  mu: +0.132112827  nElectrons: 348.000000  magneticMoment: [ Abs: 41.13247  Tot: +0.00000 ]
	SubspaceRotationAdjust: set factor to 0.295
ElecMinimize: Iter: 107  F: -2005.795275127481318  |grad|_K:  2.772e-06  alpha:  3.785e-01  linmin:  6.931e-06  t[s]:   8904.73
	FillingsUpdate:  mu: +0.133713707  nElectrons: 348.000000  magneticMoment: [ Abs: 41.14236  Tot: -0.00000 ]
	SubspaceRotationAdjust: set factor to 0.324
ElecMinimize: Iter: 108  F: -2005.795776818013792  |grad|_K:  2.694e-06  alpha:  3.738e-01  linmin: -7.796e-05  t[s]:   8982.28
	FillingsUpdate:  mu: +0.131024809  nElectrons: 348.000000  magneticMoment: [ Abs: 41.14074  Tot: -0.00000 ]
	SubspaceRotationAdjust: set factor to 0.278
ElecMinimize: Iter: 109  F: -2005.796117777089876  |grad|_K:  3.015e-06  alpha:  2.651e-01  linmin:  6.179e-07  t[s]:   9061.48
	FillingsUpdate:  mu: +0.134389299  nElectrons: 348.000000  magneticMoment: [ Abs: 41.13924  Tot: -0.00000 ]
	SubspaceRotationAdjust: set factor to 0.268
ElecMinimize: Iter: 110  F: -2005.796469864515302  |grad|_K:  2.569e-06  alpha:  2.233e-01  linmin: -8.125e-05  t[s]:   9140.07
	FillingsUpdate:  mu: +0.134429048  nElectrons: 348.000000  magneticMoment: [ Abs: 41.13293  Tot: -0.00000 ]
	SubspaceRotationAdjust: set factor to 0.33
ElecMinimize: Iter: 111  F: -2005.796914814058027  |grad|_K:  2.462e-06  alpha:  3.794e-01  linmin: -7.588e-06  t[s]:   9216.94
	FillingsUpdate:  mu: +0.133125313  nElectrons: 348.000000  magneticMoment: [ Abs: 41.12317  Tot: -0.00000 ]
	SubspaceRotationAdjust: set factor to 0.371
ElecMinimize: Iter: 112  F: -2005.797327990762142  |grad|_K:  2.721e-06  alpha:  3.892e-01  linmin:  3.450e-05  t[s]:   9294.06
	FillingsUpdate:  mu: +0.136179129  nElectrons: 348.000000  magneticMoment: [ Abs: 41.12122  Tot: +0.00000 ]
	SubspaceRotationAdjust: set factor to 0.363
ElecMinimize: Iter: 113  F: -2005.797626814200839  |grad|_K:  2.897e-06  alpha:  2.272e-01  linmin: -4.739e-05  t[s]:   9370.15
	FillingsUpdate:  mu: +0.135617043  nElectrons: 348.000000  magneticMoment: [ Abs: 41.11416  Tot: +0.00000 ]
	SubspaceRotationAdjust: set factor to 0.462
ElecMinimize: Iter: 114  F: -2005.797970153898177  |grad|_K:  2.619e-06  alpha:  2.320e-01  linmin:  9.204e-05  t[s]:   9449.23
	FillingsUpdate:  mu: +0.135139412  nElectrons: 348.000000  magneticMoment: [ Abs: 41.11284  Tot: -0.00000 ]
	SubspaceRotationAdjust: set factor to 0.448
ElecMinimize: Iter: 115  F: -2005.798307110118685  |grad|_K:  3.002e-06  alpha:  2.844e-01  linmin: -1.091e-04  t[s]:   9524.33
	FillingsUpdate:  mu: +0.137980386  nElectrons: 348.000000  magneticMoment: [ Abs: 41.12193  Tot: +0.00000 ]
	SubspaceRotationAdjust: set factor to 0.441
ElecMinimize: Iter: 116  F: -2005.798581523853954  |grad|_K:  3.065e-06  alpha:  1.731e-01  linmin: -9.243e-06  t[s]:   9601.21
	FillingsUpdate:  mu: +0.136670508  nElectrons: 348.000000  magneticMoment: [ Abs: 41.12924  Tot: -0.00000 ]
	SubspaceRotationAdjust: set factor to 0.499
ElecMinimize: Iter: 117  F: -2005.798945147928634  |grad|_K:  2.640e-06  alpha:  2.191e-01  linmin: -1.109e-04  t[s]:   9676.91
	FillingsUpdate:  mu: +0.137123088  nElectrons: 348.000000  magneticMoment: [ Abs: 41.15470  Tot: +0.00000 ]
	SubspaceRotationAdjust: set factor to 0.622
ElecMinimize: Iter: 118  F: -2005.799362138964852  |grad|_K:  2.668e-06  alpha:  3.318e-01  linmin: -1.999e-05  t[s]:   9755.51
	FillingsUpdate:  mu: +0.138865330  nElectrons: 348.000000  magneticMoment: [ Abs: 41.20343  Tot: +0.00000 ]
	SubspaceRotationAdjust: set factor to 0.547
ElecMinimize: Iter: 119  F: -2005.799689855574570  |grad|_K:  3.356e-06  alpha:  2.522e-01  linmin: -4.512e-05  t[s]:   9831.47
	FillingsUpdate:  mu: +0.136859174  nElectrons: 348.000000  magneticMoment: [ Abs: 41.22477  Tot: -0.00000 ]
	SubspaceRotationAdjust: set factor to 0.562
ElecMinimize: Iter: 120  F: -2005.799821879286128  |grad|_K:  2.987e-06  alpha:  5.073e-02  linmin: -1.040e-03  t[s]:   9907.31
	FillingsUpdate:  mu: +0.132621693  nElectrons: 348.000000  magneticMoment: [ Abs: 41.27584  Tot: -0.00000 ]
	SubspaceRotationAdjust: set factor to 0.324
ElecMinimize: Iter: 121  F: -2005.800085658700937  |grad|_K:  5.816e-06  alpha:  1.419e-01  linmin:  3.527e-04  t[s]:   9984.43
	FillingsUpdate:  mu: +0.132984000  nElectrons: 348.000000  magneticMoment: [ Abs: 41.29925  Tot: -0.00000 ]
	SubspaceRotationAdjust: set factor to 0.216
ElecMinimize: Iter: 122  F: -2005.800232632672760  |grad|_K:  4.709e-06  alpha:  1.635e-02  linmin: -2.000e-03  t[s]:  10059.94
ElecMinimize: 	Predicted alpha/alphaT>3.000000, increasing alphaT to 4.905444e-02.
	FillingsUpdate:  mu: +0.140136843  nElectrons: 348.000000  magneticMoment: [ Abs: 41.38272  Tot: -0.00000 ]
	SubspaceRotationAdjust: set factor to 0.255
ElecMinimize: Iter: 123  F: -2005.800831379021247  |grad|_K:  3.540e-06  alpha:  8.686e-02  linmin: -8.356e-04  t[s]:  10169.16
ElecMinimize: 	Predicted alpha/alphaT>3.000000, increasing alphaT to 2.605850e-01.
	FillingsUpdate:  mu: +0.140607362  nElectrons: 348.000000  magneticMoment: [ Abs: 41.40560  Tot: -0.00000 ]
	SubspaceRotationAdjust: set factor to 0.282
ElecMinimize: Iter: 124  F: -2005.801059234390777  |grad|_K:  3.441e-06  alpha:  3.871e-02  linmin: -3.162e-03  t[s]:  10269.63
ElecMinimize: 	Predicted alpha/alphaT>3.000000, increasing alphaT to 1.161345e-01.
ElecMinimize: 	Step increased F by 5.517331e-04, reducing alpha to 1.858232e-02.
	FillingsUpdate:  mu: +0.140532151  nElectrons: 348.000000  magneticMoment: [ Abs: 41.41661  Tot: -0.00000 ]
	SubspaceRotationAdjust: set factor to 0.327
ElecMinimize: Iter: 125  F: -2005.801235112967106  |grad|_K:  3.207e-06  alpha:  1.858e-02  linmin: -5.731e-03  t[s]:  10420.52
ElecMinimize: 	Predicted alpha/alphaT>3.000000, increasing alphaT to 5.574696e-02.
ElecMinimize: 	Predicted alpha/alphaT>3.000000, increasing alphaT to 1.672409e-01.
	FillingsUpdate:  mu: +0.137494193  nElectrons: 348.000000  magneticMoment: [ Abs: 41.46606  Tot: +0.00000 ]
	SubspaceRotationAdjust: set factor to 0.217
ElecMinimize: Iter: 126  F: -2005.801960955987397  |grad|_K:  3.790e-06  alpha:  8.435e-02  linmin: -4.308e-03  t[s]:  10561.66
	FillingsUpdate:  mu: +0.135701457  nElectrons: 348.000000  magneticMoment: [ Abs: 41.48463  Tot: -0.00000 ]
	SubspaceRotationAdjust: set factor to 0.151
ElecMinimize: Iter: 127  F: -2005.802130756790120  |grad|_K:  4.176e-06  alpha:  2.139e-02  linmin: -2.762e-03  t[s]:  10638.06
	FillingsUpdate:  mu: +0.133028604  nElectrons: 348.000000  magneticMoment: [ Abs: 41.50700  Tot: -0.00000 ]
	SubspaceRotationAdjust: set factor to 0.115
ElecMinimize: Iter: 128  F: -2005.802264242309320  |grad|_K:  4.958e-06  alpha:  2.321e-02  linmin:  6.405e-04  t[s]:  10714.23
	FillingsUpdate:  mu: +0.132464194  nElectrons: 348.000000  magneticMoment: [ Abs: 41.51112  Tot: +0.00000 ]
	SubspaceRotationAdjust: set factor to 0.0952
ElecMinimize: Iter: 129  F: -2005.802276925760452  |grad|_K:  4.787e-06  alpha:  3.428e-03  linmin: -2.966e-04  t[s]:  10786.92
	FillingsUpdate:  mu: +0.131416343  nElectrons: 348.000000  magneticMoment: [ Abs: 41.51906  Tot: +0.00000 ]
	SubspaceRotationAdjust: set factor to 0.0827
ElecMinimize: Iter: 130  F: -2005.802311707876697  |grad|_K:  4.940e-06  alpha:  7.932e-03  linmin:  1.849e-04  t[s]:  10863.34
	FillingsUpdate:  mu: +0.130782379  nElectrons: 348.000000  magneticMoment: [ Abs: 41.52375  Tot: -0.00000 ]
	SubspaceRotationAdjust: set factor to 0.0741
ElecMinimize: Iter: 131  F: -2005.802331566387693  |grad|_K:  4.967e-06  alpha:  5.034e-03  linmin: -6.356e-06  t[s]:  10942.88
	FillingsUpdate:  mu: +0.130194088  nElectrons: 348.000000  magneticMoment: [ Abs: 41.52825  Tot: -0.00000 ]
	SubspaceRotationAdjust: set factor to 0.0669
ElecMinimize: Iter: 132  F: -2005.802355047629135  |grad|_K:  4.993e-06  alpha:  5.439e-03  linmin:  3.891e-05  t[s]:  11021.81
	FillingsUpdate:  mu: +0.129743770  nElectrons: 348.000000  magneticMoment: [ Abs: 41.53188  Tot: +0.00000 ]
	SubspaceRotationAdjust: set factor to 0.0605
ElecMinimize: Iter: 133  F: -2005.802376263142833  |grad|_K:  4.966e-06  alpha:  4.961e-03  linmin:  1.916e-05  t[s]:  11097.79
	FillingsUpdate:  mu: +0.129395451  nElectrons: 348.000000  magneticMoment: [ Abs: 41.53497  Tot: +0.00000 ]
	SubspaceRotationAdjust: set factor to 0.0545
ElecMinimize: Iter: 134  F: -2005.802397049915498  |grad|_K:  4.895e-06  alpha:  4.870e-03  linmin:  1.729e-05  t[s]:  11175.48
	FillingsUpdate:  mu: +0.129140017  nElectrons: 348.000000  magneticMoment: [ Abs: 41.53761  Tot: -0.00000 ]
	SubspaceRotationAdjust: set factor to 0.0489
ElecMinimize: Iter: 135  F: -2005.802417100725961  |grad|_K:  4.783e-06  alpha:  4.832e-03  linmin:  1.245e-05  t[s]:  11250.96
	FillingsUpdate:  mu: +0.128964315  nElectrons: 348.000000  magneticMoment: [ Abs: 41.53990  Tot: -0.00000 ]
	SubspaceRotationAdjust: set factor to 0.0439
ElecMinimize: Iter: 136  F: -2005.802436609988945  |grad|_K:  4.641e-06  alpha:  4.912e-03  linmin:  8.248e-06  t[s]:  11324.83
	FillingsUpdate:  mu: +0.128858289  nElectrons: 348.000000  magneticMoment: [ Abs: 41.54194  Tot: -0.00000 ]
	SubspaceRotationAdjust: set factor to 0.0395
ElecMinimize: Iter: 137  F: -2005.802455691610248  |grad|_K:  4.484e-06  alpha:  5.088e-03  linmin:  4.020e-06  t[s]:  11401.55
	FillingsUpdate:  mu: +0.128814253  nElectrons: 348.000000  magneticMoment: [ Abs: 41.54381  Tot: -0.00000 ]
	SubspaceRotationAdjust: set factor to 0.0359
ElecMinimize: Iter: 138  F: -2005.802474489240467  |grad|_K:  4.324e-06  alpha:  5.358e-03  linmin: -3.281e-07  t[s]:  11480.72
	FillingsUpdate:  mu: +0.128826708  nElectrons: 348.000000  magneticMoment: [ Abs: 41.54558  Tot: +0.00000 ]
	SubspaceRotationAdjust: set factor to 0.033
ElecMinimize: Iter: 139  F: -2005.802493179652856  |grad|_K:  4.177e-06  alpha:  5.714e-03  linmin: -4.601e-06  t[s]:  11557.48
	FillingsUpdate:  mu: +0.128892191  nElectrons: 348.000000  magneticMoment: [ Abs: 41.54730  Tot: +0.00000 ]
	SubspaceRotationAdjust: set factor to 0.0311
ElecMinimize: Iter: 140  F: -2005.802511973980472  |grad|_K:  4.054e-06  alpha:  6.143e-03  linmin: -8.752e-06  t[s]:  11634.61
	FillingsUpdate:  mu: +0.129009072  nElectrons: 348.000000  magneticMoment: [ Abs: 41.54903  Tot: -0.00000 ]
	SubspaceRotationAdjust: set factor to 0.03
ElecMinimize: Iter: 141  F: -2005.802531125465066  |grad|_K:  3.966e-06  alpha:  6.629e-03  linmin: -1.260e-05  t[s]:  11712.16
	FillingsUpdate:  mu: +0.129177222  nElectrons: 348.000000  magneticMoment: [ Abs: 41.55086  Tot: +0.00000 ]
	SubspaceRotationAdjust: set factor to 0.0298
ElecMinimize: Iter: 142  F: -2005.802550920729345  |grad|_K:  3.917e-06  alpha:  7.144e-03  linmin: -1.600e-05  t[s]:  11788.82
	FillingsUpdate:  mu: +0.129397488  nElectrons: 348.000000  magneticMoment: [ Abs: 41.55284  Tot: -0.00000 ]
	SubspaceRotationAdjust: set factor to 0.0306
ElecMinimize: Iter: 143  F: -2005.802571655382053  |grad|_K:  3.904e-06  alpha:  7.658e-03  linmin: -1.884e-05  t[s]:  11865.62
	FillingsUpdate:  mu: +0.129671112  nElectrons: 348.000000  magneticMoment: [ Abs: 41.55500  Tot: -0.00000 ]
	SubspaceRotationAdjust: set factor to 0.0322
ElecMinimize: Iter: 144  F: -2005.802593590526385  |grad|_K:  3.918e-06  alpha:  8.141e-03  linmin: -2.102e-05  t[s]:  11942.58
	FillingsUpdate:  mu: +0.129999220  nElectrons: 348.000000  magneticMoment: [ Abs: 41.55740  Tot: -0.00000 ]
	SubspaceRotationAdjust: set factor to 0.0346
ElecMinimize: Iter: 145  F: -2005.802616890875015  |grad|_K:  3.945e-06  alpha:  8.574e-03  linmin: -2.253e-05  t[s]:  12018.75
	FillingsUpdate:  mu: +0.130382601  nElectrons: 348.000000  magneticMoment: [ Abs: 41.56004  Tot: -0.00000 ]
	SubspaceRotationAdjust: set factor to 0.0376
ElecMinimize: Iter: 146  F: -2005.802641559884023  |grad|_K:  3.966e-06  alpha:  8.949e-03  linmin: -2.329e-05  t[s]:  12094.81
	FillingsUpdate:  mu: +0.130821713  nElectrons: 348.000000  magneticMoment: [ Abs: 41.56288  Tot: +0.00000 ]
	SubspaceRotationAdjust: set factor to 0.0411
ElecMinimize: Iter: 147  F: -2005.802667393310003  |grad|_K:  3.968e-06  alpha:  9.267e-03  linmin: -2.333e-05  t[s]:  12171.88
	FillingsUpdate:  mu: +0.131316119  nElectrons: 348.000000  magneticMoment: [ Abs: 41.56587  Tot: -0.00000 ]
	SubspaceRotationAdjust: set factor to 0.0451
ElecMinimize: Iter: 148  F: -2005.802693992996183  |grad|_K:  3.942e-06  alpha:  9.535e-03  linmin: -2.280e-05  t[s]:  12248.63
	FillingsUpdate:  mu: +0.131859634  nElectrons: 348.000000  magneticMoment: [ Abs: 41.56894  Tot: +0.00000 ]
	SubspaceRotationAdjust: set factor to 0.0498
ElecMinimize: Iter: 149  F: -2005.802720854732570  |grad|_K:  3.891e-06  alpha:  9.759e-03  linmin: -2.194e-05  t[s]:  12325.70
	FillingsUpdate:  mu: +0.132419428  nElectrons: 348.000000  magneticMoment: [ Abs: 41.57203  Tot: +0.00000 ]
	SubspaceRotationAdjust: set factor to 0.0559
ElecMinimize: Iter: 150  F: -2005.802747501139265  |grad|_K:  3.827e-06  alpha:  9.944e-03  linmin: -2.090e-05  t[s]:  12401.55
	FillingsUpdate:  mu: +0.132916873  nElectrons: 348.000000  magneticMoment: [ Abs: 41.57505  Tot: -0.00000 ]
	SubspaceRotationAdjust: set factor to 0.0645
ElecMinimize: Iter: 151  F: -2005.802773590620291  |grad|_K:  3.767e-06  alpha:  1.008e-02  linmin: -1.980e-05  t[s]:  12480.20
	FillingsUpdate:  mu: +0.133338600  nElectrons: 348.000000  magneticMoment: [ Abs: 41.57795  Tot: +0.00000 ]
	SubspaceRotationAdjust: set factor to 0.0777
ElecMinimize: Iter: 152  F: -2005.802798956173092  |grad|_K:  3.728e-06  alpha:  1.012e-02  linmin: -1.863e-05  t[s]:  12556.97
	FillingsUpdate:  mu: +0.133767613  nElectrons: 348.000000  magneticMoment: [ Abs: 41.58068  Tot: -0.00000 ]
	SubspaceRotationAdjust: set factor to 0.0988
ElecMinimize: Iter: 153  F: -2005.802823560779871  |grad|_K:  3.721e-06  alpha:  1.004e-02  linmin: -1.739e-05  t[s]:  12633.75
	FillingsUpdate:  mu: +0.134246211  nElectrons: 348.000000  magneticMoment: [ Abs: 41.58328  Tot: +0.00000 ]
	SubspaceRotationAdjust: set factor to 0.134
ElecMinimize: Iter: 154  F: -2005.802847409789592  |grad|_K:  3.748e-06  alpha:  9.776e-03  linmin: -1.600e-05  t[s]:  12712.14
	FillingsUpdate:  mu: +0.134759644  nElectrons: 348.000000  magneticMoment: [ Abs: 41.58571  Tot: +0.00000 ]
	SubspaceRotationAdjust: set factor to 0.179
ElecMinimize: Iter: 155  F: -2005.802870463351155  |grad|_K:  3.804e-06  alpha:  9.323e-03  linmin: -1.455e-05  t[s]:  12790.38
	FillingsUpdate:  mu: +0.135214873  nElectrons: 348.000000  magneticMoment: [ Abs: 41.58803  Tot: -0.00000 ]
	SubspaceRotationAdjust: set factor to 0.233
ElecMinimize: Iter: 156  F: -2005.802892618835131  |grad|_K:  3.829e-06  alpha:  8.708e-03  linmin: -1.313e-05  t[s]:  12869.10
	FillingsUpdate:  mu: +0.135507366  nElectrons: 348.000000  magneticMoment: [ Abs: 41.59028  Tot: +0.00000 ]
	SubspaceRotationAdjust: set factor to 0.293
ElecMinimize: Iter: 157  F: -2005.802914004623517  |grad|_K:  3.847e-06  alpha:  8.295e-03  linmin: -1.303e-05  t[s]:  12945.84
	FillingsUpdate:  mu: +0.135698062  nElectrons: 348.000000  magneticMoment: [ Abs: 41.59269  Tot: -0.00000 ]
	SubspaceRotationAdjust: set factor to 0.356
ElecMinimize: Iter: 158  F: -2005.802935204113510  |grad|_K:  3.906e-06  alpha:  8.142e-03  linmin: -1.322e-05  t[s]:  13019.82
	FillingsUpdate:  mu: +0.135825234  nElectrons: 348.000000  magneticMoment: [ Abs: 41.59558  Tot: -0.00000 ]
	SubspaceRotationAdjust: set factor to 0.431
ElecMinimize: Iter: 159  F: -2005.802957373388836  |grad|_K:  4.076e-06  alpha:  8.250e-03  linmin: -1.334e-05  t[s]:  13099.43
	FillingsUpdate:  mu: +0.135855691  nElectrons: 348.000000  magneticMoment: [ Abs: 41.59943  Tot: -0.00000 ]
	SubspaceRotationAdjust: set factor to 0.54
ElecMinimize: Iter: 160  F: -2005.802982095450488  |grad|_K:  4.392e-06  alpha:  8.448e-03  linmin: -1.192e-05  t[s]:  13177.73
	FillingsUpdate:  mu: +0.135765840  nElectrons: 348.000000  magneticMoment: [ Abs: 41.60479  Tot: +0.00000 ]
	SubspaceRotationAdjust: set factor to 0.644
ElecMinimize: Iter: 161  F: -2005.803010420123201  |grad|_K:  4.812e-06  alpha:  8.343e-03  linmin: -7.058e-06  t[s]:  13253.77
	FillingsUpdate:  mu: +0.135510362  nElectrons: 348.000000  magneticMoment: [ Abs: 41.61178  Tot: +0.00000 ]
	SubspaceRotationAdjust: set factor to 0.714
ElecMinimize: Iter: 162  F: -2005.803041018590193  |grad|_K:  5.051e-06  alpha:  7.526e-03  linmin:  5.921e-08  t[s]:  13328.16
	FillingsUpdate:  mu: +0.135146081  nElectrons: 348.000000  magneticMoment: [ Abs: 41.61963  Tot: +0.00000 ]
	SubspaceRotationAdjust: set factor to 0.882
ElecMinimize: Iter: 163  F: -2005.803070067613362  |grad|_K:  4.962e-06  alpha:  6.503e-03  linmin:  4.464e-06  t[s]:  13408.95
	FillingsUpdate:  mu: +0.134836997  nElectrons: 348.000000  magneticMoment: [ Abs: 41.62764  Tot: -0.00000 ]
	SubspaceRotationAdjust: set factor to 1.21
	SubspaceRotationAdjust: resetting CG because factor has changed by 9.10268
ElecMinimize: 	State modified externally: resetting search direction.
ElecMinimize: Iter: 164  F: -2005.803095432982900  |grad|_K:  5.233e-06  alpha:  5.901e-03
ElecMinimize: 	Predicted alpha/alphaT>3.000000, increasing alphaT to 1.770285e-02.
ElecMinimize: 	Predicted alpha/alphaT>3.000000, increasing alphaT to 5.310854e-02.
ElecMinimize: 	Predicted alpha/alphaT>3.000000, increasing alphaT to 1.593256e-01.
	FillingsUpdate:  mu: +0.132400122  nElectrons: 348.000000  magneticMoment: [ Abs: 41.67062  Tot: -0.00000 ]
	SubspaceRotationAdjust: set factor to 0.622
ElecMinimize: Iter: 165  F: -2005.803963562796071  |grad|_K:  1.356e-05  alpha:  1.886e-01  linmin:  8.180e-04  t[s]:  13645.01
	FillingsUpdate:  mu: +0.133965257  nElectrons: 348.000000  magneticMoment: [ Abs: 41.68541  Tot: +0.00000 ]
	SubspaceRotationAdjust: set factor to 0.354
ElecMinimize: Iter: 166  F: -2005.804760632885291  |grad|_K:  7.188e-06  alpha:  1.711e-02  linmin: -6.041e-03  t[s]:  13725.26
	FillingsUpdate:  mu: +0.137029494  nElectrons: 348.000000  magneticMoment: [ Abs: 41.68354  Tot: -0.00000 ]
	SubspaceRotationAdjust: set factor to 0.238
ElecMinimize: Iter: 167  F: -2005.805381478818617  |grad|_K:  3.961e-06  alpha:  4.154e-02  linmin: -1.719e-03  t[s]:  13805.72
ElecMinimize: 	Predicted alpha/alphaT>3.000000, increasing alphaT to 1.246127e-01.
	FillingsUpdate:  mu: +0.132490968  nElectrons: 348.000000  magneticMoment: [ Abs: 41.70460  Tot: -0.00000 ]
	SubspaceRotationAdjust: set factor to 0.169
ElecMinimize: Iter: 168  F: -2005.806555941821671  |grad|_K:  4.677e-06  alpha:  3.650e-01  linmin:  8.834e-04  t[s]:  13917.98
	FillingsUpdate:  mu: +0.131845443  nElectrons: 348.000000  magneticMoment: [ Abs: 41.72465  Tot: -0.00000 ]
	SubspaceRotationAdjust: set factor to 0.179
ElecMinimize: Iter: 169  F: -2005.806894252161328  |grad|_K:  3.277e-06  alpha:  7.773e-02  linmin: -2.003e-03  t[s]:  13994.91
	FillingsUpdate:  mu: +0.133453055  nElectrons: 348.000000  magneticMoment: [ Abs: 41.74994  Tot: -0.00000 ]
	SubspaceRotationAdjust: set factor to 0.148
	SubspaceRotationAdjust: resetting CG because factor has changed by 0.122267
ElecMinimize: 	State modified externally: resetting search direction.
ElecMinimize: Iter: 170  F: -2005.807176045701453  |grad|_K:  2.890e-06  alpha:  1.250e-01
	FillingsUpdate:  mu: +0.133597097  nElectrons: 348.000000  magneticMoment: [ Abs: 41.74755  Tot: -0.00000 ]
	SubspaceRotationAdjust: set factor to 0.106
ElecMinimize: Iter: 171  F: -2005.807508637535648  |grad|_K:  1.611e-06  alpha:  2.202e-01  linmin: -6.868e-03  t[s]:  14165.61
	FillingsUpdate:  mu: +0.136065089  nElectrons: 348.000000  magneticMoment: [ Abs: 41.77477  Tot: -0.00000 ]
	SubspaceRotationAdjust: set factor to 0.118
ElecMinimize: Iter: 172  F: -2005.807757710528222  |grad|_K:  1.294e-06  alpha:  5.034e-01  linmin: -1.779e-03  t[s]:  14241.67
	FillingsUpdate:  mu: +0.135726746  nElectrons: 348.000000  magneticMoment: [ Abs: 41.80021  Tot: +0.00000 ]
	SubspaceRotationAdjust: set factor to 0.139
ElecMinimize: Iter: 173  F: -2005.807958097673691  |grad|_K:  1.485e-06  alpha:  6.610e-01  linmin: -3.538e-05  t[s]:  14315.98
	FillingsUpdate:  mu: +0.135148344  nElectrons: 348.000000  magneticMoment: [ Abs: 41.82902  Tot: -0.00000 ]
	SubspaceRotationAdjust: set factor to 0.159
ElecMinimize: Iter: 174  F: -2005.808164862270132  |grad|_K:  1.528e-06  alpha:  5.347e-01  linmin:  1.395e-05  t[s]:  14398.87
	FillingsUpdate:  mu: +0.135070860  nElectrons: 348.000000  magneticMoment: [ Abs: 41.85424  Tot: -0.00000 ]
	SubspaceRotationAdjust: set factor to 0.185
ElecMinimize: Iter: 175  F: -2005.808369735373162  |grad|_K:  1.612e-06  alpha:  5.026e-01  linmin: -9.472e-05  t[s]:  14476.42
	FillingsUpdate:  mu: +0.134822939  nElectrons: 348.000000  magneticMoment: [ Abs: 41.87741  Tot: -0.00000 ]
	SubspaceRotationAdjust: set factor to 0.203
ElecMinimize: Iter: 176  F: -2005.808606468008293  |grad|_K:  1.800e-06  alpha:  5.167e-01  linmin: -9.026e-07  t[s]:  14551.25
	FillingsUpdate:  mu: +0.134905443  nElectrons: 348.000000  magneticMoment: [ Abs: 41.90531  Tot: -0.00000 ]
	SubspaceRotationAdjust: set factor to 0.222
ElecMinimize: Iter: 177  F: -2005.808878117969471  |grad|_K:  1.860e-06  alpha:  4.793e-01  linmin:  1.605e-05  t[s]:  14628.82
	FillingsUpdate:  mu: +0.135272316  nElectrons: 348.000000  magneticMoment: [ Abs: 41.93169  Tot: -0.00000 ]
	SubspaceRotationAdjust: set factor to 0.241
ElecMinimize: Iter: 178  F: -2005.809136521436358  |grad|_K:  1.676e-06  alpha:  4.281e-01  linmin: -3.355e-06  t[s]:  14704.74
	FillingsUpdate:  mu: +0.135034403  nElectrons: 348.000000  magneticMoment: [ Abs: 41.95139  Tot: +0.00000 ]
	SubspaceRotationAdjust: set factor to 0.268
ElecMinimize: Iter: 179  F: -2005.809322686946643  |grad|_K:  1.444e-06  alpha:  3.789e-01  linmin: -4.324e-06  t[s]:  14783.58
	FillingsUpdate:  mu: +0.134827010  nElectrons: 348.000000  magneticMoment: [ Abs: 41.96793  Tot: -0.00000 ]
	SubspaceRotationAdjust: set factor to 0.305
ElecMinimize: Iter: 180  F: -2005.809465630015438  |grad|_K:  1.203e-06  alpha:  3.918e-01  linmin: -7.467e-05  t[s]:  14861.67
	FillingsUpdate:  mu: +0.134915621  nElectrons: 348.000000  magneticMoment: [ Abs: 41.98049  Tot: +0.00000 ]
	SubspaceRotationAdjust: set factor to 0.351
ElecMinimize: Iter: 181  F: -2005.809579318042324  |grad|_K:  1.034e-06  alpha:  4.446e-01  linmin: -8.418e-05  t[s]:  14942.05
	FillingsUpdate:  mu: +0.134865985  nElectrons: 348.000000  magneticMoment: [ Abs: 41.98782  Tot: -0.00000 ]
	SubspaceRotationAdjust: set factor to 0.414
ElecMinimize: Iter: 182  F: -2005.809659204415311  |grad|_K:  9.749e-07  alpha:  4.243e-01  linmin: -8.320e-07  t[s]:  15020.93
	FillingsUpdate:  mu: +0.135036403  nElectrons: 348.000000  magneticMoment: [ Abs: 41.99415  Tot: +0.00000 ]
	SubspaceRotationAdjust: set factor to 0.493
ElecMinimize: Iter: 183  F: -2005.809734272869946  |grad|_K:  9.723e-07  alpha:  4.515e-01  linmin: -2.527e-06  t[s]:  15097.17
	FillingsUpdate:  mu: +0.134823622  nElectrons: 348.000000  magneticMoment: [ Abs: 42.00016  Tot: +0.00000 ]
	SubspaceRotationAdjust: set factor to 0.569
ElecMinimize: Iter: 184  F: -2005.809817652180300  |grad|_K:  1.096e-06  alpha:  5.044e-01  linmin:  1.668e-05  t[s]:  15176.12
	FillingsUpdate:  mu: +0.135204427  nElectrons: 348.000000  magneticMoment: [ Abs: 42.00616  Tot: +0.00000 ]
	SubspaceRotationAdjust: set factor to 0.594
ElecMinimize: Iter: 185  F: -2005.809910721063716  |grad|_K:  1.364e-06  alpha:  4.445e-01  linmin:  3.963e-07  t[s]:  15253.81
	FillingsUpdate:  mu: +0.134004967  nElectrons: 348.000000  magneticMoment: [ Abs: 42.00964  Tot: -0.00000 ]
	SubspaceRotationAdjust: set factor to 0.503
ElecMinimize: Iter: 186  F: -2005.809996250658514  |grad|_K:  1.669e-06  alpha:  2.378e-01  linmin: -2.678e-04  t[s]:  15331.46
	FillingsUpdate:  mu: +0.134651434  nElectrons: 348.000000  magneticMoment: [ Abs: 42.01723  Tot: -0.00000 ]
	SubspaceRotationAdjust: set factor to 0.476
ElecMinimize: Iter: 187  F: -2005.810142896607204  |grad|_K:  1.680e-06  alpha:  2.864e-01  linmin: -6.067e-05  t[s]:  15406.83
	FillingsUpdate:  mu: +0.133767647  nElectrons: 348.000000  magneticMoment: [ Abs: 42.03562  Tot: +0.00000 ]
	SubspaceRotationAdjust: set factor to 0.482
ElecMinimize: Iter: 188  F: -2005.810401967591133  |grad|_K:  2.346e-06  alpha:  5.430e-01  linmin:  3.397e-04  t[s]:  15483.67
[...]
force Ni  -0.003711550120491   0.001748870070889  -0.009714378824453 1
force V   0.001625001717805  -0.000399458870408  -0.012497281389503 1
force V  -0.000938747779199   0.001809776358044  -0.016619241195741 1
force V  -0.130794531403183   0.023723597203133   0.609836813857150 0
force V   0.015613005760928  -0.042964368878574   0.410315479447768 0
force V   0.028171332758132  -0.022991088112480  -0.505874074074727 0
force V   0.024105037919425  -0.015733829239693  -0.437755557657911 0
force Co  -0.001766063084438   0.003444532390960   0.037818448522009 1
force Co   0.003399779460207   0.003334098210648   0.004773880110159 1
force Co   0.088645206160885   0.024361586747336   0.327957969089364 0
force Co  -0.095016573575585  -0.025655877635247   0.328026085572205 0
force Co   0.029049333631234  -0.001714431849972  -0.154750636134835 0
force Cr   0.005237085888139   0.001206922672167   0.014853628996438 1
force Cr   0.015565450393963   0.007280628987307  -1.599693129462655 0
force O   0.003379442867779   0.001561034792813   0.009351416636309 1
force O   0.000641655826775   0.001113425850888   0.005739346605548 1
force O   0.001937337816412   0.000987703620156  -0.009850664496835 1
force O   0.001425248465284  -0.003194310697077  -0.007439689789289 1
force O   0.001945247894542   0.001582347719534   0.002087362002008 1
force O  -0.003733216889713   0.000359897805020   0.000719512272588 1
force O   0.000092983887217  -0.000815457885556   0.007144757997510 1
force O   0.000446926067934   0.001626116665138   0.021598657631584 1
force O   0.009326704018407   0.024549712346731   1.331667191507371 0
force O  -0.006567857486407   0.010462597281360   0.323205266631306 0
force O  -0.013107802341641   0.018399680554309   0.057457444723478 0
force O  -0.025189180984423  -0.006200387979714   0.115118413380045 0
force O   0.042390511714872  -0.005067560956837  -0.297418700582121 0
force O  -0.023475205797340   0.001498471229964  -0.138604291410530 0
force O   0.008584039431797   0.016672346634927  -0.188194341784960 0
force O   0.010261014328610  -0.011277150594624  -0.290116471565562 0
force O  -0.004199258907218  -0.010735009426098  -0.021743267975457 1
force H  -0.010584685322648  -0.000062328312567   0.024471810179260 1

# Energy components:
   Eewald =     5691.5600487157180396
       EH =     7501.7214661591542608
     Eloc =   -15354.8824001929697260
      Enl =     -526.1149031562443952
   Epulay =       -0.0004805379600646
      Exc =     -246.6136979291680404
       KE =      927.3556736221535175
        U =        1.1201996708064839
-------------------------------------
     Etot =    -2005.8540936485101156
       TS =        0.0000236749229093
-------------------------------------
        F =    -2005.8541173234330017

IonicMinimize: Iter:  12  F: -2005.854117323433002  |grad|_K:  3.886e-04  alpha:  1.000e+00  linmin: -1.855e-02  t[s]:  62251.95

#--- Lowdin population analysis ---
# oxidation-state Ni +3.729 +3.228 +3.516
# magnetic-moments Ni +1.021 +0.655 -0.941
# oxidation-state V +1.131 +1.355 +0.938 +0.970 +1.042 +1.028
# magnetic-moments V -2.977 +2.086 -2.915 +2.841 -2.957 +2.949
# oxidation-state Co +1.275 +1.097 +1.264 +1.267 +1.288
# magnetic-moments Co -2.716 +0.992 +2.732 -2.731 +2.761
# oxidation-state Cr +2.900 +2.924
# magnetic-moments Cr +3.208 -3.904
# oxidation-state O -0.926 -0.842 -0.857 -0.843 -0.796 -0.854 -0.825 -0.850 -1.010 -0.955 -0.941 -0.977 -0.969 -1.007 -1.006 -0.972 -0.796
# magnetic-moments O +0.016 -0.043 +0.089 -0.123 -0.068 -0.097 -0.157 -0.196 -0.066 -0.017 +0.021 -0.033 +0.071 +0.095 +0.017 +0.043 +0.212
# oxidation-state H +0.362
# magnetic-moments H -0.004


-------- Electronic minimization -----------
	FillingsUpdate:  mu: +0.156516002  nElectrons: 348.000000  magneticMoment: [ Abs: 41.66952  Tot: -0.00000 ]
ElecMinimize: Iter:   0  F: -2005.439807066161620  |grad|_K:  1.073e-04  alpha:  1.000e+00
	FillingsUpdate:  mu: +0.136537758  nElectrons: 348.000000  magneticMoment: [ Abs: 41.70410  Tot: -0.00000 ]
	SubspaceRotationAdjust: set factor to 1.48
ElecMinimize: Iter:   1  F: -2005.827940229395381  |grad|_K:  2.119e-05  alpha:  1.960e-01  linmin:  1.166e-03  t[s]:  62355.38
	FillingsUpdate:  mu: +0.144836459  nElectrons: 348.000000  magneticMoment: [ Abs: 41.61818  Tot: +0.00000 ]
	SubspaceRotationAdjust: set factor to 1.23
ElecMinimize: Iter:   2  F: -2005.847478602890305  |grad|_K:  1.120e-05  alpha:  2.548e-01  linmin:  6.965e-04  t[s]:  62432.52
	FillingsUpdate:  mu: +0.140702037  nElectrons: 348.000000  magneticMoment: [ Abs: 41.69467  Tot: +0.00000 ]
	SubspaceRotationAdjust: set factor to 0.827
ElecMinimize: Iter:   3  F: -2005.851003782637690  |grad|_K:  6.690e-06  alpha:  1.769e-01  linmin: -2.038e-04  t[s]:  62510.09
	FillingsUpdate:  mu: +0.138430608  nElectrons: 348.000000  magneticMoment: [ Abs: 41.66752  Tot: -0.00000 ]
	SubspaceRotationAdjust: set factor to 0.786
ElecMinimize: Iter:   4  F: -2005.853028331736596  |grad|_K:  3.435e-06  alpha:  2.566e-01  linmin:  2.456e-04  t[s]:  62588.57
	FillingsUpdate:  mu: +0.139705936  nElectrons: 348.000000  magneticMoment: [ Abs: 41.66089  Tot: +0.00000 ]
	SubspaceRotationAdjust: set factor to 0.866
ElecMinimize: Iter:   5  F: -2005.853665817918682  |grad|_K:  2.027e-06  alpha:  3.155e-01  linmin:  1.752e-06  t[s]:  62661.40
	FillingsUpdate:  mu: +0.139552240  nElectrons: 348.000000  magneticMoment: [ Abs: 41.67272  Tot: +0.00000 ]
	SubspaceRotationAdjust: set factor to 0.667
ElecMinimize: Iter:   6  F: -2005.853900147764762  |grad|_K:  1.410e-06  alpha:  3.260e-01  linmin: -1.236e-04  t[s]:  62742.20
	FillingsUpdate:  mu: +0.139471828  nElectrons: 348.000000  magneticMoment: [ Abs: 41.66556  Tot: +0.00000 ]
	SubspaceRotationAdjust: set factor to 0.573
ElecMinimize: Iter:   7  F: -2005.854004214217412  |grad|_K:  8.975e-07  alpha:  2.970e-01  linmin:  6.635e-05  t[s]:  62820.68
	FillingsUpdate:  mu: +0.139277014  nElectrons: 348.000000  magneticMoment: [ Abs: 41.66546  Tot: -0.00000 ]
	SubspaceRotationAdjust: set factor to 0.649
ElecMinimize: Iter:   8  F: -2005.854059191019815  |grad|_K:  6.303e-07  alpha:  3.916e-01  linmin: -3.926e-07  t[s]:  62901.30
	FillingsUpdate:  mu: +0.139217451  nElectrons: 348.000000  magneticMoment: [ Abs: 41.66823  Tot: +0.00000 ]
	SubspaceRotationAdjust: set factor to 0.615
ElecMinimize: Iter:   9  F: -2005.854083468682802  |grad|_K:  4.150e-07  alpha:  3.495e-01  linmin: -9.808e-06  t[s]:  62978.85
	FillingsUpdate:  mu: +0.139374776  nElectrons: 348.000000  magneticMoment: [ Abs: 41.66704  Tot: +0.00000 ]
	SubspaceRotationAdjust: set factor to 0.626
ElecMinimize: Iter:  10  F: -2005.854094515496399  |grad|_K:  2.874e-07  alpha:  3.666e-01  linmin:  4.479e-06  t[s]:  63054.55
	FillingsUpdate:  mu: +0.139348456  nElectrons: 348.000000  magneticMoment: [ Abs: 41.66712  Tot: +0.00000 ]
	SubspaceRotationAdjust: set factor to 0.702
ElecMinimize: Iter:  11  F: -2005.854099559490123  |grad|_K:  1.965e-07  alpha:  3.493e-01  linmin: -5.085e-07  t[s]:  63132.59
	FillingsUpdate:  mu: +0.139285442  nElectrons: 348.000000  magneticMoment: [ Abs: 41.66777  Tot: +0.00000 ]
	SubspaceRotationAdjust: set factor to 0.743
ElecMinimize: Iter:  12  F: -2005.854102115175465  |grad|_K:  1.435e-07  alpha:  3.784e-01  linmin: -1.464e-07  t[s]:  63209.46
	FillingsUpdate:  mu: +0.139321744  nElectrons: 348.000000  magneticMoment: [ Abs: 41.66753  Tot: +0.00000 ]
	SubspaceRotationAdjust: set factor to 0.815
ElecMinimize: Iter:  13  F: -2005.854103474510339  |grad|_K:  1.117e-07  alpha:  3.775e-01  linmin:  6.897e-07  t[s]:  63286.61
	FillingsUpdate:  mu: +0.139327587  nElectrons: 348.000000  magneticMoment: [ Abs: 41.66780  Tot: +0.00000 ]
	SubspaceRotationAdjust: set factor to 0.961
ElecMinimize: Iter:  14  F: -2005.854104365042758  |grad|_K:  9.296e-08  alpha:  4.084e-01  linmin:  8.772e-07  t[s]:  63365.82
	FillingsUpdate:  mu: +0.139308722  nElectrons: 348.000000  magneticMoment: [ Abs: 41.66794  Tot: +0.00000 ]
	SubspaceRotationAdjust: set factor to 1.17
ElecMinimize: Iter:  15  F: -2005.854104996918068  |grad|_K:  8.515e-08  alpha:  4.181e-01  linmin: -3.087e-06  t[s]:  63444.12
	FillingsUpdate:  mu: +0.139316988  nElectrons: 348.000000  magneticMoment: [ Abs: 41.66780  Tot: +0.00000 ]
	SubspaceRotationAdjust: set factor to 1.33
ElecMinimize: Iter:  16  F: -2005.854105563286339  |grad|_K:  8.670e-08  alpha:  4.465e-01  linmin: -1.663e-06  t[s]:  63520.76
	FillingsUpdate:  mu: +0.139314432  nElectrons: 348.000000  magneticMoment: [ Abs: 41.66832  Tot: +0.00000 ]
	SubspaceRotationAdjust: set factor to 1.37
ElecMinimize: Iter:  17  F: -2005.854106060946606  |grad|_K:  8.470e-08  alpha:  3.785e-01  linmin:  2.514e-06  t[s]:  63598.55
	FillingsUpdate:  mu: +0.139325100  nElectrons: 348.000000  magneticMoment: [ Abs: 41.66783  Tot: +0.00000 ]
	SubspaceRotationAdjust: set factor to 1.26
ElecMinimize: Iter:  18  F: -2005.854106524252757  |grad|_K:  8.310e-08  alpha:  3.693e-01  linmin: -3.858e-06  t[s]:  63676.62
ElecMinimize: Converged (|Delta F|<1.000000e-06 for 5 iters).
Setting wave functions to eigenvectors of Hamiltonian
IonicMinimize: 	Wolfe criterion not satisfied: alpha: 0.747758  (E-E0)/|gdotd0|: 0.0438044  gdotd/gdotd0: -0.894753 (taking cubic step)

-------- Electronic minimization -----------
	FillingsUpdate:  mu: +0.137358599  nElectrons: 348.000000  magneticMoment: [ Abs: 41.66969  Tot: +0.00000 ]
ElecMinimize: Iter:   0  F: -2005.836001245619627  |grad|_K:  2.299e-05  alpha:  1.000e+00
	FillingsUpdate:  mu: +0.139563718  nElectrons: 348.000000  magneticMoment: [ Abs: 41.66613  Tot: -0.00000 ]
	SubspaceRotationAdjust: set factor to 1.23
ElecMinimize: Iter:   1  F: -2005.853138283313001  |grad|_K:  4.086e-06  alpha:  1.856e-01  linmin:  1.340e-04  t[s]:  63811.57
	FillingsUpdate:  mu: +0.138844401  nElectrons: 348.000000  magneticMoment: [ Abs: 41.67145  Tot: +0.00000 ]
	SubspaceRotationAdjust: set factor to 1.26
ElecMinimize: Iter:   2  F: -2005.853796647399122  |grad|_K:  2.214e-06  alpha:  2.257e-01  linmin: -1.007e-05  t[s]:  63888.28
	FillingsUpdate:  mu: +0.138899700  nElectrons: 348.000000  magneticMoment: [ Abs: 41.66657  Tot: +0.00000 ]
	SubspaceRotationAdjust: set factor to 1.26
ElecMinimize: Iter:   3  F: -2005.854015632594383  |grad|_K:  1.226e-06  alpha:  2.554e-01  linmin:  8.180e-06  t[s]:  63964.84
	FillingsUpdate:  mu: +0.139008264  nElectrons: 348.000000  magneticMoment: [ Abs: 41.67131  Tot: -0.00000 ]
	SubspaceRotationAdjust: set factor to 1.08
ElecMinimize: Iter:   4  F: -2005.854092232708126  |grad|_K:  7.918e-07  alpha:  2.916e-01  linmin: -1.665e-05  t[s]:  64042.38
	FillingsUpdate:  mu: +0.139163446  nElectrons: 348.000000  magneticMoment: [ Abs: 41.66668  Tot: +0.00000 ]
	SubspaceRotationAdjust: set factor to 0.774
ElecMinimize: Iter:   5  F: -2005.854121206210948  |grad|_K:  5.354e-07  alpha:  2.638e-01  linmin:  2.457e-05  t[s]:  64118.63
	FillingsUpdate:  mu: +0.138989013  nElectrons: 348.000000  magneticMoment: [ Abs: 41.66953  Tot: -0.00000 ]
	SubspaceRotationAdjust: set factor to 0.62
ElecMinimize: Iter:   6  F: -2005.854135021967977  |grad|_K:  3.521e-07  alpha:  2.761e-01  linmin: -2.327e-05  t[s]:  64195.59
	FillingsUpdate:  mu: +0.139004281  nElectrons: 348.000000  magneticMoment: [ Abs: 41.66943  Tot: +0.00000 ]
	SubspaceRotationAdjust: set factor to 0.704
ElecMinimize: Iter:   7  F: -2005.854141668937473  |grad|_K:  2.454e-07  alpha:  3.060e-01  linmin: -5.230e-07  t[s]:  64275.82
	FillingsUpdate:  mu: +0.139072616  nElectrons: 348.000000  magneticMoment: [ Abs: 41.66855  Tot: -0.00000 ]
	SubspaceRotationAdjust: set factor to 0.684
ElecMinimize: Iter:   8  F: -2005.854144814430356  |grad|_K:  1.661e-07  alpha:  2.986e-01  linmin:  5.901e-06  t[s]:  64350.64
	FillingsUpdate:  mu: +0.139067258  nElectrons: 348.000000  magneticMoment: [ Abs: 41.66888  Tot: +0.00000 ]
	SubspaceRotationAdjust: set factor to 0.735
ElecMinimize: Iter:   9  F: -2005.854146479021438  |grad|_K:  1.150e-07  alpha:  3.450e-01  linmin: -6.252e-07  t[s]:  64428.89
	FillingsUpdate:  mu: +0.139051896  nElectrons: 348.000000  magneticMoment: [ Abs: 41.66896  Tot: +0.00000 ]
	SubspaceRotationAdjust: set factor to 0.802
ElecMinimize: Iter:  10  F: -2005.854147301523426  |grad|_K:  8.294e-08  alpha:  3.557e-01  linmin:  1.288e-06  t[s]:  64505.38
	FillingsUpdate:  mu: +0.139056117  nElectrons: 348.000000  magneticMoment: [ Abs: 41.66872  Tot: -0.00000 ]
	SubspaceRotationAdjust: set factor to 0.815
ElecMinimize: Iter:  11  F: -2005.854147686718306  |grad|_K:  5.777e-08  alpha:  3.203e-01  linmin: -6.740e-07  t[s]:  64582.96
	FillingsUpdate:  mu: +0.139055719  nElectrons: 348.000000  magneticMoment: [ Abs: 41.66879  Tot: +0.00000 ]
	SubspaceRotationAdjust: set factor to 0.878
ElecMinimize: Iter:  12  F: -2005.854147871884834  |grad|_K:  4.226e-08  alpha:  3.174e-01  linmin:  7.245e-06  t[s]:  64660.68
	FillingsUpdate:  mu: +0.139057382  nElectrons: 348.000000  magneticMoment: [ Abs: 41.66878  Tot: +0.00000 ]
	SubspaceRotationAdjust: set factor to 0.994
ElecMinimize: Iter:  13  F: -2005.854147981788856  |grad|_K:  3.369e-08  alpha:  3.517e-01  linmin: -1.493e-05  t[s]:  64737.28
	FillingsUpdate:  mu: +0.139059783  nElectrons: 348.000000  magneticMoment: [ Abs: 41.66867  Tot: -0.00000 ]
	SubspaceRotationAdjust: set factor to 1.12
ElecMinimize: Iter:  14  F: -2005.854148054757616  |grad|_K:  2.821e-08  alpha:  3.668e-01  linmin: -2.751e-05  t[s]:  64813.74
ElecMinimize: Converged (|Delta F|<1.000000e-06 for 5 iters).
Setting wave functions to eigenvectors of Hamiltonian

# Ionic positions in lattice coordinates:
ion Ni   0.002003885239260   0.005496046800292   0.152633098925930 1
ion Ni  -0.247481534092879   0.247872877042459   0.050301920110102 1
ion Ni  -0.250406164957466   0.757663094959683   0.050671145015920 1
ion V   0.509441761776604  -0.001082526706196   0.153291062657166 1
ion V  -0.005046921616324   0.499854937298591   0.148318406078045 1
ion V   0.000000000000000   0.000000000000000  -0.050000000000000 0
ion V   0.500000000000000   0.500000000000000  -0.050000000000000 0
ion V   0.250000000000000   0.750000000000000  -0.150000000000000 0
ion V  -0.250000000000000   0.250000000000000  -0.150000000000000 0
ion Co   0.506653753881120   0.492686791071232   0.145527300924471 1
ion Co   0.247151861894577   0.250901453170474   0.048793164754143 1
ion Co   0.500000000000000   0.000000000000000  -0.050000000000000 0
ion Co   0.000000000000000   0.500000000000000  -0.050000000000000 0
ion Co  -0.250000000000000   0.750000000000000  -0.150000000000000 0
ion Cr   0.248734805832951   0.756524245120389   0.051244697926646 1
ion Cr   0.250000000000000   0.250000000000000  -0.150000000000000 0
ion O   0.243320872229714   0.262745780817382   0.145618228082838 1
ion O   0.245536451185758   0.731388263436628   0.145459076721924 1
ion O  -0.238720917334182   0.261395703240751   0.148193989990597 1
ion O  -0.240346078931516   0.732641192187051   0.146916683779896 1
ion O   0.008611079227771  -0.015650666357626   0.054369342002421 1
ion O   0.488289392015825  -0.010428103867749   0.052486634606234 1
ion O   0.009831210230543   0.522945269596844   0.052355047919178 1
ion O   0.493559203929612   0.532004436403158   0.048088354897033 1
ion O   0.250000000000000   0.250000000000000  -0.050000000000000 0
ion O   0.250000000000000   0.750000000000000  -0.050000000000000 0
ion O  -0.250000000000000   0.250000000000000  -0.050000000000000 0
ion O  -0.250000000000000   0.750000000000000  -0.050000000000000 0
ion O   0.000000000000000   0.000000000000000  -0.150000000000000 0
ion O   0.500000000000000   0.000000000000000  -0.150000000000000 0
ion O   0.000000000000000   0.500000000000000  -0.150000000000000 0
ion O   0.500000000000000   0.500000000000000  -0.150000000000000 0
ion O  -0.008862949674102  -0.015730068979843   0.241244835226227 1
ion H   0.084720096361726   0.094199927055504   0.260103881165505 1

# Forces in Lattice coordinates:
force Ni   0.001002648993382  -0.000568136942211   0.040800856933055 1
force Ni   0.000081773602635  -0.000062315371531  -0.001870014267680 1
force Ni  -0.005409319894977  -0.001852270581753   0.019318231394886 1
force V   0.000409007299560   0.002151914328853  -0.033966542955762 1
force V  -0.000580476779786   0.002378419022301  -0.011264591942041 1
force V  -0.129995560686006   0.025378171826386   0.614011178808330 0
force V   0.015894095365341  -0.043095690534960   0.411287080392014 0
force V   0.028175218475704  -0.023009640174168  -0.507011368967953 0
force V   0.024085409951440  -0.015743988352824  -0.437758277950850 0
force Co  -0.001984328741204   0.001497224254703   0.003724680904562 1
force Co   0.005209094714906   0.001749960740042   0.000799919474231 1
force Co   0.088325575983245   0.026192695105471   0.341068067127068 0
force Co  -0.095458903172748  -0.027084592782612   0.337462528047584 0
force Co   0.029733585936121  -0.000987641416404  -0.154829361123387 0
force Cr   0.014797261544977   0.003949751975399   0.045759370737541 1
force Cr   0.015569981022774   0.007263290498019  -1.597973779056538 0
force O   0.002570053717722   0.002107677138242   0.004616663641970 1
force O  -0.002125052274705   0.001293898261102  -0.001530612091003 1
force O   0.001450657806822   0.007957077012167   0.001079162793284 1
force O   0.002523618636983  -0.002572160795935  -0.003099177581058 1
force O  -0.000656147767457  -0.000403242345812  -0.010157396853914 1
force O  -0.006106796042076  -0.008070400851460   0.009765526820119 1
force O  -0.000505482337685  -0.003699771121669   0.011904583198867 1
force O  -0.001743639977747  -0.000427024124511   0.046361941527751 1
force O   0.008850264995405   0.024898296186693   1.331020465245898 0
force O  -0.007476739069336   0.011267445550150   0.318225329917413 0
force O  -0.012712876702000   0.018419566075609   0.053892113743172 0
force O  -0.024742079145891  -0.005210984819754   0.110148105835318 0
force O   0.042309458582289  -0.005353067400083  -0.296687009552227 0
force O  -0.023431648292962   0.001212824619546  -0.139715010003894 0
force O   0.008488980269301   0.016872125375534  -0.188920485777617 0
force O   0.010166712424517  -0.011333669382501  -0.292610991767069 0
force O  -0.002164337307244  -0.007313910065987  -0.030523412249884 1
force H  -0.013444756897113  -0.003532303992146   0.003314435630936 1

# Energy components:
   Eewald =     5689.9089102068583088
       EH =     7500.1237382705057826
     Eloc =   -15351.6301743994517892
      Enl =     -526.1139141659293728
   Epulay =       -0.0004805379600646
      Exc =     -246.6116813957182785
       KE =      927.3492194076138730
        U =        1.1202586807904351
-------------------------------------
     Etot =    -2005.8541239332903388
       TS =        0.0000241214671830
-------------------------------------
        F =    -2005.8541480547576157

IonicMinimize: Iter:  13  F: -2005.854148054757616  |grad|_K:  4.570e-04  alpha:  3.297e-01  linmin: -3.130e-03  t[s]:  64825.33
IonicMinimize: Converged (|Delta F|<1.000000e-04 for 3 iters).

#--- Lowdin population analysis ---
# oxidation-state Ni +3.731 +3.227 +3.516
# magnetic-moments Ni +1.021 +0.655 -0.940
# oxidation-state V +1.132 +1.355 +0.938 +0.970 +1.042 +1.028
# magnetic-moments V -2.977 +2.085 -2.915 +2.840 -2.957 +2.950
# oxidation-state Co +1.276 +1.097 +1.264 +1.267 +1.288
# magnetic-moments Co -2.716 +0.991 +2.732 -2.731 +2.761
# oxidation-state Cr +2.900 +2.924
# magnetic-moments Cr +3.209 -3.904
# oxidation-state O -0.926 -0.843 -0.857 -0.844 -0.796 -0.855 -0.825 -0.849 -1.011 -0.955 -0.941 -0.977 -0.969 -1.007 -1.006 -0.972 -0.797
# magnetic-moments O +0.017 -0.044 +0.091 -0.124 -0.066 -0.097 -0.157 -0.196 -0.066 -0.017 +0.021 -0.033 +0.071 +0.095 +0.017 +0.043 +0.212
# oxidation-state H +0.363
# magnetic-moments H -0.004


Dumping 'run.ionpos' ... done
Dumping 'run.lattice' ... done
Dumping 'run.Ecomponents' ... done
End date and time: Sat May 10 23:59:36 2025  (Duration: 0-18:00:28.59)
Done!
