
*************** JDFTx 1.7.0  ***************

Start date and time: Tue May 20 12:50:05 2025
Executable /data2/jt577/jdftx_eat_withLibXC/build/jdftx with command-line: -i /data2/jt577/May_2025/Relax_Mag_litU/rel9+1_6/O/runs/calc_/run.in
Running on hosts (process indices):  node3308 (0-8)
Divided in process groups (process indices):  0 (0)  1 (1)  2 (2)  3 (3)  4 (4)  5 (5)  6 (6)  7 (7)  8 (8)
Resource initialization completed at t[s]:      0.00
Run totals: 9 processes, 63 threads, 0 GPUs


Input parsed successfully to the following command list (including defaults):

add-mix 
add-U 	Ni d 0.235196 \
	V d 0.113923 \
	Co d 0.121273
basis kpoint-dependent
coords-type Lattice
core-overlap-check vector
coulomb-interaction Periodic
davidson-band-ratio 1.1
dump End IonicPositions Lattice Ecomponents
dump-name run.$VAR
elec-cutoff 30
elec-eigen-algo Davidson
elec-ex-corr gga-x-rpbe gga-c-pbe
elec-smearing Fermi 0.001
electronic-minimize  \
	dirUpdateScheme      FletcherReeves \
	linminMethod         DirUpdateRecommended \
	nIterations          1000 \
	history              15 \
	knormThreshold       0 \
	energyDiffThreshold  1e-06 \
	nEnergyDiff          5 \
	alphaTstart          1 \
	alphaTmin            1e-10 \
	updateTestStepSize   yes \
	alphaTreduceFactor   0.1 \
	alphaTincreaseFactor 3 \
	nAlphaAdjustMax      3 \
	wolfeEnergy          0.0001 \
	wolfeGradient        0.9 \
	fdTest               no
exchange-regularization WignerSeitzTruncated
fluid None
fluid-ex-corr (null) lda-PZ
fluid-gummel-loop 10 1.000000e-05
fluid-minimize  \
	dirUpdateScheme      PolakRibiere \
	linminMethod         DirUpdateRecommended \
	nIterations          100 \
	history              15 \
	knormThreshold       0 \
	energyDiffThreshold  0 \
	nEnergyDiff          2 \
	alphaTstart          1 \
	alphaTmin            1e-10 \
	updateTestStepSize   yes \
	alphaTreduceFactor   0.1 \
	alphaTincreaseFactor 3 \
	nAlphaAdjustMax      3 \
	wolfeEnergy          0.0001 \
	wolfeGradient        0.9 \
	fdTest               no
fluid-solvent H2O 55.338 ScalarEOS \
	epsBulk 78.4 \
	pMol 0.92466 \
	epsInf 1.77 \
	Pvap 1.06736e-10 \
	sigmaBulk 4.62e-05 \
	Rvdw 2.61727 \
	Res 1.42 \
	tauNuc 343133 \
	poleEl 15 7 1
forces-output-coords Positions
initial-magnetic-moments  \
	Ni 1 1 -1 -1 -1 1 \
	V -1 1 -1 1 1 -1 -1 -1 1 \
	Co 1
initial-state run.$VAR
ion Ni  0.000000000000000   0.000000000000000   0.150000000000000 1
ion Ni  0.500000000000000   0.000000000000000  -0.050000000000000 0
ion Ni  0.000000000000000   0.500000000000000  -0.050000000000000 0
ion Ni  0.250000000000000   0.250000000000000  -0.150000000000000 0
ion Ni  0.250000000000000   0.750000000000000  -0.150000000000000 0
ion Ni -0.250000000000000   0.250000000000000  -0.150000000000000 0
ion V  0.500000000000000   0.000000000000000   0.150000000000000 1
ion V  0.000000000000000   0.500000000000000   0.150000000000000 1
ion V  0.500000000000000   0.500000000000000   0.150000000000000 1
ion V  0.250000000000000   0.250000000000000   0.050000000000000 1
ion V  0.250000000000000   0.750000000000000   0.050000000000000 1
ion V -0.250000000000000   0.250000000000000   0.050000000000000 1
ion V -0.250000000000000   0.750000000000000   0.050000000000000 1
ion V  0.000000000000000   0.000000000000000  -0.050000000000000 0
ion V  0.500000000000000   0.500000000000000  -0.050000000000000 0
ion Co -0.250000000000000   0.750000000000000  -0.150000000000000 0
ion O  0.250000000000000   0.250000000000000   0.150000000000000 1
ion O  0.250000000000000   0.750000000000000   0.150000000000000 1
ion O -0.250000000000000   0.250000000000000   0.150000000000000 1
ion O -0.250000000000000   0.750000000000000   0.150000000000000 1
ion O  0.000000000000000   0.000000000000000   0.050000000000000 1
ion O  0.500000000000000   0.000000000000000   0.050000000000000 1
ion O  0.000000000000000   0.500000000000000   0.050000000000000 1
ion O  0.500000000000000   0.500000000000000   0.050000000000000 1
ion O  0.250000000000000   0.250000000000000  -0.050000000000000 0
ion O  0.250000000000000   0.750000000000000  -0.050000000000000 0
ion O -0.250000000000000   0.250000000000000  -0.050000000000000 0
ion O -0.250000000000000   0.750000000000000  -0.050000000000000 0
ion O  0.000000000000000   0.000000000000000  -0.150000000000000 0
ion O  0.500000000000000   0.000000000000000  -0.150000000000000 0
ion O  0.000000000000000   0.500000000000000  -0.150000000000000 0
ion O  0.500000000000000   0.500000000000000  -0.150000000000000 0
ion O -0.000095572322686   0.000198307128402   0.224876729873325 1
ion-species SG15/$ID_ONCV_PBE.upf
ion-width 0
ionic-minimize  \
	dirUpdateScheme      L-BFGS \
	linminMethod         DirUpdateRecommended \
	nIterations          1000 \
	history              15 \
	knormThreshold       0.0001 \
	energyDiffThreshold  0.0001 \
	nEnergyDiff          3 \
	alphaTstart          1 \
	alphaTmin            1e-10 \
	updateTestStepSize   yes \
	alphaTreduceFactor   0.1 \
	alphaTincreaseFactor 3 \
	nAlphaAdjustMax      3 \
	wolfeEnergy          0.0001 \
	wolfeGradient        0.9 \
	fdTest               no
kpoint   0.500000000000   0.500000000000   0.500000000000  1.00000000000000
kpoint-folding 3 3 1 
latt-move-scale 1 1 1
latt-scale 1 1 1 
lattice  \
	   8.140000000000001    8.140000000000001    0.000000000000000  \
	   8.140000000000001   -8.140000000000001    0.000000000000000  \
	   0.000000000000000    0.000000000000000   40.700000000000003 
lattice-minimize  \
	dirUpdateScheme      L-BFGS \
	linminMethod         DirUpdateRecommended \
	nIterations          0 \
	history              15 \
	knormThreshold       0 \
	energyDiffThreshold  1e-06 \
	nEnergyDiff          2 \
	alphaTstart          1 \
	alphaTmin            1e-10 \
	updateTestStepSize   yes \
	alphaTreduceFactor   0.1 \
	alphaTincreaseFactor 3 \
	nAlphaAdjustMax      3 \
	wolfeEnergy          0.0001 \
	wolfeGradient        0.9 \
	fdTest               no
lcao-params -1 1e-06 0.001
pcm-variant GLSSA13
spintype z-spin
subspace-rotation-factor 1 yes
symmetries none
symmetry-threshold 0.0001


Applied RMS atom displacement 0 bohrs to make symmetries exact.

---------- Initializing the Grid ----------
R = 
[         8.14         8.14            0  ]
[         8.14        -8.14            0  ]
[            0            0         40.7  ]
unit cell volume = 5393.53
G =
[   0.385945   0.385945         -0  ]
[   0.385945  -0.385945         -0  ]
[         -0         -0   0.154378  ]
Minimum fftbox size, Smin = [  60  60  204  ]
Chosen fftbox size, S = [  60  60  210  ]

---------- Exchange Correlation functional ----------
Initialized LibXC exchange functional 'Hammer, Hansen, and Norskov'
Initialized LibXC correlation functional 'Perdew, Burke & Ernzerhof'

---------- Setting up pseudopotentials ----------
Width of ionic core gaussian charges (only for fluid interactions / plotting) set to 0

Reading pseudopotential file '/data2/jt577/jdftx_eat_withLibXC/build/pseudopotentials/SG15/Ni_ONCV_PBE.upf':
  'Ni' pseudopotential, 'PBE' functional
  Generated using ONCVPSP code by D. R. Hamann
  Author: Martin Schlipf and Francois Gygi  Date: 150915.
  18 valence electrons, 4 orbitals, 6 projectors, 1292 radial grid points, with lMax = 2
  Transforming local potential to a uniform radial grid of dG=0.02 with 1419 points.
  Transforming nonlocal projectors to a uniform radial grid of dG=0.02 with 528 points.
    3S    l: 0   occupation:  2.0   eigenvalue: -4.081355
    3P    l: 1   occupation:  6.0   eigenvalue: -2.623460
    4S    l: 0   occupation:  2.0   eigenvalue: -0.207378
    3D    l: 2   occupation:  8.0   eigenvalue: -0.326118
  Transforming atomic orbitals to a uniform radial grid of dG=0.02 with 528 points.
  WARNING: large normalization error in atomic orbital 1s (integral: 0.000006).
  Core radius for overlap checks: 1.99 bohrs.
  Reading pulay file /data2/jt577/jdftx_eat_withLibXC/build/pseudopotentials/SG15/Ni_ONCV_PBE.pulay ... using dE_dnG = -7.250568e-04 computed for Ecut = 30.

Reading pseudopotential file '/data2/jt577/jdftx_eat_withLibXC/build/pseudopotentials/SG15/V_ONCV_PBE.upf':
  'V' pseudopotential, 'PBE' functional
  Generated using ONCVPSP code by D. R. Hamann
  Author: Martin Schlipf and Francois Gygi  Date: 150915.
  13 valence electrons, 4 orbitals, 6 projectors, 1536 radial grid points, with lMax = 2
  Transforming local potential to a uniform radial grid of dG=0.02 with 1419 points.
  Transforming nonlocal projectors to a uniform radial grid of dG=0.02 with 528 points.
    3S    l: 0   occupation:  2.0   eigenvalue: -2.581105
    3P    l: 1   occupation:  6.0   eigenvalue: -1.618486
    4S    l: 0   occupation:  2.0   eigenvalue: -0.172804
    3D    l: 2   occupation:  3.0   eigenvalue: -0.189795
  Transforming atomic orbitals to a uniform radial grid of dG=0.02 with 528 points.
  Core radius for overlap checks: 1.80 bohrs.
  Reading pulay file /data2/jt577/jdftx_eat_withLibXC/build/pseudopotentials/SG15/V_ONCV_PBE.pulay ... using dE_dnG = -1.698632e-04 computed for Ecut = 30.

Reading pseudopotential file '/data2/jt577/jdftx_eat_withLibXC/build/pseudopotentials/SG15/Co_ONCV_PBE.upf':
  'Co' pseudopotential, 'PBE' functional
  Generated using ONCVPSP code by D. R. Hamann
  Author: Martin Schlipf and Francois Gygi  Date: 150915.
  17 valence electrons, 4 orbitals, 6 projectors, 1388 radial grid points, with lMax = 2
  Transforming local potential to a uniform radial grid of dG=0.02 with 1419 points.
  Transforming nonlocal projectors to a uniform radial grid of dG=0.02 with 528 points.
    3S    l: 0   occupation:  2.0   eigenvalue: -3.763303
    3P    l: 1   occupation:  6.0   eigenvalue: -2.412101
    4S    l: 0   occupation:  2.0   eigenvalue: -0.201022
    3D    l: 2   occupation:  7.0   eigenvalue: -0.301498
  Transforming atomic orbitals to a uniform radial grid of dG=0.02 with 528 points.
  Core radius for overlap checks: 1.94 bohrs.
  Reading pulay file /data2/jt577/jdftx_eat_withLibXC/build/pseudopotentials/SG15/Co_ONCV_PBE.pulay ... using dE_dnG = -9.787391e-05 computed for Ecut = 30.

Reading pseudopotential file '/data2/jt577/jdftx_eat_withLibXC/build/pseudopotentials/SG15/O_ONCV_PBE.upf':
  'O' pseudopotential, 'PBE' functional
  Generated using ONCVPSP code by D. R. Hamann
  Author: Martin Schlipf and Francois Gygi  Date: 150915.
  6 valence electrons, 2 orbitals, 4 projectors, 936 radial grid points, with lMax = 1
  Transforming local potential to a uniform radial grid of dG=0.02 with 1419 points.
  Transforming nonlocal projectors to a uniform radial grid of dG=0.02 with 528 points.
    2S    l: 0   occupation:  2.0   eigenvalue: -0.880572
    2P    l: 1   occupation:  4.0   eigenvalue: -0.331869
  Transforming atomic orbitals to a uniform radial grid of dG=0.02 with 528 points.
  Core radius for overlap checks: 1.29 bohrs.
  Reading pulay file /data2/jt577/jdftx_eat_withLibXC/build/pseudopotentials/SG15/O_ONCV_PBE.pulay ... using dE_dnG = -8.209514e-03 computed for Ecut = 30.

Initialized 4 species with 33 total atoms.

Folded 1 k-points by 3x3x1 to 9 k-points.

---------- Setting up k-points, bands, fillings ----------
No reducable k-points. 
Computing the number of bands and number of electrons
Calculating initial fillings.
nElectrons: 344.000000   nBands: 228   nStates: 18

----- Setting up reduced wavefunction bases (one per k-point) -----
average nbasis = 42312.000 , ideal nbasis = 42330.081

---------- Setting up ewald sum ----------
Optimum gaussian width for ewald sums = 3.906449 bohr.
Real space sum over 605 unit cells with max indices [  5  5  2  ]
Reciprocal space sum over 5915 terms with max indices [  6  6  17  ]

---------- Allocating electronic variables ----------
Initializing wave functions:  linear combination of atomic orbitals
Ni (M=1) pseudo-atom majority spin occupations:   s ( 1 0.5 )  p ( 3 )  d ( 5 )
Ni (M=1) pseudo-atom minority spin occupations:   s ( 1 0 )  p ( 3 )  d ( 4.5 )
V (M=1) pseudo-atom majority spin occupations:   s ( 1 0 )  p ( 3 )  d ( 3 )
V (M=1) pseudo-atom minority spin occupations:   s ( 1 0 )  p ( 3 )  d ( 2 )
Co (M=1) pseudo-atom majority spin occupations:   s ( 1 0 )  p ( 3 )  d ( 5 )
Co (M=1) pseudo-atom minority spin occupations:   s ( 1 0 )  p ( 3 )  d ( 4 )
O pseudo-atom occupations:   s ( 2 )  p ( 4 )
	FillingsUpdate:  mu: -0.346984548  nElectrons: 344.000000  magneticMoment: [ Abs: 1.14508  Tot: -0.00000 ]
LCAOMinimize: Iter:   0  F: -1849.4081190798701755  |grad|_K:  9.923e-03  alpha:  1.000e+00
LCAOMinimize: 	Step increased F by 5.597807e+00, reducing alpha to 1.018103e-02.
	FillingsUpdate:  mu: -0.312273430  nElectrons: 344.000000  magneticMoment: [ Abs: 1.26934  Tot: -0.00000 ]
LCAOMinimize: Iter:   1  F: -1850.2662376117827989  |grad|_K:  9.237e-03  alpha:  1.018e-02  linmin: -4.375e-02  cgtest:  1.034e+00  t[s]:     78.33
LCAOMinimize: Encountered beta<0, resetting CG.
LCAOMinimize: 	Wrong curvature in test step, increasing alphaT to 3.054310e-02.
	FillingsUpdate:  mu: -0.278691674  nElectrons: 344.000000  magneticMoment: [ Abs: 1.34300  Tot: -0.00000 ]
LCAOMinimize: Iter:   2  F: -1851.0975865017167052  |grad|_K:  8.915e-03  alpha: -3.691e-01  linmin: -4.022e-02  cgtest:  9.996e-01  t[s]:     98.33
LCAOMinimize: Encountered beta<0, resetting CG.
LCAOMinimize: 	Step increased F by 1.198178e+01, reducing alpha to 8.771957e-03.
	FillingsUpdate:  mu: -0.259824257  nElectrons: 344.000000  magneticMoment: [ Abs: 1.42174  Tot: +0.00000 ]
LCAOMinimize: Iter:   3  F: -1851.7208327443679536  |grad|_K:  8.594e-03  alpha:  8.772e-03  linmin: -5.172e-02  cgtest:  1.010e+00  t[s]:    133.83
LCAOMinimize: Encountered beta<0, resetting CG.
LCAOMinimize: 	Wrong curvature in test step, increasing alphaT to 2.631587e-02.
	FillingsUpdate:  mu: -0.238686756  nElectrons: 344.000000  magneticMoment: [ Abs: 1.52529  Tot: -0.00000 ]
LCAOMinimize: Iter:   4  F: -1852.3748780695839287  |grad|_K:  9.096e-03  alpha: -6.309e-02  linmin: -4.581e-02  cgtest:  9.220e-01  t[s]:    153.22
LCAOMinimize: 	Step increased F by 1.008221e+01, reducing alpha to 9.081718e-03.
	FillingsUpdate:  mu: -0.241703415  nElectrons: 344.000000  magneticMoment: [ Abs: 1.74284  Tot: -0.00000 ]
LCAOMinimize: Iter:   5  F: -1853.3438118246695012  |grad|_K:  1.159e-02  alpha:  9.082e-03  linmin: -5.119e-02  cgtest:  7.644e-01  t[s]:    189.16
LCAOMinimize: 	Wrong curvature in test step, increasing alphaT to 2.724515e-02.
	FillingsUpdate:  mu: -0.246872666  nElectrons: 344.000000  magneticMoment: [ Abs: 4.26212  Tot: -0.00000 ]
LCAOMinimize: Iter:   6  F: -1856.8174444714495621  |grad|_K:  1.060e-02  alpha: -6.464e-03  linmin: -5.760e-02  cgtest:  6.220e-01  t[s]:    208.56
	FillingsUpdate:  mu: +0.177543089  nElectrons: 344.000000  magneticMoment: [ Abs: 4.11354  Tot: +0.00000 ]
LCAOMinimize: Iter:   7  F: -1858.9011960440479925  |grad|_K:  2.746e-02  alpha:  7.039e-02  linmin: -1.145e-02  cgtest:  1.465e-02  t[s]:    229.30
	FillingsUpdate:  mu: -0.255004572  nElectrons: 344.000000  magneticMoment: [ Abs: 4.52609  Tot: -0.00000 ]
LCAOMinimize: Iter:   8  F: -1870.1150501757608708  |grad|_K:  2.822e-02  alpha:  5.252e-03  linmin: -2.792e-02  cgtest:  6.236e-01  t[s]:    250.18
	FillingsUpdate:  mu: -0.236951374  nElectrons: 344.000000  magneticMoment: [ Abs: 7.43997  Tot: +0.00000 ]
LCAOMinimize: Iter:   9  F: -1876.9442254785276418  |grad|_K:  1.310e-02  alpha:  2.730e-03  linmin: -6.074e-02  cgtest:  6.147e-01  t[s]:    271.29
LCAOMinimize: Encountered beta<0, resetting CG.
LCAOMinimize: 	Predicted alpha/alphaT>3.000000, increasing alphaT to 8.188644e-03.
	FillingsUpdate:  mu: -0.048553930  nElectrons: 344.000000  magneticMoment: [ Abs: 9.26746  Tot: -0.00000 ]
LCAOMinimize: Iter:  10  F: -1878.4538258762931946  |grad|_K:  1.062e-02  alpha:  2.098e-02  linmin:  8.617e-03  cgtest: -1.301e-01  t[s]:    298.00
	FillingsUpdate:  mu: +0.131962228  nElectrons: 344.000000  magneticMoment: [ Abs: 8.95643  Tot: -0.00000 ]
LCAOMinimize: Iter:  11  F: -1880.3244190974683079  |grad|_K:  8.645e-03  alpha:  3.273e-02  linmin: -2.756e-02  cgtest:  3.618e-01  t[s]:    318.43
	FillingsUpdate:  mu: +0.043868239  nElectrons: 344.000000  magneticMoment: [ Abs: 9.08446  Tot: +0.00000 ]
LCAOMinimize: Iter:  12  F: -1881.3461173900757331  |grad|_K:  7.377e-03  alpha:  1.333e-02  linmin: -8.262e-02  cgtest:  6.831e-01  t[s]:    339.22
LCAOMinimize: 	Predicted alpha/alphaT>3.000000, increasing alphaT to 3.998634e-02.
	FillingsUpdate:  mu: +0.133695289  nElectrons: 344.000000  magneticMoment: [ Abs: 11.05434  Tot: -0.00000 ]
LCAOMinimize: Iter:  13  F: -1882.5018667990937047  |grad|_K:  8.787e-03  alpha:  3.115e-02  linmin:  2.946e-02  cgtest:  1.801e-01  t[s]:    365.69
	FillingsUpdate:  mu: +0.176102724  nElectrons: 344.000000  magneticMoment: [ Abs: 11.77867  Tot: +0.00000 ]
LCAOMinimize: Iter:  14  F: -1882.7380683057058377  |grad|_K:  8.850e-03  alpha:  1.021e-02  linmin: -2.189e-03  cgtest:  9.021e-01  t[s]:    386.52
LCAOMinimize: 	Predicted alpha/alphaT>3.000000, increasing alphaT to 3.063060e-02.
	FillingsUpdate:  mu: -0.047737217  nElectrons: 344.000000  magneticMoment: [ Abs: 11.00287  Tot: -0.00000 ]
LCAOMinimize: Iter:  15  F: -1883.5073279341875150  |grad|_K:  6.441e-03  alpha:  2.287e-02  linmin:  1.188e-02  cgtest: -3.544e-01  t[s]:    413.48
	FillingsUpdate:  mu: -0.038201935  nElectrons: 344.000000  magneticMoment: [ Abs: 10.87040  Tot: +0.00000 ]
LCAOMinimize: Iter:  16  F: -1883.7602181954762273  |grad|_K:  5.975e-03  alpha:  1.207e-02  linmin: -9.611e-03  cgtest:  4.424e-01  t[s]:    434.72
	FillingsUpdate:  mu: +0.105040162  nElectrons: 344.000000  magneticMoment: [ Abs: 12.09451  Tot: +0.00000 ]
LCAOMinimize: Iter:  17  F: -1884.0143587424854559  |grad|_K:  7.590e-03  alpha:  1.748e-02  linmin:  1.689e-02  cgtest:  1.230e-01  t[s]:    456.32
	FillingsUpdate:  mu: +0.148996190  nElectrons: 344.000000  magneticMoment: [ Abs: 12.79183  Tot: +0.00000 ]
LCAOMinimize: Iter:  18  F: -1884.1025680301133889  |grad|_K:  6.838e-03  alpha:  5.236e-03  linmin: -6.315e-04  cgtest:  8.645e-01  t[s]:    477.57
	FillingsUpdate:  mu: +0.091931172  nElectrons: 344.000000  magneticMoment: [ Abs: 12.67075  Tot: -0.00000 ]
LCAOMinimize: Iter:  19  F: -1884.3128483769462491  |grad|_K:  4.421e-03  alpha:  9.576e-03  linmin:  1.837e-03  cgtest: -1.034e-01  t[s]:    498.77
	FillingsUpdate:  mu: -0.012755745  nElectrons: 344.000000  magneticMoment: [ Abs: 12.23482  Tot: +0.00000 ]
LCAOMinimize: Iter:  20  F: -1884.4471841759359449  |grad|_K:  3.737e-03  alpha:  1.580e-02  linmin:  5.527e-03  cgtest:  3.027e-01  t[s]:    519.90
	FillingsUpdate:  mu: +0.027423436  nElectrons: 344.000000  magneticMoment: [ Abs: 12.67313  Tot: +0.00000 ]
LCAOMinimize: Iter:  21  F: -1884.5447774442045556  |grad|_K:  4.358e-03  alpha:  1.588e-02  linmin:  4.250e-03  cgtest:  2.505e-02  t[s]:    541.06
	FillingsUpdate:  mu: +0.063825924  nElectrons: 344.000000  magneticMoment: [ Abs: 13.88496  Tot: +0.00000 ]
LCAOMinimize: Iter:  22  F: -1884.6716161711451605  |grad|_K:  4.180e-03  alpha:  1.624e-02  linmin:  9.022e-04  cgtest:  3.745e-01  t[s]:    561.89
	FillingsUpdate:  mu: +0.040387608  nElectrons: 344.000000  magneticMoment: [ Abs: 14.16068  Tot: -0.00000 ]
LCAOMinimize: Iter:  23  F: -1884.7907052121706784  |grad|_K:  4.605e-03  alpha:  1.492e-02  linmin: -8.611e-04  cgtest: -2.261e-02  t[s]:    583.15
	FillingsUpdate:  mu: +0.019753853  nElectrons: 344.000000  magneticMoment: [ Abs: 14.10582  Tot: +0.00000 ]
LCAOMinimize: Iter:  24  F: -1884.9082115002347564  |grad|_K:  2.186e-03  alpha:  1.130e-02  linmin:  4.064e-04  cgtest: -1.351e-01  t[s]:    604.01
	FillingsUpdate:  mu: +0.051712266  nElectrons: 344.000000  magneticMoment: [ Abs: 14.88044  Tot: -0.00000 ]
LCAOMinimize: Iter:  25  F: -1884.9576480868693125  |grad|_K:  2.651e-03  alpha:  2.234e-02  linmin:  1.296e-04  cgtest:  8.747e-02  t[s]:    625.12
	FillingsUpdate:  mu: +0.047987733  nElectrons: 344.000000  magneticMoment: [ Abs: 15.50013  Tot: +0.00000 ]
LCAOMinimize: Iter:  26  F: -1884.9894037020189899  |grad|_K:  1.525e-03  alpha:  9.572e-03  linmin: -4.946e-06  cgtest: -6.299e-03  t[s]:    646.26
LCAOMinimize: 	Predicted alpha/alphaT>3.000000, increasing alphaT to 2.871724e-02.
	FillingsUpdate:  mu: +0.020154899  nElectrons: 344.000000  magneticMoment: [ Abs: 15.98300  Tot: +0.00000 ]
LCAOMinimize: Iter:  27  F: -1885.0227489058920582  |grad|_K:  1.509e-03  alpha:  3.033e-02  linmin: -3.382e-04  cgtest: -3.897e-03  t[s]:    673.40
	FillingsUpdate:  mu: +0.043834916  nElectrons: 344.000000  magneticMoment: [ Abs: 16.42732  Tot: -0.00000 ]
LCAOMinimize: Iter:  28  F: -1885.0379385839103179  |grad|_K:  1.474e-03  alpha:  1.422e-02  linmin:  2.012e-04  cgtest: -7.562e-02  t[s]:    694.65
	FillingsUpdate:  mu: +0.045084446  nElectrons: 344.000000  magneticMoment: [ Abs: 17.68897  Tot: -0.00000 ]
LCAOMinimize: Iter:  29  F: -1885.0633196742983273  |grad|_K:  1.580e-03  alpha:  2.668e-02  linmin:  1.127e-03  cgtest:  2.715e-01  t[s]:    715.91
	FillingsUpdate:  mu: +0.041661687  nElectrons: 344.000000  magneticMoment: [ Abs: 18.30360  Tot: -0.00000 ]
LCAOMinimize: Iter:  30  F: -1885.0848646635336081  |grad|_K:  1.759e-03  alpha:  2.145e-02  linmin: -6.365e-04  cgtest:  1.630e-01  t[s]:    737.40
LCAOMinimize: None of the convergence criteria satisfied after 30 iterations.


---- Citations for features of the code used in this run ----

   Software package:
      R. Sundararaman, K. Letchworth-Weaver, K.A. Schwarz, D. Gunceler, Y. Ozhabes and T.A. Arias, 'JDFTx: software for joint density-functional theory', SoftwareX 6, 278 (2017)

   Simplified rotationally-invariant DFT+U:
      S. L. Dudarev et al., Phys. Rev. B 57, 1505 (1998)

   LibXC library of exchange-correlation functions:
      M. A. L. Marques, M. J. T. Oliveira and T. Burnus, Comput. Phys. Commun. 183, 2272 (2012)

   Hammer, Hansen, and Norskov exchange functional:
      B. Hammer, L. B. Hansen, and J. K. Nørskov, Phys. Rev. B 59, 7413 (1999)

   Perdew, Burke & Ernzerhof correlation functional:
      J. P. Perdew, K. Burke, and M. Ernzerhof, Phys. Rev. Lett. 77, 3865 (1996)

   Pseudopotentials:
      M Schlipf and F Gygi, Comput. Phys. Commun. 196, 36 (2015)

   Total energy minimization with Auxiliary Hamiltonian:
      C. Freysoldt, S. Boeck, and J. Neugebauer, Phys. Rev. B 79, 241103(R) (2009)

This list may not be complete. Please suggest additional citations or
report any other bugs at https://github.com/shankar1729/jdftx/issues

Initialization completed successfully at t[s]:    744.79


-------- Electronic minimization -----------
	FillingsUpdate:  mu: +0.041661691  nElectrons: 344.000000  magneticMoment: [ Abs: 18.30360  Tot: -0.00000 ]
ElecMinimize: Iter:   0  F: -1885.084864663532016  |grad|_K:  1.038e-03  alpha:  1.000e+00
	FillingsUpdate:  mu: +1.539507473  nElectrons: 344.000000  magneticMoment: [ Abs: 16.42707  Tot: -0.00000 ]
	SubspaceRotationAdjust: set factor to 0.601
ElecMinimize: Iter:   1  F: -1926.932685717499226  |grad|_K:  2.503e-03  alpha:  4.409e-01  linmin:  9.284e-03  t[s]:    811.82
ElecMinimize: 	Step increased F by 1.033902e+02, reducing alpha to 6.494050e-03.
	FillingsUpdate:  mu: +0.653160871  nElectrons: 344.000000  magneticMoment: [ Abs: 18.12129  Tot: -0.00000 ]
	SubspaceRotationAdjust: set factor to 0.504
ElecMinimize: Iter:   2  F: -1936.737544676718926  |grad|_K:  1.152e-03  alpha:  6.494e-03  linmin: -7.048e-03  t[s]:    886.38
	FillingsUpdate:  mu: +0.273518387  nElectrons: 344.000000  magneticMoment: [ Abs: 19.69134  Tot: -0.00000 ]
	SubspaceRotationAdjust: set factor to 0.66
ElecMinimize: Iter:   3  F: -1939.366862605284723  |grad|_K:  7.567e-04  alpha:  8.164e-03  linmin: -3.992e-03  t[s]:    932.25
ElecMinimize: 	Predicted alpha/alphaT>3.000000, increasing alphaT to 2.449081e-02.
	FillingsUpdate:  mu: +0.378085423  nElectrons: 344.000000  magneticMoment: [ Abs: 20.53579  Tot: +0.00000 ]
	SubspaceRotationAdjust: set factor to 0.497
ElecMinimize: Iter:   4  F: -1942.844452601438206  |grad|_K:  1.119e-03  alpha:  2.692e-02  linmin:  1.106e-03  t[s]:    990.96
	FillingsUpdate:  mu: +0.923737244  nElectrons: 344.000000  magneticMoment: [ Abs: 24.01500  Tot: +0.00000 ]
	SubspaceRotationAdjust: set factor to 0.365
ElecMinimize: Iter:   5  F: -1952.677513810529717  |grad|_K:  7.193e-04  alpha:  5.520e-02  linmin: -5.938e-06  t[s]:   1036.66
ElecMinimize: 	Predicted alpha/alphaT>3.000000, increasing alphaT to 1.656064e-01.
	FillingsUpdate:  mu: +0.414858981  nElectrons: 344.000000  magneticMoment: [ Abs: 22.35487  Tot: -0.00000 ]
	SubspaceRotationAdjust: set factor to 0.269
ElecMinimize: Iter:   6  F: -1960.426888413408051  |grad|_K:  6.336e-04  alpha:  3.174e-02  linmin: -6.147e-03  t[s]:   1095.62
	FillingsUpdate:  mu: +0.122690997  nElectrons: 344.000000  magneticMoment: [ Abs: 21.01548  Tot: -0.00000 ]
	SubspaceRotationAdjust: set factor to 0.244
ElecMinimize: Iter:   7  F: -1963.168195757836884  |grad|_K:  3.614e-04  alpha:  1.299e-02  linmin:  1.758e-05  t[s]:   1142.28
	FillingsUpdate:  mu: +0.153448662  nElectrons: 344.000000  magneticMoment: [ Abs: 20.81552  Tot: -0.00000 ]
	SubspaceRotationAdjust: set factor to 0.28
ElecMinimize: Iter:   8  F: -1963.387547585156426  |grad|_K:  4.038e-04  alpha:  9.875e-03  linmin:  1.575e-04  t[s]:   1188.58
ElecMinimize: 	Predicted alpha/alphaT>3.000000, increasing alphaT to 2.962603e-02.
	FillingsUpdate:  mu: +0.372048749  nElectrons: 344.000000  magneticMoment: [ Abs: 19.65815  Tot: +0.00000 ]
	SubspaceRotationAdjust: set factor to 0.156
ElecMinimize: Iter:   9  F: -1963.947776975242505  |grad|_K:  6.942e-04  alpha:  4.350e-02  linmin:  4.249e-03  t[s]:   1248.65
ElecMinimize: 	Bad step direction: g.d > 0.
ElecMinimize: 	Undoing step.
ElecMinimize: 	Step failed: resetting search direction.
	FillingsUpdate:  mu: +0.372048749  nElectrons: 344.000000  magneticMoment: [ Abs: 19.65815  Tot: +0.00000 ]
	SubspaceRotationAdjust: set factor to 0.0938
	SubspaceRotationAdjust: resetting CG because factor has changed by 0.0937845
ElecMinimize: 	State modified externally: resetting search direction.
ElecMinimize: Iter:  10  F: -1963.947776975240686  |grad|_K:  4.406e-04  alpha:  0.000e+00
	FillingsUpdate:  mu: +0.199667893  nElectrons: 344.000000  magneticMoment: [ Abs: 21.26470  Tot: -0.00000 ]
	SubspaceRotationAdjust: set factor to 0.0951
ElecMinimize: Iter:  11  F: -1967.315844993268456  |grad|_K:  1.808e-04  alpha:  8.681e-02  linmin: -3.553e-02  t[s]:   1351.04
	FillingsUpdate:  mu: +0.251305661  nElectrons: 344.000000  magneticMoment: [ Abs: 22.23454  Tot: +0.00000 ]
	SubspaceRotationAdjust: set factor to 0.0554
ElecMinimize: Iter:  12  F: -1968.044658743402124  |grad|_K:  1.782e-04  alpha:  1.654e-01  linmin:  1.907e-02  t[s]:   1396.54
	FillingsUpdate:  mu: +0.280506847  nElectrons: 344.000000  magneticMoment: [ Abs: 22.31566  Tot: -0.00000 ]
	SubspaceRotationAdjust: set factor to 0.0406
ElecMinimize: Iter:  13  F: -1968.076134604535582  |grad|_K:  1.574e-04  alpha:  3.776e-02  linmin: -5.065e-05  t[s]:   1441.87
ElecMinimize: 	Predicted alpha/alphaT>3.000000, increasing alphaT to 1.132696e-01.
	FillingsUpdate:  mu: +0.092111316  nElectrons: 344.000000  magneticMoment: [ Abs: 21.98942  Tot: +0.00000 ]
	SubspaceRotationAdjust: set factor to 0.0737
ElecMinimize: Iter:  14  F: -1968.855103619750025  |grad|_K:  8.996e-05  alpha:  1.799e-01  linmin: -4.591e-05  t[s]:   1501.19
	FillingsUpdate:  mu: +0.139841643  nElectrons: 344.000000  magneticMoment: [ Abs: 21.81206  Tot: -0.00000 ]
	SubspaceRotationAdjust: set factor to 0.0641
ElecMinimize: Iter:  15  F: -1969.139202527037241  |grad|_K:  6.914e-05  alpha:  2.022e-01  linmin:  4.774e-04  t[s]:   1547.62
	FillingsUpdate:  mu: +0.137711612  nElectrons: 344.000000  magneticMoment: [ Abs: 22.01556  Tot: +0.00000 ]
	SubspaceRotationAdjust: set factor to 0.0877
ElecMinimize: Iter:  16  F: -1969.335759094515652  |grad|_K:  5.754e-05  alpha:  2.475e-01  linmin:  2.808e-06  t[s]:   1593.80
	FillingsUpdate:  mu: +0.089320287  nElectrons: 344.000000  magneticMoment: [ Abs: 22.29925  Tot: +0.00000 ]
	SubspaceRotationAdjust: set factor to 0.0846
ElecMinimize: Iter:  17  F: -1969.472133577860404  |grad|_K:  5.472e-05  alpha:  2.366e-01  linmin: -6.831e-05  t[s]:   1640.28
	FillingsUpdate:  mu: +0.119088923  nElectrons: 344.000000  magneticMoment: [ Abs: 22.43273  Tot: -0.00000 ]
	SubspaceRotationAdjust: set factor to 0.111
ElecMinimize: Iter:  18  F: -1969.598901451764050  |grad|_K:  4.687e-05  alpha:  2.390e-01  linmin: -6.443e-05  t[s]:   1686.42
	FillingsUpdate:  mu: +0.150236710  nElectrons: 344.000000  magneticMoment: [ Abs: 22.61790  Tot: -0.00000 ]
	SubspaceRotationAdjust: set factor to 0.113
ElecMinimize: Iter:  19  F: -1969.717812502685774  |grad|_K:  5.639e-05  alpha:  2.999e-01  linmin: -1.067e-04  t[s]:   1731.88
	FillingsUpdate:  mu: +0.111984517  nElectrons: 344.000000  magneticMoment: [ Abs: 23.12952  Tot: -0.00000 ]
	SubspaceRotationAdjust: set factor to 0.11
ElecMinimize: Iter:  20  F: -1969.842727188948857  |grad|_K:  5.095e-05  alpha:  2.100e-01  linmin: -3.889e-05  t[s]:   1777.46
	FillingsUpdate:  mu: +0.129403143  nElectrons: 344.000000  magneticMoment: [ Abs: 24.17621  Tot: +0.00000 ]
	SubspaceRotationAdjust: set factor to 0.127
ElecMinimize: Iter:  21  F: -1970.005465839871931  |grad|_K:  6.436e-05  alpha:  3.729e-01  linmin:  1.158e-04  t[s]:   1823.20
	FillingsUpdate:  mu: +0.135264049  nElectrons: 344.000000  magneticMoment: [ Abs: 24.62213  Tot: -0.00000 ]
	SubspaceRotationAdjust: set factor to 0.156
ElecMinimize: Iter:  22  F: -1970.077792188402782  |grad|_K:  6.817e-05  alpha:  8.617e-02  linmin: -2.521e-04  t[s]:   1868.86
	FillingsUpdate:  mu: +0.133361716  nElectrons: 344.000000  magneticMoment: [ Abs: 25.72626  Tot: -0.00000 ]
	SubspaceRotationAdjust: set factor to 0.118
ElecMinimize: Iter:  23  F: -1970.211518593164101  |grad|_K:  8.379e-05  alpha:  1.294e-01  linmin:  6.049e-05  t[s]:   1915.25
	FillingsUpdate:  mu: +0.127306811  nElectrons: 344.000000  magneticMoment: [ Abs: 26.25092  Tot: +0.00000 ]
	SubspaceRotationAdjust: set factor to 0.111
ElecMinimize: Iter:  24  F: -1970.262888625457208  |grad|_K:  7.230e-05  alpha:  3.420e-02  linmin: -2.453e-04  t[s]:   1961.58
	FillingsUpdate:  mu: +0.136845082  nElectrons: 344.000000  magneticMoment: [ Abs: 27.01707  Tot: -0.00000 ]
	SubspaceRotationAdjust: set factor to 0.113
ElecMinimize: Iter:  25  F: -1970.331099230692871  |grad|_K:  7.075e-05  alpha:  6.431e-02  linmin:  2.942e-04  t[s]:   2008.10
	FillingsUpdate:  mu: +0.138880647  nElectrons: 344.000000  magneticMoment: [ Abs: 27.25148  Tot: -0.00000 ]
	SubspaceRotationAdjust: set factor to 0.103
ElecMinimize: Iter:  26  F: -1970.340566067160808  |grad|_K:  7.443e-05  alpha:  1.944e-02  linmin:  1.568e-05  t[s]:   2055.05
	FillingsUpdate:  mu: +0.145869113  nElectrons: 344.000000  magneticMoment: [ Abs: 27.70341  Tot: +0.00000 ]
	SubspaceRotationAdjust: set factor to 0.0885
ElecMinimize: Iter:  27  F: -1970.371365021314659  |grad|_K:  7.347e-05  alpha:  3.321e-02  linmin:  5.344e-05  t[s]:   2101.62
	FillingsUpdate:  mu: +0.139694567  nElectrons: 344.000000  magneticMoment: [ Abs: 28.04526  Tot: -0.00000 ]
	SubspaceRotationAdjust: set factor to 0.0751
ElecMinimize: Iter:  28  F: -1970.390834883853358  |grad|_K:  7.112e-05  alpha:  2.275e-02  linmin:  1.528e-05  t[s]:   2147.41
	FillingsUpdate:  mu: +0.126866239  nElectrons: 344.000000  magneticMoment: [ Abs: 28.47239  Tot: +0.00000 ]
	SubspaceRotationAdjust: set factor to 0.0673
ElecMinimize: Iter:  29  F: -1970.417733915813187  |grad|_K:  6.545e-05  alpha:  3.036e-02  linmin: -4.388e-05  t[s]:   2193.14
	FillingsUpdate:  mu: +0.118707268  nElectrons: 344.000000  magneticMoment: [ Abs: 28.78876  Tot: +0.00000 ]
	SubspaceRotationAdjust: set factor to 0.0609
ElecMinimize: Iter:  30  F: -1970.442006555930220  |grad|_K:  6.330e-05  alpha:  3.097e-02  linmin:  6.840e-05  t[s]:   2239.11
	FillingsUpdate:  mu: +0.116650772  nElectrons: 344.000000  magneticMoment: [ Abs: 28.99860  Tot: -0.00000 ]
	SubspaceRotationAdjust: set factor to 0.0552
ElecMinimize: Iter:  31  F: -1970.456349273746582  |grad|_K:  6.179e-05  alpha:  2.235e-02  linmin:  6.979e-06  t[s]:   2285.37
	FillingsUpdate:  mu: +0.118334770  nElectrons: 344.000000  magneticMoment: [ Abs: 29.21339  Tot: +0.00000 ]
	SubspaceRotationAdjust: set factor to 0.0502
ElecMinimize: Iter:  32  F: -1970.472576120410849  |grad|_K:  5.893e-05  alpha:  2.472e-02  linmin:  2.426e-05  t[s]:   2332.21
	FillingsUpdate:  mu: +0.113454007  nElectrons: 344.000000  magneticMoment: [ Abs: 29.37197  Tot: -0.00000 ]
	SubspaceRotationAdjust: set factor to 0.0464
ElecMinimize: Iter:  33  F: -1970.485467541553135  |grad|_K:  5.496e-05  alpha:  2.197e-02  linmin:  1.154e-05  t[s]:   2378.59
	FillingsUpdate:  mu: +0.102959090  nElectrons: 344.000000  magneticMoment: [ Abs: 29.49750  Tot: -0.00000 ]
	SubspaceRotationAdjust: set factor to 0.043
ElecMinimize: Iter:  34  F: -1970.497766526698797  |grad|_K:  5.037e-05  alpha:  2.365e-02  linmin: -1.508e-05  t[s]:   2424.22
	FillingsUpdate:  mu: +0.095903585  nElectrons: 344.000000  magneticMoment: [ Abs: 29.59518  Tot: +0.00000 ]
	SubspaceRotationAdjust: set factor to 0.0409
ElecMinimize: Iter:  35  F: -1970.509609470178702  |grad|_K:  4.482e-05  alpha:  2.676e-02  linmin:  9.812e-05  t[s]:   2470.41
	FillingsUpdate:  mu: +0.092740142  nElectrons: 344.000000  magneticMoment: [ Abs: 29.63041  Tot: -0.00000 ]
	SubspaceRotationAdjust: set factor to 0.0408
ElecMinimize: Iter:  36  F: -1970.514343900103768  |grad|_K:  4.199e-05  alpha:  1.281e-02  linmin: -9.524e-05  t[s]:   2516.66
	FillingsUpdate:  mu: +0.092294310  nElectrons: 344.000000  magneticMoment: [ Abs: 29.66292  Tot: +0.00000 ]
	SubspaceRotationAdjust: set factor to 0.041
ElecMinimize: Iter:  37  F: -1970.518524164734345  |grad|_K:  4.008e-05  alpha:  1.244e-02  linmin:  7.927e-05  t[s]:   2562.39
	FillingsUpdate:  mu: +0.091778069  nElectrons: 344.000000  magneticMoment: [ Abs: 29.68389  Tot: -0.00000 ]
	SubspaceRotationAdjust: set factor to 0.0402
ElecMinimize: Iter:  38  F: -1970.520650971402119  |grad|_K:  3.939e-05  alpha:  7.905e-03  linmin: -3.257e-06  t[s]:   2607.98
	FillingsUpdate:  mu: +0.097003625  nElectrons: 344.000000  magneticMoment: [ Abs: 29.70499  Tot: +0.00000 ]
	SubspaceRotationAdjust: set factor to 0.0382
ElecMinimize: Iter:  39  F: -1970.522694348592495  |grad|_K:  3.876e-05  alpha:  7.523e-03  linmin:  2.941e-05  t[s]:   2653.04
	FillingsUpdate:  mu: +0.100674931  nElectrons: 344.000000  magneticMoment: [ Abs: 29.72393  Tot: +0.00000 ]
	SubspaceRotationAdjust: set factor to 0.0353
ElecMinimize: Iter:  40  F: -1970.524359852958924  |grad|_K:  3.791e-05  alpha:  6.486e-03  linmin:  1.879e-05  t[s]:   2698.98
	FillingsUpdate:  mu: +0.102545542  nElectrons: 344.000000  magneticMoment: [ Abs: 29.74160  Tot: -0.00000 ]
	SubspaceRotationAdjust: set factor to 0.0322
ElecMinimize: Iter:  41  F: -1970.525848002371731  |grad|_K:  3.672e-05  alpha:  6.021e-03  linmin:  2.315e-05  t[s]:   2744.90
	FillingsUpdate:  mu: +0.102900489  nElectrons: 344.000000  magneticMoment: [ Abs: 29.75736  Tot: +0.00000 ]
	SubspaceRotationAdjust: set factor to 0.0294
ElecMinimize: Iter:  42  F: -1970.527133651104350  |grad|_K:  3.524e-05  alpha:  5.561e-03  linmin:  2.299e-05  t[s]:   2790.68
	FillingsUpdate:  mu: +0.102558191  nElectrons: 344.000000  magneticMoment: [ Abs: 29.77108  Tot: -0.00000 ]
	SubspaceRotationAdjust: set factor to 0.027
ElecMinimize: Iter:  43  F: -1970.528240466774378  |grad|_K:  3.361e-05  alpha:  5.198e-03  linmin:  2.349e-05  t[s]:   2835.88
	FillingsUpdate:  mu: +0.102528788  nElectrons: 344.000000  magneticMoment: [ Abs: 29.78280  Tot: -0.00000 ]
	SubspaceRotationAdjust: set factor to 0.025
ElecMinimize: Iter:  44  F: -1970.529186285250944  |grad|_K:  3.198e-05  alpha:  4.884e-03  linmin:  2.277e-05  t[s]:   2881.25
	FillingsUpdate:  mu: +0.102460535  nElectrons: 344.000000  magneticMoment: [ Abs: 29.79270  Tot: -0.00000 ]
	SubspaceRotationAdjust: set factor to 0.0234
ElecMinimize: Iter:  45  F: -1970.529996585153640  |grad|_K:  3.042e-05  alpha:  4.621e-03  linmin:  2.161e-05  t[s]:   2926.36
	FillingsUpdate:  mu: +0.101321493  nElectrons: 344.000000  magneticMoment: [ Abs: 29.80104  Tot: +0.00000 ]
	SubspaceRotationAdjust: set factor to 0.0222
ElecMinimize: Iter:  46  F: -1970.530695315008643  |grad|_K:  2.899e-05  alpha:  4.399e-03  linmin:  2.011e-05  t[s]:   2972.36
	FillingsUpdate:  mu: +0.099802605  nElectrons: 344.000000  magneticMoment: [ Abs: 29.80809  Tot: +0.00000 ]
	SubspaceRotationAdjust: set factor to 0.0213
ElecMinimize: Iter:  47  F: -1970.531303532979564  |grad|_K:  2.769e-05  alpha:  4.210e-03  linmin:  1.853e-05  t[s]:   3017.36
	FillingsUpdate:  mu: +0.099022135  nElectrons: 344.000000  magneticMoment: [ Abs: 29.81405  Tot: -0.00000 ]
	SubspaceRotationAdjust: set factor to 0.0205
ElecMinimize: Iter:  48  F: -1970.531838586295862  |grad|_K:  2.654e-05  alpha:  4.052e-03  linmin:  1.697e-05  t[s]:   3061.80
	FillingsUpdate:  mu: +0.098548526  nElectrons: 344.000000  magneticMoment: [ Abs: 29.81907  Tot: -0.00000 ]
	SubspaceRotationAdjust: set factor to 0.0198
ElecMinimize: Iter:  49  F: -1970.532314480252126  |grad|_K:  2.550e-05  alpha:  3.920e-03  linmin:  1.549e-05  t[s]:   3106.45
	FillingsUpdate:  mu: +0.098440630  nElectrons: 344.000000  magneticMoment: [ Abs: 29.82327  Tot: +0.00000 ]
	SubspaceRotationAdjust: set factor to 0.0191
ElecMinimize: Iter:  50  F: -1970.532742430928465  |grad|_K:  2.457e-05  alpha:  3.813e-03  linmin:  1.410e-05  t[s]:   3151.14
	FillingsUpdate:  mu: +0.097686583  nElectrons: 344.000000  magneticMoment: [ Abs: 29.82677  Tot: -0.00000 ]
	SubspaceRotationAdjust: set factor to 0.0185
ElecMinimize: Iter:  51  F: -1970.533131419275605  |grad|_K:  2.374e-05  alpha:  3.729e-03  linmin:  1.279e-05  t[s]:   3195.49
	FillingsUpdate:  mu: +0.096660485  nElectrons: 344.000000  magneticMoment: [ Abs: 29.82962  Tot: +0.00000 ]
	SubspaceRotationAdjust: set factor to 0.0179
ElecMinimize: Iter:  52  F: -1970.533488656849158  |grad|_K:  2.299e-05  alpha:  3.665e-03  linmin:  1.155e-05  t[s]:   3240.20
	FillingsUpdate:  mu: +0.096214652  nElectrons: 344.000000  magneticMoment: [ Abs: 29.83189  Tot: +0.00000 ]
	SubspaceRotationAdjust: set factor to 0.0172
ElecMinimize: Iter:  53  F: -1970.533819952524937  |grad|_K:  2.231e-05  alpha:  3.622e-03  linmin:  1.035e-05  t[s]:   3284.76
	FillingsUpdate:  mu: +0.096832564  nElectrons: 344.000000  magneticMoment: [ Abs: 29.83360  Tot: -0.00000 ]
	SubspaceRotationAdjust: set factor to 0.0165
ElecMinimize: Iter:  54  F: -1970.534129989893017  |grad|_K:  2.168e-05  alpha:  3.597e-03  linmin:  9.190e-06  t[s]:   3329.53
	FillingsUpdate:  mu: +0.097856697  nElectrons: 344.000000  magneticMoment: [ Abs: 29.83479  Tot: +0.00000 ]
	SubspaceRotationAdjust: set factor to 0.0158
ElecMinimize: Iter:  55  F: -1970.534422541093136  |grad|_K:  2.111e-05  alpha:  3.589e-03  linmin:  8.039e-06  t[s]:   3373.88
	FillingsUpdate:  mu: +0.098047521  nElectrons: 344.000000  magneticMoment: [ Abs: 29.83542  Tot: +0.00000 ]
	SubspaceRotationAdjust: set factor to 0.0151
ElecMinimize: Iter:  56  F: -1970.534700626972608  |grad|_K:  2.057e-05  alpha:  3.598e-03  linmin:  6.885e-06  t[s]:   3418.98
	FillingsUpdate:  mu: +0.098436011  nElectrons: 344.000000  magneticMoment: [ Abs: 29.83551  Tot: +0.00000 ]
	SubspaceRotationAdjust: set factor to 0.0143
ElecMinimize: Iter:  57  F: -1970.534966640353105  |grad|_K:  2.007e-05  alpha:  3.621e-03  linmin:  5.712e-06  t[s]:   3463.70
	FillingsUpdate:  mu: +0.099273489  nElectrons: 344.000000  magneticMoment: [ Abs: 29.83502  Tot: -0.00000 ]
	SubspaceRotationAdjust: set factor to 0.0135
ElecMinimize: Iter:  58  F: -1970.535222442870690  |grad|_K:  1.959e-05  alpha:  3.657e-03  linmin:  4.503e-06  t[s]:   3508.34
	FillingsUpdate:  mu: +0.100362330  nElectrons: 344.000000  magneticMoment: [ Abs: 29.83392  Tot: -0.00000 ]
	SubspaceRotationAdjust: set factor to 0.0128
ElecMinimize: Iter:  59  F: -1970.535469448904905  |grad|_K:  1.914e-05  alpha:  3.703e-03  linmin:  3.253e-06  t[s]:   3553.36
	FillingsUpdate:  mu: +0.101268527  nElectrons: 344.000000  magneticMoment: [ Abs: 29.83220  Tot: -0.00000 ]
	SubspaceRotationAdjust: set factor to 0.012
	SubspaceRotationAdjust: resetting CG because factor has changed by 0.128004
ElecMinimize: 	State modified externally: resetting search direction.
ElecMinimize: Iter:  60  F: -1970.535708688453951  |grad|_K:  1.840e-05  alpha:  3.758e-03
ElecMinimize: 	Predicted alpha/alphaT>3.000000, increasing alphaT to 1.127324e-02.
ElecMinimize: 	Predicted alpha/alphaT>3.000000, increasing alphaT to 3.381972e-02.
ElecMinimize: 	Predicted alpha/alphaT>3.000000, increasing alphaT to 1.014591e-01.
	FillingsUpdate:  mu: +0.090799417  nElectrons: 344.000000  magneticMoment: [ Abs: 29.73874  Tot: -0.00000 ]
	SubspaceRotationAdjust: set factor to 0.0149
ElecMinimize: Iter:  61  F: -1970.595011321159518  |grad|_K:  3.027e-05  alpha:  1.008e+00  linmin: -3.724e-05  t[s]:   3690.58
	FillingsUpdate:  mu: +0.084940888  nElectrons: 344.000000  magneticMoment: [ Abs: 29.29195  Tot: +0.00000 ]
	SubspaceRotationAdjust: set factor to 0.0169
ElecMinimize: Iter:  62  F: -1970.705877603358886  |grad|_K:  3.266e-05  alpha:  6.566e-01  linmin:  5.761e-05  t[s]:   3735.58
	FillingsUpdate:  mu: +0.082715950  nElectrons: 344.000000  magneticMoment: [ Abs: 28.89455  Tot: -0.00000 ]
	SubspaceRotationAdjust: set factor to 0.0195
ElecMinimize: Iter:  63  F: -1970.788422171801130  |grad|_K:  2.823e-05  alpha:  4.586e-01  linmin: -1.224e-03  t[s]:   3780.60
	FillingsUpdate:  mu: +0.082891381  nElectrons: 344.000000  magneticMoment: [ Abs: 28.64637  Tot: -0.00000 ]
	SubspaceRotationAdjust: set factor to 0.0225
ElecMinimize: Iter:  64  F: -1970.854860006550780  |grad|_K:  2.250e-05  alpha:  4.694e-01  linmin: -4.662e-04  t[s]:   3825.59
	FillingsUpdate:  mu: +0.093400226  nElectrons: 344.000000  magneticMoment: [ Abs: 28.54682  Tot: +0.00000 ]
	SubspaceRotationAdjust: set factor to 0.0262
ElecMinimize: Iter:  65  F: -1970.887812024127243  |grad|_K:  1.864e-05  alpha:  3.698e-01  linmin: -2.247e-04  t[s]:   3870.52
	FillingsUpdate:  mu: +0.099758468  nElectrons: 344.000000  magneticMoment: [ Abs: 28.53421  Tot: +0.00000 ]
	SubspaceRotationAdjust: set factor to 0.0307
ElecMinimize: Iter:  66  F: -1970.921599721897792  |grad|_K:  2.165e-05  alpha:  5.553e-01  linmin: -4.069e-04  t[s]:   3915.43
	FillingsUpdate:  mu: +0.094829767  nElectrons: 344.000000  magneticMoment: [ Abs: 28.65335  Tot: +0.00000 ]
	SubspaceRotationAdjust: set factor to 0.0364
ElecMinimize: Iter:  67  F: -1970.959378036200405  |grad|_K:  2.042e-05  alpha:  4.582e-01  linmin: -2.611e-04  t[s]:   3960.27
	FillingsUpdate:  mu: +0.095264453  nElectrons: 344.000000  magneticMoment: [ Abs: 28.83583  Tot: -0.00000 ]
	SubspaceRotationAdjust: set factor to 0.0417
ElecMinimize: Iter:  68  F: -1970.990402507921999  |grad|_K:  1.945e-05  alpha:  4.245e-01  linmin: -2.315e-04  t[s]:   4005.04
	FillingsUpdate:  mu: +0.097265267  nElectrons: 344.000000  magneticMoment: [ Abs: 28.98612  Tot: -0.00000 ]
	SubspaceRotationAdjust: set factor to 0.0475
ElecMinimize: Iter:  69  F: -1971.017271471752565  |grad|_K:  1.823e-05  alpha:  4.053e-01  linmin: -4.276e-04  t[s]:   4049.93
	FillingsUpdate:  mu: +0.101782572  nElectrons: 344.000000  magneticMoment: [ Abs: 29.12220  Tot: -0.00000 ]
	SubspaceRotationAdjust: set factor to 0.0515
ElecMinimize: Iter:  70  F: -1971.044375346542211  |grad|_K:  1.783e-05  alpha:  4.610e-01  linmin: -4.067e-04  t[s]:   4094.86
	FillingsUpdate:  mu: +0.107000553  nElectrons: 344.000000  magneticMoment: [ Abs: 29.26918  Tot: +0.00000 ]
	SubspaceRotationAdjust: set factor to 0.0561
ElecMinimize: Iter:  71  F: -1971.067252727372306  |grad|_K:  1.572e-05  alpha:  4.070e-01  linmin: -2.078e-04  t[s]:   4139.58
	FillingsUpdate:  mu: +0.107952244  nElectrons: 344.000000  magneticMoment: [ Abs: 29.39365  Tot: -0.00000 ]
	SubspaceRotationAdjust: set factor to 0.0616
ElecMinimize: Iter:  72  F: -1971.084929543204453  |grad|_K:  1.437e-05  alpha:  4.075e-01  linmin: -1.865e-04  t[s]:   4184.45
	FillingsUpdate:  mu: +0.107786154  nElectrons: 344.000000  magneticMoment: [ Abs: 29.47944  Tot: +0.00000 ]
	SubspaceRotationAdjust: set factor to 0.0699
ElecMinimize: Iter:  73  F: -1971.099353074651845  |grad|_K:  1.274e-05  alpha:  3.980e-01  linmin: -1.988e-04  t[s]:   4229.05
	FillingsUpdate:  mu: +0.107049421  nElectrons: 344.000000  magneticMoment: [ Abs: 29.53931  Tot: +0.00000 ]
	SubspaceRotationAdjust: set factor to 0.0814
ElecMinimize: Iter:  74  F: -1971.109815464784333  |grad|_K:  1.072e-05  alpha:  3.672e-01  linmin: -9.619e-05  t[s]:   4273.86
	FillingsUpdate:  mu: +0.108215708  nElectrons: 344.000000  magneticMoment: [ Abs: 29.60224  Tot: -0.00000 ]
	SubspaceRotationAdjust: set factor to 0.0947
	SubspaceRotationAdjust: resetting CG because factor has changed by 7.88872
ElecMinimize: 	State modified externally: resetting search direction.
ElecMinimize: Iter:  75  F: -1971.117990536574098  |grad|_K:  1.004e-05  alpha:  4.066e-01
	FillingsUpdate:  mu: +0.106549924  nElectrons: 344.000000  magneticMoment: [ Abs: 29.63698  Tot: +0.00000 ]
	SubspaceRotationAdjust: set factor to 0.112
ElecMinimize: Iter:  76  F: -1971.124751537133989  |grad|_K:  8.710e-06  alpha:  3.854e-01  linmin: -8.357e-05  t[s]:   4383.60
	FillingsUpdate:  mu: +0.106377297  nElectrons: 344.000000  magneticMoment: [ Abs: 29.69103  Tot: +0.00000 ]
	SubspaceRotationAdjust: set factor to 0.133
ElecMinimize: Iter:  77  F: -1971.130621412852634  |grad|_K:  8.349e-06  alpha:  4.436e-01  linmin: -6.530e-05  t[s]:   4428.48
	FillingsUpdate:  mu: +0.106367813  nElectrons: 344.000000  magneticMoment: [ Abs: 29.75594  Tot: +0.00000 ]
	SubspaceRotationAdjust: set factor to 0.157
ElecMinimize: Iter:  78  F: -1971.135267565571439  |grad|_K:  7.126e-06  alpha:  3.820e-01  linmin: -2.283e-05  t[s]:   4474.07
	FillingsUpdate:  mu: +0.105333268  nElectrons: 344.000000  magneticMoment: [ Abs: 29.85557  Tot: -0.00000 ]
	SubspaceRotationAdjust: set factor to 0.183
ElecMinimize: Iter:  79  F: -1971.139077830870519  |grad|_K:  6.387e-06  alpha:  4.302e-01  linmin: -3.909e-05  t[s]:   4519.01
	FillingsUpdate:  mu: +0.102876945  nElectrons: 344.000000  magneticMoment: [ Abs: 29.96285  Tot: -0.00000 ]
	SubspaceRotationAdjust: set factor to 0.212
ElecMinimize: Iter:  80  F: -1971.142005532655048  |grad|_K:  5.455e-06  alpha:  4.113e-01  linmin: -7.774e-05  t[s]:   4564.12
	FillingsUpdate:  mu: +0.103425114  nElectrons: 344.000000  magneticMoment: [ Abs: 30.05110  Tot: -0.00000 ]
	SubspaceRotationAdjust: set factor to 0.248
ElecMinimize: Iter:  81  F: -1971.144033335245695  |grad|_K:  4.862e-06  alpha:  3.890e-01  linmin:  5.989e-06  t[s]:   4609.03
	FillingsUpdate:  mu: +0.103623073  nElectrons: 344.000000  magneticMoment: [ Abs: 30.18611  Tot: -0.00000 ]
	SubspaceRotationAdjust: set factor to 0.28
ElecMinimize: Iter:  82  F: -1971.145843812445491  |grad|_K:  4.632e-06  alpha:  4.400e-01  linmin: -2.069e-05  t[s]:   4653.63
	FillingsUpdate:  mu: +0.104716608  nElectrons: 344.000000  magneticMoment: [ Abs: 30.34482  Tot: -0.00000 ]
	SubspaceRotationAdjust: set factor to 0.305
ElecMinimize: Iter:  83  F: -1971.147512787113556  |grad|_K:  4.762e-06  alpha:  4.456e-01  linmin: -1.660e-06  t[s]:   4698.88
	FillingsUpdate:  mu: +0.103750686  nElectrons: 344.000000  magneticMoment: [ Abs: 30.57266  Tot: +0.00000 ]
	SubspaceRotationAdjust: set factor to 0.277
ElecMinimize: Iter:  84  F: -1971.148787689513938  |grad|_K:  4.875e-06  alpha:  3.270e-01  linmin: -5.866e-05  t[s]:   4742.93
	FillingsUpdate:  mu: +0.104924948  nElectrons: 344.000000  magneticMoment: [ Abs: 30.75908  Tot: -0.00000 ]
	SubspaceRotationAdjust: set factor to 0.232
ElecMinimize: Iter:  85  F: -1971.149788065413304  |grad|_K:  4.650e-06  alpha:  2.345e-01  linmin:  3.953e-05  t[s]:   4787.69
	FillingsUpdate:  mu: +0.102674375  nElectrons: 344.000000  magneticMoment: [ Abs: 31.16132  Tot: +0.00000 ]
	SubspaceRotationAdjust: set factor to 0.256
ElecMinimize: Iter:  86  F: -1971.151318631373897  |grad|_K:  5.654e-06  alpha:  4.170e-01  linmin:  2.446e-04  t[s]:   4832.42
	FillingsUpdate:  mu: +0.100766679  nElectrons: 344.000000  magneticMoment: [ Abs: 31.84310  Tot: +0.00000 ]
	SubspaceRotationAdjust: set factor to 0.31
ElecMinimize: Iter:  87  F: -1971.153688631407022  |grad|_K:  7.176e-06  alpha:  4.569e-01  linmin:  7.590e-04  t[s]:   4877.50
	FillingsUpdate:  mu: +0.100813625  nElectrons: 344.000000  magneticMoment: [ Abs: 32.15960  Tot: +0.00000 ]
	SubspaceRotationAdjust: set factor to 0.293
ElecMinimize: Iter:  88  F: -1971.154954423263234  |grad|_K:  7.861e-06  alpha:  1.389e-01  linmin: -7.527e-04  t[s]:   4922.84
	FillingsUpdate:  mu: +0.102361956  nElectrons: 344.000000  magneticMoment: [ Abs: 32.56443  Tot: +0.00000 ]
	SubspaceRotationAdjust: set factor to 0.286
ElecMinimize: Iter:  89  F: -1971.156894053444603  |grad|_K:  7.929e-06  alpha:  1.585e-01  linmin: -2.361e-04  t[s]:   4967.87
	FillingsUpdate:  mu: +0.102489056  nElectrons: 344.000000  magneticMoment: [ Abs: 32.91823  Tot: -0.00000 ]
	SubspaceRotationAdjust: set factor to 0.344
ElecMinimize: Iter:  90  F: -1971.158675736641271  |grad|_K:  7.670e-06  alpha:  1.573e-01  linmin: -3.818e-04  t[s]:   5013.14
	FillingsUpdate:  mu: +0.104093932  nElectrons: 344.000000  magneticMoment: [ Abs: 33.28311  Tot: -0.00000 ]
	SubspaceRotationAdjust: set factor to 0.354
ElecMinimize: Iter:  91  F: -1971.160895584071568  |grad|_K:  7.481e-06  alpha:  2.017e-01  linmin: -5.427e-04  t[s]:   5058.43
	FillingsUpdate:  mu: +0.104955957  nElectrons: 344.000000  magneticMoment: [ Abs: 33.59800  Tot: +0.00000 ]
	SubspaceRotationAdjust: set factor to 0.378
ElecMinimize: Iter:  92  F: -1971.162986776265598  |grad|_K:  8.025e-06  alpha:  2.015e-01  linmin: -1.967e-04  t[s]:   5103.59
	FillingsUpdate:  mu: +0.104126629  nElectrons: 344.000000  magneticMoment: [ Abs: 33.90053  Tot: +0.00000 ]
	SubspaceRotationAdjust: set factor to 0.454
ElecMinimize: Iter:  93  F: -1971.165140067055063  |grad|_K:  6.924e-06  alpha:  1.875e-01  linmin: -1.221e-04  t[s]:   5148.14
	FillingsUpdate:  mu: +0.103715289  nElectrons: 344.000000  magneticMoment: [ Abs: 34.13562  Tot: -0.00000 ]
	SubspaceRotationAdjust: set factor to 0.595
ElecMinimize: Iter:  94  F: -1971.167253777590986  |grad|_K:  6.850e-06  alpha:  2.476e-01  linmin: -8.560e-05  t[s]:   5193.34
	FillingsUpdate:  mu: +0.103987463  nElectrons: 344.000000  magneticMoment: [ Abs: 34.30409  Tot: -0.00000 ]
	SubspaceRotationAdjust: set factor to 0.68
ElecMinimize: Iter:  95  F: -1971.169498002630689  |grad|_K:  7.451e-06  alpha:  2.702e-01  linmin: -4.479e-05  t[s]:   5238.12
	FillingsUpdate:  mu: +0.105697352  nElectrons: 344.000000  magneticMoment: [ Abs: 34.39794  Tot: -0.00000 ]
	SubspaceRotationAdjust: set factor to 0.517
ElecMinimize: Iter:  96  F: -1971.170859264525006  |grad|_K:  8.923e-06  alpha:  1.365e-01  linmin: -6.703e-05  t[s]:   5282.87
	FillingsUpdate:  mu: +0.104401678  nElectrons: 344.000000  magneticMoment: [ Abs: 34.45468  Tot: +0.00000 ]
	SubspaceRotationAdjust: set factor to 0.501
ElecMinimize: Iter:  97  F: -1971.172216497536510  |grad|_K:  6.485e-06  alpha:  9.430e-02  linmin:  9.977e-06  t[s]:   5328.24
	FillingsUpdate:  mu: +0.103269622  nElectrons: 344.000000  magneticMoment: [ Abs: 34.50784  Tot: +0.00000 ]
	SubspaceRotationAdjust: set factor to 0.642
ElecMinimize: Iter:  98  F: -1971.173832123081411  |grad|_K:  6.165e-06  alpha:  2.245e-01  linmin:  1.216e-04  t[s]:   5373.40
	FillingsUpdate:  mu: +0.103332113  nElectrons: 344.000000  magneticMoment: [ Abs: 34.54410  Tot: +0.00000 ]
	SubspaceRotationAdjust: set factor to 0.622
ElecMinimize: Iter:  99  F: -1971.175447828228471  |grad|_K:  7.173e-06  alpha:  2.533e-01  linmin:  1.204e-04  t[s]:   5418.46
	FillingsUpdate:  mu: +0.105634591  nElectrons: 344.000000  magneticMoment: [ Abs: 34.55778  Tot: -0.00000 ]
	SubspaceRotationAdjust: set factor to 0.43
ElecMinimize: Iter: 100  F: -1971.176619713925447  |grad|_K:  9.572e-06  alpha:  1.327e-01  linmin: -2.239e-05  t[s]:   5463.33
	FillingsUpdate:  mu: +0.103505413  nElectrons: 344.000000  magneticMoment: [ Abs: 34.61427  Tot: +0.00000 ]
	SubspaceRotationAdjust: set factor to 0.492
ElecMinimize: Iter: 101  F: -1971.177691388814310  |grad|_K:  7.245e-06  alpha:  5.845e-02  linmin: -3.996e-04  t[s]:   5508.17
	FillingsUpdate:  mu: +0.107805507  nElectrons: 344.000000  magneticMoment: [ Abs: 34.70197  Tot: +0.00000 ]
	SubspaceRotationAdjust: set factor to 0.326
ElecMinimize: Iter: 102  F: -1971.179064552468162  |grad|_K:  1.196e-05  alpha:  1.559e-01  linmin:  1.059e-03  t[s]:   5552.57
	FillingsUpdate:  mu: +0.107051320  nElectrons: 344.000000  magneticMoment: [ Abs: 34.71404  Tot: +0.00000 ]
	SubspaceRotationAdjust: set factor to 0.276
ElecMinimize: Iter: 103  F: -1971.179621206159482  |grad|_K:  9.448e-06  alpha:  2.317e-02  linmin: -9.533e-04  t[s]:   5597.59
	FillingsUpdate:  mu: +0.105942750  nElectrons: 344.000000  magneticMoment: [ Abs: 34.70930  Tot: -0.00000 ]
	SubspaceRotationAdjust: set factor to 0.352
ElecMinimize: Iter: 104  F: -1971.180569941920112  |grad|_K:  7.182e-06  alpha:  4.769e-02  linmin: -7.632e-04  t[s]:   5642.75
	FillingsUpdate:  mu: +0.106417203  nElectrons: 344.000000  magneticMoment: [ Abs: 34.72358  Tot: -0.00000 ]
	SubspaceRotationAdjust: set factor to 0.261
ElecMinimize: Iter: 105  F: -1971.181709474271429  |grad|_K:  8.324e-06  alpha:  1.037e-01  linmin: -9.013e-04  t[s]:   5687.27
	FillingsUpdate:  mu: +0.106867506  nElectrons: 344.000000  magneticMoment: [ Abs: 34.79779  Tot: -0.00000 ]
	SubspaceRotationAdjust: set factor to 0.309
ElecMinimize: Iter: 106  F: -1971.182893235396705  |grad|_K:  6.815e-06  alpha:  8.410e-02  linmin:  1.526e-04  t[s]:   5731.40
	FillingsUpdate:  mu: +0.108058395  nElectrons: 344.000000  magneticMoment: [ Abs: 34.86618  Tot: -0.00000 ]
	SubspaceRotationAdjust: set factor to 0.272
ElecMinimize: Iter: 107  F: -1971.183628811858853  |grad|_K:  7.929e-06  alpha:  9.395e-02  linmin:  1.591e-04  t[s]:   5776.05
	FillingsUpdate:  mu: +0.108474958  nElectrons: 344.000000  magneticMoment: [ Abs: 34.91656  Tot: -0.00000 ]
	SubspaceRotationAdjust: set factor to 0.228
ElecMinimize: Iter: 108  F: -1971.184413224223590  |grad|_K:  7.620e-06  alpha:  7.386e-02  linmin: -9.991e-06  t[s]:   5820.64
	FillingsUpdate:  mu: +0.105555037  nElectrons: 344.000000  magneticMoment: [ Abs: 34.93367  Tot: -0.00000 ]
	SubspaceRotationAdjust: set factor to 0.261
ElecMinimize: Iter: 109  F: -1971.185117401920934  |grad|_K:  6.180e-06  alpha:  6.967e-02  linmin: -8.132e-05  t[s]:   5864.92
	FillingsUpdate:  mu: +0.106494481  nElectrons: 344.000000  magneticMoment: [ Abs: 34.93757  Tot: -0.00000 ]
	SubspaceRotationAdjust: set factor to 0.276
ElecMinimize: Iter: 110  F: -1971.185693809527493  |grad|_K:  6.180e-06  alpha:  8.572e-02  linmin:  9.929e-05  t[s]:   5909.17
	FillingsUpdate:  mu: +0.107890116  nElectrons: 344.000000  magneticMoment: [ Abs: 34.96277  Tot: -0.00000 ]
	SubspaceRotationAdjust: set factor to 0.214
ElecMinimize: Iter: 111  F: -1971.186270893324718  |grad|_K:  7.022e-06  alpha:  8.876e-02  linmin:  1.472e-04  t[s]:   5953.36
	FillingsUpdate:  mu: +0.108650168  nElectrons: 344.000000  magneticMoment: [ Abs: 35.01972  Tot: +0.00000 ]
	SubspaceRotationAdjust: set factor to 0.192
ElecMinimize: Iter: 112  F: -1971.186821488616260  |grad|_K:  5.961e-06  alpha:  6.573e-02  linmin:  7.981e-06  t[s]:   5998.20
	FillingsUpdate:  mu: +0.108638097  nElectrons: 344.000000  magneticMoment: [ Abs: 35.08798  Tot: +0.00000 ]
	SubspaceRotationAdjust: set factor to 0.215
ElecMinimize: Iter: 113  F: -1971.187258910010087  |grad|_K:  5.094e-06  alpha:  7.073e-02  linmin: -4.307e-05  t[s]:   6043.05
	FillingsUpdate:  mu: +0.109310865  nElectrons: 344.000000  magneticMoment: [ Abs: 35.16107  Tot: -0.00000 ]
	SubspaceRotationAdjust: set factor to 0.19
ElecMinimize: Iter: 114  F: -1971.187687928450032  |grad|_K:  5.402e-06  alpha:  9.368e-02  linmin: -6.253e-05  t[s]:   6087.46
	FillingsUpdate:  mu: +0.110514287  nElectrons: 344.000000  magneticMoment: [ Abs: 35.22682  Tot: -0.00000 ]
	SubspaceRotationAdjust: set factor to 0.186
ElecMinimize: Iter: 115  F: -1971.188180397595261  |grad|_K:  5.118e-06  alpha:  9.567e-02  linmin: -1.568e-05  t[s]:   6132.53
	FillingsUpdate:  mu: +0.109196879  nElectrons: 344.000000  magneticMoment: [ Abs: 35.26430  Tot: +0.00000 ]
	SubspaceRotationAdjust: set factor to 0.268
ElecMinimize: Iter: 116  F: -1971.188588577213750  |grad|_K:  4.491e-06  alpha:  8.925e-02  linmin: -1.488e-05  t[s]:   6177.42
	FillingsUpdate:  mu: +0.110565431  nElectrons: 344.000000  magneticMoment: [ Abs: 35.29715  Tot: -0.00000 ]
	SubspaceRotationAdjust: set factor to 0.313
ElecMinimize: Iter: 117  F: -1971.188940812820874  |grad|_K:  4.821e-06  alpha:  9.982e-02  linmin: -1.853e-05  t[s]:   6222.03
	FillingsUpdate:  mu: +0.111399691  nElectrons: 344.000000  magneticMoment: [ Abs: 35.37249  Tot: +0.00000 ]
	SubspaceRotationAdjust: set factor to 0.318
ElecMinimize: Iter: 118  F: -1971.189365917904297  |grad|_K:  5.188e-06  alpha:  1.045e-01  linmin: -9.294e-06  t[s]:   6267.38
	FillingsUpdate:  mu: +0.111065042  nElectrons: 344.000000  magneticMoment: [ Abs: 35.47273  Tot: +0.00000 ]
	SubspaceRotationAdjust: set factor to 0.426
ElecMinimize: Iter: 119  F: -1971.189724674798526  |grad|_K:  4.711e-06  alpha:  7.605e-02  linmin:  4.938e-06  t[s]:   6312.84
	FillingsUpdate:  mu: +0.111084480  nElectrons: 344.000000  magneticMoment: [ Abs: 35.58180  Tot: -0.00000 ]
	SubspaceRotationAdjust: set factor to 0.37
ElecMinimize: Iter: 120  F: -1971.190082968566003  |grad|_K:  5.870e-06  alpha:  9.299e-02  linmin:  1.645e-05  t[s]:   6358.28
	FillingsUpdate:  mu: +0.110830108  nElectrons: 344.000000  magneticMoment: [ Abs: 35.68426  Tot: +0.00000 ]
	SubspaceRotationAdjust: set factor to 0.402
ElecMinimize: Iter: 121  F: -1971.190547397374758  |grad|_K:  5.453e-06  alpha:  7.792e-02  linmin: -8.569e-06  t[s]:   6403.34
	FillingsUpdate:  mu: +0.111362831  nElectrons: 344.000000  magneticMoment: [ Abs: 35.73483  Tot: +0.00000 ]
	SubspaceRotationAdjust: set factor to 0.49
ElecMinimize: Iter: 122  F: -1971.190905456739983  |grad|_K:  5.101e-06  alpha:  6.896e-02  linmin: -1.018e-06  t[s]:   6448.59
	FillingsUpdate:  mu: +0.111730591  nElectrons: 344.000000  magneticMoment: [ Abs: 35.81184  Tot: +0.00000 ]
	SubspaceRotationAdjust: set factor to 0.408
ElecMinimize: Iter: 123  F: -1971.191339234690531  |grad|_K:  6.406e-06  alpha:  9.577e-02  linmin:  3.066e-06  t[s]:   6493.64
	FillingsUpdate:  mu: +0.111085419  nElectrons: 344.000000  magneticMoment: [ Abs: 35.93814  Tot: +0.00000 ]
	SubspaceRotationAdjust: set factor to 0.562
ElecMinimize: Iter: 124  F: -1971.191784762457928  |grad|_K:  5.117e-06  alpha:  6.291e-02  linmin: -1.048e-06  t[s]:   6538.61
	FillingsUpdate:  mu: +0.111840948  nElectrons: 344.000000  magneticMoment: [ Abs: 36.05322  Tot: +0.00000 ]
	SubspaceRotationAdjust: set factor to 0.554
ElecMinimize: Iter: 125  F: -1971.192144382440119  |grad|_K:  5.786e-06  alpha:  7.832e-02  linmin: -8.423e-05  t[s]:   6583.04
	FillingsUpdate:  mu: +0.112711599  nElectrons: 344.000000  magneticMoment: [ Abs: 36.16742  Tot: -0.00000 ]
	SubspaceRotationAdjust: set factor to 0.674
ElecMinimize: Iter: 126  F: -1971.192716175163696  |grad|_K:  5.636e-06  alpha:  9.564e-02  linmin:  1.365e-06  t[s]:   6627.43
	FillingsUpdate:  mu: +0.113386671  nElectrons: 344.000000  magneticMoment: [ Abs: 36.20925  Tot: -0.00000 ]
	SubspaceRotationAdjust: set factor to 0.614
ElecMinimize: Iter: 127  F: -1971.193118709302325  |grad|_K:  6.589e-06  alpha:  6.996e-02  linmin:  3.149e-05  t[s]:   6672.23
	FillingsUpdate:  mu: +0.113071799  nElectrons: 344.000000  magneticMoment: [ Abs: 36.27887  Tot: +0.00000 ]
	SubspaceRotationAdjust: set factor to 0.486
ElecMinimize: Iter: 128  F: -1971.193583559241233  |grad|_K:  7.376e-06  alpha:  6.101e-02  linmin:  1.276e-04  t[s]:   6716.67
	FillingsUpdate:  mu: +0.112511770  nElectrons: 344.000000  magneticMoment: [ Abs: 36.34412  Tot: +0.00000 ]
	SubspaceRotationAdjust: set factor to 0.477
ElecMinimize: Iter: 129  F: -1971.193938320391453  |grad|_K:  6.536e-06  alpha:  3.862e-02  linmin: -3.720e-05  t[s]:   6761.41
	FillingsUpdate:  mu: +0.111472356  nElectrons: 344.000000  magneticMoment: [ Abs: 36.40231  Tot: -0.00000 ]
	SubspaceRotationAdjust: set factor to 0.487
ElecMinimize: Iter: 130  F: -1971.194323226597362  |grad|_K:  6.440e-06  alpha:  5.033e-02  linmin: -1.747e-04  t[s]:   6806.51
	FillingsUpdate:  mu: +0.111021313  nElectrons: 344.000000  magneticMoment: [ Abs: 36.43492  Tot: +0.00000 ]
	SubspaceRotationAdjust: set factor to 0.451
ElecMinimize: Iter: 131  F: -1971.194802522152941  |grad|_K:  6.609e-06  alpha:  6.394e-02  linmin:  1.847e-04  t[s]:   6851.18
	FillingsUpdate:  mu: +0.110781401  nElectrons: 344.000000  magneticMoment: [ Abs: 36.44086  Tot: -0.00000 ]
	SubspaceRotationAdjust: set factor to 0.382
ElecMinimize: Iter: 132  F: -1971.195114972238571  |grad|_K:  6.797e-06  alpha:  4.025e-02  linmin: -8.326e-05  t[s]:   6896.39
	FillingsUpdate:  mu: +0.110257588  nElectrons: 344.000000  magneticMoment: [ Abs: 36.44761  Tot: +0.00000 ]
	SubspaceRotationAdjust: set factor to 0.304
ElecMinimize: Iter: 133  F: -1971.195423616569997  |grad|_K:  6.936e-06  alpha:  3.737e-02  linmin:  1.220e-04  t[s]:   6941.39
	FillingsUpdate:  mu: +0.109879773  nElectrons: 344.000000  magneticMoment: [ Abs: 36.45840  Tot: +0.00000 ]
	SubspaceRotationAdjust: set factor to 0.25
ElecMinimize: Iter: 134  F: -1971.195689025646743  |grad|_K:  6.633e-06  alpha:  3.260e-02  linmin:  1.496e-05  t[s]:   6986.10
	FillingsUpdate:  mu: +0.110011983  nElectrons: 344.000000  magneticMoment: [ Abs: 36.47355  Tot: +0.00000 ]
	SubspaceRotationAdjust: set factor to 0.232
ElecMinimize: Iter: 135  F: -1971.195969541995737  |grad|_K:  6.048e-06  alpha:  3.659e-02  linmin: -9.245e-05  t[s]:   7030.84
	FillingsUpdate:  mu: +0.110575864  nElectrons: 344.000000  magneticMoment: [ Abs: 36.49043  Tot: +0.00000 ]
	SubspaceRotationAdjust: set factor to 0.265
ElecMinimize: Iter: 136  F: -1971.196271445565117  |grad|_K:  5.416e-06  alpha:  4.560e-02  linmin: -2.068e-04  t[s]:   7075.66
	FillingsUpdate:  mu: +0.111424662  nElectrons: 344.000000  magneticMoment: [ Abs: 36.50456  Tot: -0.00000 ]
	SubspaceRotationAdjust: set factor to 0.364
ElecMinimize: Iter: 137  F: -1971.196596666817186  |grad|_K:  4.969e-06  alpha:  5.923e-02  linmin: -2.492e-04  t[s]:   7121.14
	FillingsUpdate:  mu: +0.112231258  nElectrons: 344.000000  magneticMoment: [ Abs: 36.50507  Tot: -0.00000 ]
	SubspaceRotationAdjust: set factor to 0.446
ElecMinimize: Iter: 138  F: -1971.196944089370163  |grad|_K:  4.983e-06  alpha:  7.493e-02  linmin: -1.674e-04  t[s]:   7166.23
	FillingsUpdate:  mu: +0.112497615  nElectrons: 344.000000  magneticMoment: [ Abs: 36.47389  Tot: -0.00000 ]
	SubspaceRotationAdjust: set factor to 0.54
ElecMinimize: Iter: 139  F: -1971.197283617236280  |grad|_K:  4.909e-06  alpha:  7.528e-02  linmin:  2.353e-05  t[s]:   7211.22
	FillingsUpdate:  mu: +0.112004922  nElectrons: 344.000000  magneticMoment: [ Abs: 36.42603  Tot: +0.00000 ]
	SubspaceRotationAdjust: set factor to 0.564
ElecMinimize: Iter: 140  F: -1971.197551335793378  |grad|_K:  5.179e-06  alpha:  6.388e-02  linmin:  3.140e-05  t[s]:   7255.40
	FillingsUpdate:  mu: +0.111209785  nElectrons: 344.000000  magneticMoment: [ Abs: 36.37463  Tot: +0.00000 ]
	SubspaceRotationAdjust: set factor to 0.538
ElecMinimize: Iter: 141  F: -1971.197827216030646  |grad|_K:  5.442e-06  alpha:  5.951e-02  linmin:  2.349e-05  t[s]:   7300.04
	FillingsUpdate:  mu: +0.110950393  nElectrons: 344.000000  magneticMoment: [ Abs: 36.33095  Tot: -0.00000 ]
	SubspaceRotationAdjust: set factor to 0.541
ElecMinimize: Iter: 142  F: -1971.198096227769156  |grad|_K:  5.312e-06  alpha:  5.252e-02  linmin: -2.204e-07  t[s]:   7344.12
	FillingsUpdate:  mu: +0.111175642  nElectrons: 344.000000  magneticMoment: [ Abs: 36.28384  Tot: +0.00000 ]
	SubspaceRotationAdjust: set factor to 0.533
ElecMinimize: Iter: 143  F: -1971.198375010156269  |grad|_K:  5.399e-06  alpha:  5.672e-02  linmin: -1.207e-05  t[s]:   7388.81
	FillingsUpdate:  mu: +0.111128225  nElectrons: 344.000000  magneticMoment: [ Abs: 36.22453  Tot: +0.00000 ]
	SubspaceRotationAdjust: set factor to 0.644
ElecMinimize: Iter: 144  F: -1971.198656801850802  |grad|_K:  5.138e-06  alpha:  5.531e-02  linmin: -6.497e-06  t[s]:   7433.60
	FillingsUpdate:  mu: +0.111221474  nElectrons: 344.000000  magneticMoment: [ Abs: 36.16346  Tot: +0.00000 ]
	SubspaceRotationAdjust: set factor to 0.796
	SubspaceRotationAdjust: resetting CG because factor has changed by 8.40903
ElecMinimize: 	State modified externally: resetting search direction.
ElecMinimize: Iter: 145  F: -1971.198911371158601  |grad|_K:  5.499e-06  alpha:  5.526e-02
ElecMinimize: 	Predicted alpha/alphaT>3.000000, increasing alphaT to 1.657771e-01.
	FillingsUpdate:  mu: +0.115590001  nElectrons: 344.000000  magneticMoment: [ Abs: 36.23152  Tot: -0.00000 ]
	SubspaceRotationAdjust: set factor to 0.453
ElecMinimize: Iter: 146  F: -1971.200638337245664  |grad|_K:  9.723e-06  alpha:  3.242e-01  linmin: -5.055e-04  t[s]:   7555.54
	FillingsUpdate:  mu: +0.112807493  nElectrons: 344.000000  magneticMoment: [ Abs: 36.15948  Tot: -0.00000 ]
	SubspaceRotationAdjust: set factor to 0.285
ElecMinimize: Iter: 147  F: -1971.201766974931161  |grad|_K:  5.560e-06  alpha:  6.962e-02  linmin:  2.304e-04  t[s]:   7599.87
ElecMinimize: 	Predicted alpha/alphaT>3.000000, increasing alphaT to 2.088719e-01.
	FillingsUpdate:  mu: +0.111247080  nElectrons: 344.000000  magneticMoment: [ Abs: 36.12095  Tot: +0.00000 ]
	SubspaceRotationAdjust: set factor to 0.382
ElecMinimize: Iter: 148  F: -1971.203383377289583  |grad|_K:  4.082e-06  alpha:  3.063e-01  linmin: -7.255e-05  t[s]:   7657.90
	FillingsUpdate:  mu: +0.114506072  nElectrons: 344.000000  magneticMoment: [ Abs: 36.15437  Tot: +0.00000 ]
	SubspaceRotationAdjust: set factor to 0.3
ElecMinimize: Iter: 149  F: -1971.204095055996049  |grad|_K:  3.906e-06  alpha:  2.462e-01  linmin: -1.612e-04  t[s]:   7702.91
	FillingsUpdate:  mu: +0.113722018  nElectrons: 344.000000  magneticMoment: [ Abs: 36.11623  Tot: +0.00000 ]
	SubspaceRotationAdjust: set factor to 0.204
ElecMinimize: Iter: 150  F: -1971.204538872561443  |grad|_K:  2.319e-06  alpha:  1.643e-01  linmin: -1.845e-05  t[s]:   7747.39
	FillingsUpdate:  mu: +0.112925062  nElectrons: 344.000000  magneticMoment: [ Abs: 36.11430  Tot: -0.00000 ]
	SubspaceRotationAdjust: set factor to 0.272
ElecMinimize: Iter: 151  F: -1971.204821200529750  |grad|_K:  1.771e-06  alpha:  3.009e-01  linmin: -3.464e-05  t[s]:   7791.92
	FillingsUpdate:  mu: +0.113563113  nElectrons: 344.000000  magneticMoment: [ Abs: 36.13108  Tot: -0.00000 ]
	SubspaceRotationAdjust: set factor to 0.266
ElecMinimize: Iter: 152  F: -1971.205021995863035  |grad|_K:  1.668e-06  alpha:  3.659e-01  linmin: -2.724e-04  t[s]:   7836.31
	FillingsUpdate:  mu: +0.113361884  nElectrons: 344.000000  magneticMoment: [ Abs: 36.11848  Tot: -0.00000 ]
	SubspaceRotationAdjust: set factor to 0.212
ElecMinimize: Iter: 153  F: -1971.205167777658062  |grad|_K:  1.450e-06  alpha:  2.967e-01  linmin:  4.255e-05  t[s]:   7881.28
	FillingsUpdate:  mu: +0.114087927  nElectrons: 344.000000  magneticMoment: [ Abs: 36.13589  Tot: -0.00000 ]
	SubspaceRotationAdjust: set factor to 0.225
ElecMinimize: Iter: 154  F: -1971.205294813391447  |grad|_K:  1.278e-06  alpha:  3.467e-01  linmin: -2.216e-04  t[s]:   7926.12
	FillingsUpdate:  mu: +0.113843631  nElectrons: 344.000000  magneticMoment: [ Abs: 36.13903  Tot: -0.00000 ]
	SubspaceRotationAdjust: set factor to 0.258
ElecMinimize: Iter: 155  F: -1971.205416920867719  |grad|_K:  1.325e-06  alpha:  4.244e-01  linmin:  4.035e-05  t[s]:   7970.48
	FillingsUpdate:  mu: +0.113463948  nElectrons: 344.000000  magneticMoment: [ Abs: 36.13068  Tot: -0.00000 ]
	SubspaceRotationAdjust: set factor to 0.261
ElecMinimize: Iter: 156  F: -1971.205539505868046  |grad|_K:  1.419e-06  alpha:  4.014e-01  linmin:  2.059e-04  t[s]:   8015.35
	FillingsUpdate:  mu: +0.114579901  nElectrons: 344.000000  magneticMoment: [ Abs: 36.14931  Tot: -0.00000 ]
	SubspaceRotationAdjust: set factor to 0.249
ElecMinimize: Iter: 157  F: -1971.205672612253238  |grad|_K:  1.329e-06  alpha:  3.874e-01  linmin: -4.311e-04  t[s]:   8060.27
	FillingsUpdate:  mu: +0.113841991  nElectrons: 344.000000  magneticMoment: [ Abs: 36.14453  Tot: -0.00000 ]
	SubspaceRotationAdjust: set factor to 0.255
ElecMinimize: Iter: 158  F: -1971.205787774833425  |grad|_K:  1.371e-06  alpha:  3.604e-01  linmin:  2.764e-04  t[s]:   8104.68
	FillingsUpdate:  mu: +0.113584410  nElectrons: 344.000000  magneticMoment: [ Abs: 36.15304  Tot: +0.00000 ]
	SubspaceRotationAdjust: set factor to 0.31
ElecMinimize: Iter: 159  F: -1971.205923816583436  |grad|_K:  1.483e-06  alpha:  4.280e-01  linmin:  7.485e-05  t[s]:   8149.18
	FillingsUpdate:  mu: +0.114733086  nElectrons: 344.000000  magneticMoment: [ Abs: 36.17382  Tot: -0.00000 ]
	SubspaceRotationAdjust: set factor to 0.325
ElecMinimize: Iter: 160  F: -1971.206070330464399  |grad|_K:  1.419e-06  alpha:  3.896e-01  linmin: -4.602e-04  t[s]:   8193.56
	FillingsUpdate:  mu: +0.114127786  nElectrons: 344.000000  magneticMoment: [ Abs: 36.16267  Tot: -0.00000 ]
	SubspaceRotationAdjust: set factor to 0.3
ElecMinimize: Iter: 161  F: -1971.206188005709237  |grad|_K:  1.541e-06  alpha:  3.120e-01  linmin:  3.599e-04  t[s]:   8238.51
	FillingsUpdate:  mu: +0.114521172  nElectrons: 344.000000  magneticMoment: [ Abs: 36.17326  Tot: -0.00000 ]
	SubspaceRotationAdjust: set factor to 0.384
ElecMinimize: Iter: 162  F: -1971.206305214624081  |grad|_K:  1.354e-06  alpha:  2.938e-01  linmin: -3.043e-04  t[s]:   8283.35
	FillingsUpdate:  mu: +0.114849489  nElectrons: 344.000000  magneticMoment: [ Abs: 36.18144  Tot: -0.00000 ]
	SubspaceRotationAdjust: set factor to 0.451
ElecMinimize: Iter: 163  F: -1971.206421002259731  |grad|_K:  1.406e-06  alpha:  3.494e-01  linmin: -3.933e-04  t[s]:   8328.07
	FillingsUpdate:  mu: +0.114096229  nElectrons: 344.000000  magneticMoment: [ Abs: 36.17040  Tot: +0.00000 ]
	SubspaceRotationAdjust: set factor to 0.349
ElecMinimize: Iter: 164  F: -1971.206516474217551  |grad|_K:  1.677e-06  alpha:  2.587e-01  linmin:  1.674e-04  t[s]:   8372.34
	FillingsUpdate:  mu: +0.114774432  nElectrons: 344.000000  magneticMoment: [ Abs: 36.18380  Tot: -0.00000 ]
	SubspaceRotationAdjust: set factor to 0.418
ElecMinimize: Iter: 165  F: -1971.206617043383631  |grad|_K:  1.429e-06  alpha:  2.121e-01  linmin: -1.887e-04  t[s]:   8417.25
	FillingsUpdate:  mu: +0.114795700  nElectrons: 344.000000  magneticMoment: [ Abs: 36.18785  Tot: -0.00000 ]
	SubspaceRotationAdjust: set factor to 0.494
ElecMinimize: Iter: 166  F: -1971.206729003650707  |grad|_K:  1.360e-06  alpha:  3.054e-01  linmin: -1.379e-04  t[s]:   8462.21
	FillingsUpdate:  mu: +0.114104284  nElectrons: 344.000000  magneticMoment: [ Abs: 36.17473  Tot: -0.00000 ]
	SubspaceRotationAdjust: set factor to 0.393
ElecMinimize: Iter: 167  F: -1971.206798706909467  |grad|_K:  1.532e-06  alpha:  2.048e-01  linmin: -1.016e-05  t[s]:   8507.47
	FillingsUpdate:  mu: +0.114835256  nElectrons: 344.000000  magneticMoment: [ Abs: 36.18164  Tot: -0.00000 ]
	SubspaceRotationAdjust: set factor to 0.485
ElecMinimize: Iter: 168  F: -1971.206872316534145  |grad|_K:  1.128e-06  alpha:  1.815e-01  linmin: -2.109e-04  t[s]:   8552.40
	FillingsUpdate:  mu: +0.114692632  nElectrons: 344.000000  magneticMoment: [ Abs: 36.17903  Tot: +0.00000 ]
	SubspaceRotationAdjust: set factor to 0.488
ElecMinimize: Iter: 169  F: -1971.206937659819005  |grad|_K:  1.169e-06  alpha:  2.871e-01  linmin:  7.932e-06  t[s]:   8597.21
	FillingsUpdate:  mu: +0.114136953  nElectrons: 344.000000  magneticMoment: [ Abs: 36.16503  Tot: +0.00000 ]
	SubspaceRotationAdjust: set factor to 0.417
ElecMinimize: Iter: 170  F: -1971.206977688959796  |grad|_K:  1.225e-06  alpha:  1.607e-01  linmin: -1.709e-04  t[s]:   8641.88
	FillingsUpdate:  mu: +0.114920200  nElectrons: 344.000000  magneticMoment: [ Abs: 36.16688  Tot: +0.00000 ]
	SubspaceRotationAdjust: set factor to 0.575
ElecMinimize: Iter: 171  F: -1971.207030189193119  |grad|_K:  9.567e-07  alpha:  1.958e-01  linmin: -2.763e-04  t[s]:   8687.01
	FillingsUpdate:  mu: +0.115061112  nElectrons: 344.000000  magneticMoment: [ Abs: 36.16936  Tot: +0.00000 ]
	SubspaceRotationAdjust: set factor to 0.416
ElecMinimize: Iter: 172  F: -1971.207070165889490  |grad|_K:  1.206e-06  alpha:  2.418e-01  linmin: -2.340e-04  t[s]:   8731.95
	FillingsUpdate:  mu: +0.114298008  nElectrons: 344.000000  magneticMoment: [ Abs: 36.15559  Tot: +0.00000 ]
	SubspaceRotationAdjust: set factor to 0.373
ElecMinimize: Iter: 173  F: -1971.207099997321620  |grad|_K:  8.914e-07  alpha:  1.080e-01  linmin: -4.011e-04  t[s]:   8776.35
	FillingsUpdate:  mu: +0.114261861  nElectrons: 344.000000  magneticMoment: [ Abs: 36.15001  Tot: +0.00000 ]
	SubspaceRotationAdjust: set factor to 0.344
ElecMinimize: Iter: 174  F: -1971.207137505430183  |grad|_K:  9.776e-07  alpha:  2.614e-01  linmin:  1.130e-04  t[s]:   8821.50
	FillingsUpdate:  mu: +0.114929586  nElectrons: 344.000000  magneticMoment: [ Abs: 36.15743  Tot: -0.00000 ]
	SubspaceRotationAdjust: set factor to 0.295
ElecMinimize: Iter: 175  F: -1971.207160817436034  |grad|_K:  8.089e-07  alpha:  1.461e-01  linmin:  9.081e-05  t[s]:   8866.92
	FillingsUpdate:  mu: +0.114830693  nElectrons: 344.000000  magneticMoment: [ Abs: 36.15484  Tot: +0.00000 ]
	SubspaceRotationAdjust: set factor to 0.404
ElecMinimize: Iter: 176  F: -1971.207186325082148  |grad|_K:  6.924e-07  alpha:  2.266e-01  linmin:  3.152e-05  t[s]:   8911.16
	FillingsUpdate:  mu: +0.114413683  nElectrons: 344.000000  magneticMoment: [ Abs: 36.14681  Tot: -0.00000 ]
	SubspaceRotationAdjust: set factor to 0.367
ElecMinimize: Iter: 177  F: -1971.207202267638650  |grad|_K:  7.055e-07  alpha:  1.908e-01  linmin:  6.917e-05  t[s]:   8955.75
	FillingsUpdate:  mu: +0.114788079  nElectrons: 344.000000  magneticMoment: [ Abs: 36.15077  Tot: +0.00000 ]
	SubspaceRotationAdjust: set factor to 0.495
ElecMinimize: Iter: 178  F: -1971.207218258268995  |grad|_K:  5.197e-07  alpha:  1.860e-01  linmin: -4.568e-05  t[s]:   9000.28
	FillingsUpdate:  mu: +0.115136514  nElectrons: 344.000000  magneticMoment: [ Abs: 36.15683  Tot: +0.00000 ]
	SubspaceRotationAdjust: set factor to 0.347
ElecMinimize: Iter: 179  F: -1971.207231717010927  |grad|_K:  6.802e-07  alpha:  2.839e-01  linmin: -7.168e-05  t[s]:   9044.91
	FillingsUpdate:  mu: +0.114822250  nElectrons: 344.000000  magneticMoment: [ Abs: 36.15206  Tot: -0.00000 ]
	SubspaceRotationAdjust: set factor to 0.316
ElecMinimize: Iter: 180  F: -1971.207241475022101  |grad|_K:  4.889e-07  alpha:  1.188e-01  linmin: -4.933e-05  t[s]:   9089.31
	FillingsUpdate:  mu: +0.114586823  nElectrons: 344.000000  magneticMoment: [ Abs: 36.15179  Tot: +0.00000 ]
	SubspaceRotationAdjust: set factor to 0.315
ElecMinimize: Iter: 181  F: -1971.207254302381898  |grad|_K:  5.527e-07  alpha:  3.063e-01  linmin:  1.727e-05  t[s]:   9133.64
	FillingsUpdate:  mu: +0.114951696  nElectrons: 344.000000  magneticMoment: [ Abs: 36.15957  Tot: +0.00000 ]
	SubspaceRotationAdjust: set factor to 0.284
ElecMinimize: Iter: 182  F: -1971.207263907522929  |grad|_K:  5.063e-07  alpha:  1.818e-01  linmin:  7.525e-06  t[s]:   9177.99
	FillingsUpdate:  mu: +0.115099779  nElectrons: 344.000000  magneticMoment: [ Abs: 36.16271  Tot: -0.00000 ]
	SubspaceRotationAdjust: set factor to 0.367
ElecMinimize: Iter: 183  F: -1971.207275204765665  |grad|_K:  4.671e-07  alpha:  2.533e-01  linmin: -9.912e-06  t[s]:   9222.39
	FillingsUpdate:  mu: +0.114820049  nElectrons: 344.000000  magneticMoment: [ Abs: 36.16008  Tot: +0.00000 ]
	SubspaceRotationAdjust: set factor to 0.35
ElecMinimize: Iter: 184  F: -1971.207283645298730  |grad|_K:  4.996e-07  alpha:  2.218e-01  linmin:  7.150e-06  t[s]:   9266.62
	FillingsUpdate:  mu: +0.114885018  nElectrons: 344.000000  magneticMoment: [ Abs: 36.16446  Tot: +0.00000 ]
	SubspaceRotationAdjust: set factor to 0.386
ElecMinimize: Iter: 185  F: -1971.207292645519146  |grad|_K:  4.446e-07  alpha:  2.074e-01  linmin: -7.879e-06  t[s]:   9310.89
	FillingsUpdate:  mu: +0.115105467  nElectrons: 344.000000  magneticMoment: [ Abs: 36.16867  Tot: +0.00000 ]
	SubspaceRotationAdjust: set factor to 0.388
ElecMinimize: Iter: 186  F: -1971.207303538976475  |grad|_K:  5.263e-07  alpha:  3.156e-01  linmin: -3.663e-05  t[s]:   9355.83
	FillingsUpdate:  mu: +0.114936496  nElectrons: 344.000000  magneticMoment: [ Abs: 36.16452  Tot: -0.00000 ]
	SubspaceRotationAdjust: set factor to 0.336
ElecMinimize: Iter: 187  F: -1971.207312064391999  |grad|_K:  5.259e-07  alpha:  1.750e-01  linmin: -1.491e-05  t[s]:   9400.44
	FillingsUpdate:  mu: +0.114967974  nElectrons: 344.000000  magneticMoment: [ Abs: 36.16630  Tot: +0.00000 ]
	SubspaceRotationAdjust: set factor to 0.45
ElecMinimize: Iter: 188  F: -1971.207327000887062  |grad|_K:  5.371e-07  alpha:  3.092e-01  linmin: -1.263e-05  t[s]:   9445.49
	FillingsUpdate:  mu: +0.115140297  nElectrons: 344.000000  magneticMoment: [ Abs: 36.17165  Tot: +0.00000 ]
	SubspaceRotationAdjust: set factor to 0.392
ElecMinimize: Iter: 189  F: -1971.207338832112782  |grad|_K:  6.140e-07  alpha:  2.362e-01  linmin: -2.639e-05  t[s]:   9490.11
	FillingsUpdate:  mu: +0.114920387  nElectrons: 344.000000  magneticMoment: [ Abs: 36.16648  Tot: +0.00000 ]
	SubspaceRotationAdjust: set factor to 0.377
ElecMinimize: Iter: 190  F: -1971.207350573354915  |grad|_K:  5.311e-07  alpha:  1.772e-01  linmin:  2.163e-05  t[s]:   9534.80
	FillingsUpdate:  mu: +0.115075691  nElectrons: 344.000000  magneticMoment: [ Abs: 36.16617  Tot: -0.00000 ]
	SubspaceRotationAdjust: set factor to 0.471
ElecMinimize: Iter: 191  F: -1971.207366039340968  |grad|_K:  5.374e-07  alpha:  3.140e-01  linmin: -8.250e-05  t[s]:   9579.06
	FillingsUpdate:  mu: +0.115150465  nElectrons: 344.000000  magneticMoment: [ Abs: 36.16901  Tot: -0.00000 ]
	SubspaceRotationAdjust: set factor to 0.431
ElecMinimize: Iter: 192  F: -1971.207378570813944  |grad|_K:  6.288e-07  alpha:  2.475e-01  linmin: -2.987e-05  t[s]:   9623.41
	FillingsUpdate:  mu: +0.114703735  nElectrons: 344.000000  magneticMoment: [ Abs: 36.15981  Tot: +0.00000 ]
	SubspaceRotationAdjust: set factor to 0.392
ElecMinimize: Iter: 193  F: -1971.207390969991366  |grad|_K:  5.793e-07  alpha:  1.770e-01  linmin:  2.027e-05  t[s]:   9667.82
	FillingsUpdate:  mu: +0.114873844  nElectrons: 344.000000  magneticMoment: [ Abs: 36.15575  Tot: -0.00000 ]
	SubspaceRotationAdjust: set factor to 0.511
ElecMinimize: Iter: 194  F: -1971.207407784423822  |grad|_K:  5.559e-07  alpha:  2.869e-01  linmin: -7.454e-05  t[s]:   9713.18
	FillingsUpdate:  mu: +0.115189087  nElectrons: 344.000000  magneticMoment: [ Abs: 36.15654  Tot: +0.00000 ]
	SubspaceRotationAdjust: set factor to 0.439
ElecMinimize: Iter: 195  F: -1971.207422151535184  |grad|_K:  6.696e-07  alpha:  2.642e-01  linmin: -7.729e-05  t[s]:   9757.51
	FillingsUpdate:  mu: +0.114879524  nElectrons: 344.000000  magneticMoment: [ Abs: 36.14621  Tot: +0.00000 ]
	SubspaceRotationAdjust: set factor to 0.375
ElecMinimize: Iter: 196  F: -1971.207434041413990  |grad|_K:  5.682e-07  alpha:  1.468e-01  linmin: -5.820e-05  t[s]:   9802.32
	FillingsUpdate:  mu: +0.114872691  nElectrons: 344.000000  magneticMoment: [ Abs: 36.14028  Tot: +0.00000 ]
	SubspaceRotationAdjust: set factor to 0.501
ElecMinimize: Iter: 197  F: -1971.207450000523522  |grad|_K:  5.438e-07  alpha:  2.822e-01  linmin:  4.619e-05  t[s]:   9847.14
	FillingsUpdate:  mu: +0.115201473  nElectrons: 344.000000  magneticMoment: [ Abs: 36.13994  Tot: +0.00000 ]
	SubspaceRotationAdjust: set factor to 0.456
[...]
	SubspaceRotationAdjust: set factor to 0.172
ElecMinimize: Iter:  30  F: -1971.240730349350770  |grad|_K:  1.502e-07  alpha:  4.498e-01  linmin:  1.531e-06  t[s]:  49764.54
	FillingsUpdate:  mu: +0.113920975  nElectrons: 344.000000  magneticMoment: [ Abs: 36.04044  Tot: +0.00000 ]
	SubspaceRotationAdjust: set factor to 0.187
ElecMinimize: Iter:  31  F: -1971.240732057548939  |grad|_K:  1.544e-07  alpha:  4.350e-01  linmin:  5.029e-06  t[s]:  49809.74
	FillingsUpdate:  mu: +0.113985745  nElectrons: 344.000000  magneticMoment: [ Abs: 36.04071  Tot: +0.00000 ]
	SubspaceRotationAdjust: set factor to 0.175
ElecMinimize: Iter:  32  F: -1971.240733583733572  |grad|_K:  1.708e-07  alpha:  3.683e-01  linmin: -9.320e-06  t[s]:  49854.58
	FillingsUpdate:  mu: +0.113879449  nElectrons: 344.000000  magneticMoment: [ Abs: 36.04098  Tot: +0.00000 ]
	SubspaceRotationAdjust: set factor to 0.14
ElecMinimize: Iter:  33  F: -1971.240734922067077  |grad|_K:  1.673e-07  alpha:  2.629e-01  linmin:  4.513e-06  t[s]:  49899.54
	FillingsUpdate:  mu: +0.113939517  nElectrons: 344.000000  magneticMoment: [ Abs: 36.04157  Tot: -0.00000 ]
	SubspaceRotationAdjust: set factor to 0.144
ElecMinimize: Iter:  34  F: -1971.240736542266859  |grad|_K:  1.464e-07  alpha:  3.323e-01  linmin: -2.687e-05  t[s]:  49945.22
	FillingsUpdate:  mu: +0.113950082  nElectrons: 344.000000  magneticMoment: [ Abs: 36.04224  Tot: +0.00000 ]
	SubspaceRotationAdjust: set factor to 0.168
ElecMinimize: Iter:  35  F: -1971.240738054352278  |grad|_K:  1.405e-07  alpha:  4.041e-01  linmin: -1.355e-06  t[s]:  49990.12
	FillingsUpdate:  mu: +0.113880726  nElectrons: 344.000000  magneticMoment: [ Abs: 36.04266  Tot: +0.00000 ]
	SubspaceRotationAdjust: set factor to 0.169
ElecMinimize: Iter:  36  F: -1971.240739342413463  |grad|_K:  1.484e-07  alpha:  3.749e-01  linmin:  1.801e-05  t[s]:  50035.23
	FillingsUpdate:  mu: +0.113953088  nElectrons: 344.000000  magneticMoment: [ Abs: 36.04304  Tot: -0.00000 ]
	SubspaceRotationAdjust: set factor to 0.144
ElecMinimize: Iter:  37  F: -1971.240740435490352  |grad|_K:  1.466e-07  alpha:  2.862e-01  linmin: -1.349e-05  t[s]:  50079.92
	FillingsUpdate:  mu: +0.113897604  nElectrons: 344.000000  magneticMoment: [ Abs: 36.04356  Tot: +0.00000 ]
	SubspaceRotationAdjust: set factor to 0.146
ElecMinimize: Iter:  38  F: -1971.240741666983013  |grad|_K:  1.309e-07  alpha:  3.289e-01  linmin:  2.770e-05  t[s]:  50124.45
	FillingsUpdate:  mu: +0.113907701  nElectrons: 344.000000  magneticMoment: [ Abs: 36.04418  Tot: +0.00000 ]
	SubspaceRotationAdjust: set factor to 0.169
ElecMinimize: Iter:  39  F: -1971.240742912957103  |grad|_K:  1.250e-07  alpha:  4.188e-01  linmin:  2.945e-06  t[s]:  50169.43
	FillingsUpdate:  mu: +0.113943543  nElectrons: 344.000000  magneticMoment: [ Abs: 36.04460  Tot: +0.00000 ]
	SubspaceRotationAdjust: set factor to 0.174
ElecMinimize: Iter:  40  F: -1971.240743959826887  |grad|_K:  1.275e-07  alpha:  3.848e-01  linmin: -1.851e-05  t[s]:  50214.09
	FillingsUpdate:  mu: +0.113863445  nElectrons: 344.000000  magneticMoment: [ Abs: 36.04485  Tot: +0.00000 ]
	SubspaceRotationAdjust: set factor to 0.145
ElecMinimize: Iter:  41  F: -1971.240744762293616  |grad|_K:  1.259e-07  alpha:  2.825e-01  linmin:  6.007e-06  t[s]:  50259.18
	FillingsUpdate:  mu: +0.113916623  nElectrons: 344.000000  magneticMoment: [ Abs: 36.04519  Tot: -0.00000 ]
	SubspaceRotationAdjust: set factor to 0.134
ElecMinimize: Iter:  42  F: -1971.240745582043019  |grad|_K:  1.100e-07  alpha:  2.971e-01  linmin: -2.110e-05  t[s]:  50304.14
	FillingsUpdate:  mu: +0.113914039  nElectrons: 344.000000  magneticMoment: [ Abs: 36.04551  Tot: -0.00000 ]
	SubspaceRotationAdjust: set factor to 0.156
ElecMinimize: Iter:  43  F: -1971.240746391029916  |grad|_K:  9.714e-08  alpha:  3.833e-01  linmin:  5.230e-06  t[s]:  50349.45
	FillingsUpdate:  mu: +0.113879170  nElectrons: 344.000000  magneticMoment: [ Abs: 36.04565  Tot: -0.00000 ]
	SubspaceRotationAdjust: set factor to 0.161
ElecMinimize: Iter:  44  F: -1971.240747004804234  |grad|_K:  9.605e-08  alpha:  3.739e-01  linmin:  7.496e-06  t[s]:  50394.30
	FillingsUpdate:  mu: +0.113928148  nElectrons: 344.000000  magneticMoment: [ Abs: 36.04574  Tot: -0.00000 ]
	SubspaceRotationAdjust: set factor to 0.137
ElecMinimize: Iter:  45  F: -1971.240747473966849  |grad|_K:  9.082e-08  alpha:  2.924e-01  linmin: -6.897e-06  t[s]:  50439.02
ElecMinimize: Converged (|Delta F|<1.000000e-06 for 5 iters).
Setting wave functions to eigenvectors of Hamiltonian
IonicMinimize: 	Wolfe criterion not satisfied: alpha: 1  (E-E0)/|gdotd0|: 0.574724  gdotd/gdotd0: -0.694655 (taking cubic step)

-------- Electronic minimization -----------
	FillingsUpdate:  mu: +0.111141377  nElectrons: 344.000000  magneticMoment: [ Abs: 36.04478  Tot: +0.00000 ]
ElecMinimize: Iter:   0  F: -1971.016866019367626  |grad|_K:  8.053e-05  alpha:  1.000e+00
	FillingsUpdate:  mu: +0.114137585  nElectrons: 344.000000  magneticMoment: [ Abs: 36.07668  Tot: +0.00000 ]
	SubspaceRotationAdjust: set factor to 0.134
ElecMinimize: Iter:   1  F: -1971.229206631834359  |grad|_K:  1.433e-05  alpha:  1.961e-01  linmin:  3.665e-02  t[s]:  50533.43
	FillingsUpdate:  mu: +0.113750201  nElectrons: 344.000000  magneticMoment: [ Abs: 36.06011  Tot: -0.00000 ]
	SubspaceRotationAdjust: set factor to 0.111
ElecMinimize: Iter:   2  F: -1971.236253266152517  |grad|_K:  7.412e-06  alpha:  2.052e-01  linmin: -3.039e-04  t[s]:  50577.93
	FillingsUpdate:  mu: +0.111980168  nElectrons: 344.000000  magneticMoment: [ Abs: 36.05232  Tot: -0.00000 ]
	SubspaceRotationAdjust: set factor to 0.086
ElecMinimize: Iter:   3  F: -1971.238593153376769  |grad|_K:  3.929e-06  alpha:  2.443e-01  linmin:  2.712e-04  t[s]:  50622.64
	FillingsUpdate:  mu: +0.114540933  nElectrons: 344.000000  magneticMoment: [ Abs: 36.05611  Tot: -0.00000 ]
	SubspaceRotationAdjust: set factor to 0.0855
ElecMinimize: Iter:   4  F: -1971.239463170728413  |grad|_K:  2.532e-06  alpha:  3.249e-01  linmin: -3.770e-05  t[s]:  50667.34
	FillingsUpdate:  mu: +0.114593037  nElectrons: 344.000000  magneticMoment: [ Abs: 36.05807  Tot: +0.00000 ]
	SubspaceRotationAdjust: set factor to 0.0986
ElecMinimize: Iter:   5  F: -1971.239831664659960  |grad|_K:  1.844e-06  alpha:  3.297e-01  linmin:  9.440e-07  t[s]:  50711.97
	FillingsUpdate:  mu: +0.114135227  nElectrons: 344.000000  magneticMoment: [ Abs: 36.05786  Tot: -0.00000 ]
	SubspaceRotationAdjust: set factor to 0.113
ElecMinimize: Iter:   6  F: -1971.240030274425408  |grad|_K:  1.500e-06  alpha:  3.355e-01  linmin:  2.526e-06  t[s]:  50756.49
	FillingsUpdate:  mu: +0.114387819  nElectrons: 344.000000  magneticMoment: [ Abs: 36.05704  Tot: +0.00000 ]
	SubspaceRotationAdjust: set factor to 0.136
ElecMinimize: Iter:   7  F: -1971.240171815574740  |grad|_K:  1.327e-06  alpha:  3.615e-01  linmin: -4.538e-06  t[s]:  50801.17
	FillingsUpdate:  mu: +0.114311466  nElectrons: 344.000000  magneticMoment: [ Abs: 36.05598  Tot: +0.00000 ]
	SubspaceRotationAdjust: set factor to 0.164
ElecMinimize: Iter:   8  F: -1971.240312748277802  |grad|_K:  1.339e-06  alpha:  4.596e-01  linmin:  9.218e-07  t[s]:  50845.60
	FillingsUpdate:  mu: +0.114056691  nElectrons: 344.000000  magneticMoment: [ Abs: 36.05398  Tot: -0.00000 ]
	SubspaceRotationAdjust: set factor to 0.186
ElecMinimize: Iter:   9  F: -1971.240454961954356  |grad|_K:  1.413e-06  alpha:  4.553e-01  linmin:  2.449e-06  t[s]:  50890.35
	FillingsUpdate:  mu: +0.114459244  nElectrons: 344.000000  magneticMoment: [ Abs: 36.05175  Tot: +0.00000 ]
	SubspaceRotationAdjust: set factor to 0.183
ElecMinimize: Iter:  10  F: -1971.240590125986728  |grad|_K:  1.431e-06  alpha:  3.897e-01  linmin: -6.823e-06  t[s]:  50934.75
	FillingsUpdate:  mu: +0.113656001  nElectrons: 344.000000  magneticMoment: [ Abs: 36.05023  Tot: -0.00000 ]
	SubspaceRotationAdjust: set factor to 0.14
ElecMinimize: Iter:  11  F: -1971.240681338506420  |grad|_K:  1.302e-06  alpha:  2.540e-01  linmin: -1.153e-06  t[s]:  50979.01
	FillingsUpdate:  mu: +0.114392871  nElectrons: 344.000000  magneticMoment: [ Abs: 36.04901  Tot: +0.00000 ]
	SubspaceRotationAdjust: set factor to 0.112
ElecMinimize: Iter:  12  F: -1971.240755856339547  |grad|_K:  9.556e-07  alpha:  2.523e-01  linmin: -1.039e-05  t[s]:  51023.75
	FillingsUpdate:  mu: +0.114290201  nElectrons: 344.000000  magneticMoment: [ Abs: 36.04774  Tot: -0.00000 ]
	SubspaceRotationAdjust: set factor to 0.12
ElecMinimize: Iter:  13  F: -1971.240804802203002  |grad|_K:  7.465e-07  alpha:  3.070e-01  linmin:  2.008e-06  t[s]:  51068.81
	FillingsUpdate:  mu: +0.114065272  nElectrons: 344.000000  magneticMoment: [ Abs: 36.04715  Tot: -0.00000 ]
	SubspaceRotationAdjust: set factor to 0.114
ElecMinimize: Iter:  14  F: -1971.240832737766368  |grad|_K:  5.271e-07  alpha:  2.880e-01  linmin:  2.789e-06  t[s]:  51113.38
	FillingsUpdate:  mu: +0.114294181  nElectrons: 344.000000  magneticMoment: [ Abs: 36.04723  Tot: -0.00000 ]
	SubspaceRotationAdjust: set factor to 0.1
ElecMinimize: Iter:  15  F: -1971.240846993729974  |grad|_K:  3.899e-07  alpha:  2.949e-01  linmin: -3.437e-06  t[s]:  51158.41
	FillingsUpdate:  mu: +0.114236036  nElectrons: 344.000000  magneticMoment: [ Abs: 36.04721  Tot: -0.00000 ]
	SubspaceRotationAdjust: set factor to 0.11
ElecMinimize: Iter:  16  F: -1971.240854910679900  |grad|_K:  2.893e-07  alpha:  2.990e-01  linmin:  1.171e-06  t[s]:  51202.85
	FillingsUpdate:  mu: +0.114182185  nElectrons: 344.000000  magneticMoment: [ Abs: 36.04708  Tot: +0.00000 ]
	SubspaceRotationAdjust: set factor to 0.123
ElecMinimize: Iter:  17  F: -1971.240859258077990  |grad|_K:  2.286e-07  alpha:  2.984e-01  linmin:  1.090e-06  t[s]:  51247.60
	FillingsUpdate:  mu: +0.114261493  nElectrons: 344.000000  magneticMoment: [ Abs: 36.04702  Tot: -0.00000 ]
	SubspaceRotationAdjust: set factor to 0.133
ElecMinimize: Iter:  18  F: -1971.240862267858120  |grad|_K:  1.894e-07  alpha:  3.308e-01  linmin: -8.441e-06  t[s]:  51292.85
	FillingsUpdate:  mu: +0.114225193  nElectrons: 344.000000  magneticMoment: [ Abs: 36.04705  Tot: +0.00000 ]
	SubspaceRotationAdjust: set factor to 0.156
ElecMinimize: Iter:  19  F: -1971.240864517945965  |grad|_K:  1.778e-07  alpha:  3.600e-01  linmin:  6.053e-07  t[s]:  51337.95
	FillingsUpdate:  mu: +0.114238559  nElectrons: 344.000000  magneticMoment: [ Abs: 36.04707  Tot: -0.00000 ]
	SubspaceRotationAdjust: set factor to 0.193
ElecMinimize: Iter:  20  F: -1971.240866577543557  |grad|_K:  1.755e-07  alpha:  3.741e-01  linmin: -4.947e-07  t[s]:  51383.14
	FillingsUpdate:  mu: +0.114292516  nElectrons: 344.000000  magneticMoment: [ Abs: 36.04700  Tot: +0.00000 ]
	SubspaceRotationAdjust: set factor to 0.212
ElecMinimize: Iter:  21  F: -1971.240868622945982  |grad|_K:  1.903e-07  alpha:  3.815e-01  linmin: -1.871e-06  t[s]:  51428.33
	FillingsUpdate:  mu: +0.114195267  nElectrons: 344.000000  magneticMoment: [ Abs: 36.04693  Tot: +0.00000 ]
	SubspaceRotationAdjust: set factor to 0.187
ElecMinimize: Iter:  22  F: -1971.240870440744175  |grad|_K:  2.103e-07  alpha:  2.879e-01  linmin:  1.878e-06  t[s]:  51473.31
	FillingsUpdate:  mu: +0.114295264  nElectrons: 344.000000  magneticMoment: [ Abs: 36.04689  Tot: +0.00000 ]
	SubspaceRotationAdjust: set factor to 0.161
ElecMinimize: Iter:  23  F: -1971.240872285610067  |grad|_K:  1.759e-07  alpha:  2.397e-01  linmin: -2.399e-06  t[s]:  51517.94
	FillingsUpdate:  mu: +0.114268350  nElectrons: 344.000000  magneticMoment: [ Abs: 36.04671  Tot: +0.00000 ]
	SubspaceRotationAdjust: set factor to 0.166
ElecMinimize: Iter:  24  F: -1971.240874154556423  |grad|_K:  1.563e-07  alpha:  3.467e-01  linmin:  3.717e-06  t[s]:  51562.83
	FillingsUpdate:  mu: +0.114260313  nElectrons: 344.000000  magneticMoment: [ Abs: 36.04645  Tot: -0.00000 ]
	SubspaceRotationAdjust: set factor to 0.178
ElecMinimize: Iter:  25  F: -1971.240875633888663  |grad|_K:  1.395e-07  alpha:  3.481e-01  linmin:  1.278e-07  t[s]:  51607.91
	FillingsUpdate:  mu: +0.114298120  nElectrons: 344.000000  magneticMoment: [ Abs: 36.04626  Tot: +0.00000 ]
	SubspaceRotationAdjust: set factor to 0.178
ElecMinimize: Iter:  26  F: -1971.240876720783035  |grad|_K:  1.267e-07  alpha:  3.208e-01  linmin: -1.820e-06  t[s]:  51652.13
	FillingsUpdate:  mu: +0.114246977  nElectrons: 344.000000  magneticMoment: [ Abs: 36.04608  Tot: +0.00000 ]
	SubspaceRotationAdjust: set factor to 0.161
ElecMinimize: Iter:  27  F: -1971.240877510262635  |grad|_K:  1.175e-07  alpha:  2.825e-01  linmin:  3.672e-06  t[s]:  51696.23
	FillingsUpdate:  mu: +0.114294414  nElectrons: 344.000000  magneticMoment: [ Abs: 36.04587  Tot: -0.00000 ]
	SubspaceRotationAdjust: set factor to 0.157
ElecMinimize: Iter:  28  F: -1971.240878133583237  |grad|_K:  9.989e-08  alpha:  2.596e-01  linmin: -2.682e-06  t[s]:  51740.67
	FillingsUpdate:  mu: +0.114270849  nElectrons: 344.000000  magneticMoment: [ Abs: 36.04555  Tot: +0.00000 ]
	SubspaceRotationAdjust: set factor to 0.193
ElecMinimize: Iter:  29  F: -1971.240878727658355  |grad|_K:  8.814e-08  alpha:  3.416e-01  linmin: -5.424e-06  t[s]:  51785.22
	FillingsUpdate:  mu: +0.114252270  nElectrons: 344.000000  magneticMoment: [ Abs: 36.04526  Tot: +0.00000 ]
	SubspaceRotationAdjust: set factor to 0.233
ElecMinimize: Iter:  30  F: -1971.240879241415996  |grad|_K:  9.091e-08  alpha:  3.797e-01  linmin:  2.256e-06  t[s]:  51830.19
	FillingsUpdate:  mu: +0.114297296  nElectrons: 344.000000  magneticMoment: [ Abs: 36.04501  Tot: -0.00000 ]
	SubspaceRotationAdjust: set factor to 0.209
ElecMinimize: Iter:  31  F: -1971.240879681705337  |grad|_K:  1.079e-07  alpha:  3.061e-01  linmin: -1.751e-06  t[s]:  51875.28
ElecMinimize: Converged (|Delta F|<1.000000e-06 for 5 iters).
Setting wave functions to eigenvectors of Hamiltonian

# Ionic positions in lattice coordinates:
ion Ni   0.000128230079124   0.026112047977620   0.159440560778635 1
ion Ni   0.500000000000000   0.000000000000000  -0.050000000000000 0
ion Ni   0.000000000000000   0.500000000000000  -0.050000000000000 0
ion Ni   0.250000000000000   0.250000000000000  -0.150000000000000 0
ion Ni   0.250000000000000   0.750000000000000  -0.150000000000000 0
ion Ni  -0.250000000000000   0.250000000000000  -0.150000000000000 0
ion V   0.489053748833296  -0.009970878943565   0.161345799210940 1
ion V  -0.015294240026295   0.499151972887099   0.161815094729705 1
ion V   0.486069344789090   0.491876410551509   0.153080926673594 1
ion V   0.248755218842534   0.240143771605345   0.052535051581538 1
ion V   0.247659871642699   0.745876676825108   0.053694638327264 1
ion V  -0.243173072740677   0.237122760332654   0.051323493603666 1
ion V  -0.249888267444092   0.740050948544003   0.053275982819572 1
ion V   0.000000000000000   0.000000000000000  -0.050000000000000 0
ion V   0.500000000000000   0.500000000000000  -0.050000000000000 0
ion Co  -0.250000000000000   0.750000000000000  -0.150000000000000 0
ion O   0.251249405297667   0.255729740018487   0.151636161171847 1
ion O   0.255953770066610   0.722331205074867   0.154374396015430 1
ion O  -0.280613510896480   0.256843791965927   0.147343657489006 1
ion O  -0.287013996602285   0.721449876604343   0.152798231516252 1
ion O  -0.004576648601543  -0.006094153087890   0.054386541355404 1
ion O   0.500226842314122  -0.006063196785560   0.051122500130080 1
ion O   0.000103165645558   0.490078869877391   0.051198870309487 1
ion O   0.502270454276105   0.485363180174364   0.054294380696611 1
ion O   0.250000000000000   0.250000000000000  -0.050000000000000 0
ion O   0.250000000000000   0.750000000000000  -0.050000000000000 0
ion O  -0.250000000000000   0.250000000000000  -0.050000000000000 0
ion O  -0.250000000000000   0.750000000000000  -0.050000000000000 0
ion O   0.000000000000000   0.000000000000000  -0.150000000000000 0
ion O   0.500000000000000   0.000000000000000  -0.150000000000000 0
ion O   0.000000000000000   0.500000000000000  -0.150000000000000 0
ion O   0.500000000000000   0.500000000000000  -0.150000000000000 0
ion O  -0.012858926501593   0.010506971637096   0.239008070888487 1

# Forces in Lattice coordinates:
force Ni   0.001244141374185   0.003016775463232   0.142888573924811 1
force Ni  -0.025977678642406  -0.014167171058432  -0.617930864410657 0
force Ni   0.029300448670672  -0.007536054375784  -0.617116166116401 0
force Ni   0.005152858338229   0.006264240617757   0.189995912534848 0
force Ni  -0.006415830667643   0.005788170132607   0.217272126028740 0
force Ni  -0.009870886100796   0.013447756830650   0.157848884620603 0
force V  -0.007023840631142   0.001475157155730   0.003185003601984 1
force V  -0.000098717157576   0.003015587358013   0.001912910229147 1
force V  -0.005376326588051   0.003857339271710  -0.022104079464972 1
force V  -0.007361965627414  -0.004062018395765  -0.010537523399745 1
force V  -0.004471970677665  -0.004718789449809  -0.003247599271687 1
force V  -0.000636728914203  -0.004264154588247   0.016989008274563 1
force V  -0.003820985153291   0.001508059522968   0.024353308764407 1
force V  -0.002609141850330   0.056228879642048  -0.603640076309604 0
force V  -0.006999453298534  -0.006668383455457  -0.814130214882185 0
force Co   0.004738845094227  -0.025232564705412  -0.362381440258550 0
force O   0.004161693856275   0.010633766999996  -0.023284197519382 1
force O  -0.010005516650957   0.014490883338621  -0.021573914173626 1
force O   0.006073871427508  -0.001930453010874  -0.048791954080062 1
force O   0.013364669573457   0.010660771124284   0.004634864575840 1
force O  -0.004679179755418   0.006517718325401  -0.004249216661121 1
force O  -0.002551012817752   0.005781070088666   0.004269315467652 1
force O  -0.006869013310379   0.005052091240078  -0.001997144944260 1
force O   0.000260200334515   0.000342685217624   0.021878628300501 1
force O   0.009290147906468  -0.022261023588641   0.126788895280095 0
force O  -0.045500411041829   0.056476464366074   0.285015213660996 0
force O   0.033906911481911  -0.042332287447257   0.347585390721260 0
force O   0.041159397271432   0.032327785233128   0.312631143374352 0
force O   0.021058351832733   0.008025242408650   0.315932746717285 0
force O  -0.008086014375386   0.050691783487304   0.468488803676536 0
force O   0.002357486844189  -0.033802615760886   0.436131918027780 0
force O   0.007477812399919  -0.069388291805996   0.175451060191357 0
force O   0.007105932425974  -0.012542750715363   0.005685667655808 1

# Energy components:
   Eewald =     5185.6150208876224497
       EH =     6960.3580340249127403
     Eloc =   -14296.3199585251713870
      Enl =     -488.3831270201766301
   Epulay =       -0.0004878833219591
      Exc =     -242.2420233973842016
       KE =      908.2952365316629084
        U =        1.4377095348705475
-------------------------------------
     Etot =    -1971.2395958469869583
       TS =        0.0012838347184129
-------------------------------------
        F =    -1971.2408796817053371

IonicMinimize: Iter:  15  F: -1971.240879681705337  |grad|_K:  7.189e-04  alpha:  1.914e-01  linmin: -2.064e-02  t[s]:  51890.59
IonicMinimize: Converged (|Delta F|<1.000000e-04 for 3 iters).

#--- Lowdin population analysis ---
# oxidation-state Ni +3.462 +3.453 +3.457 +3.825 +3.759 +3.781
# magnetic-moments Ni -0.115 -0.854 +0.858 -1.044 +0.954 -0.976
# oxidation-state V +1.151 +1.143 +1.291 +1.027 +1.034 +1.119 +0.998 +1.066 +1.009
# magnetic-moments V -2.929 +2.955 -2.073 +2.766 +2.823 -2.544 -2.882 -2.657 +2.815
# oxidation-state Co +1.252
# magnetic-moments Co +2.698
# oxidation-state O -0.875 -0.884 -0.862 -0.876 -0.860 -0.872 -0.871 -0.886 -0.787 -0.787 -0.782 -0.839 -0.802 -0.739 -0.741 -0.794 -0.488
# magnetic-moments O +0.034 -0.012 +0.025 +0.038 +0.025 -0.068 +0.056 +0.008 -0.082 +0.059 -0.025 +0.050 +0.008 -0.230 +0.095 -0.146 +0.601


Dumping 'run.ionpos' ... done
Dumping 'run.lattice' ... done
Dumping 'run.Ecomponents' ... done
End date and time: Wed May 21 03:15:00 2025  (Duration: 0-14:24:54.84)
Done!
