
*************** JDFTx 1.7.0  ***************

Start date and time: Fri May 16 21:12:21 2025
Executable /data2/jt577/jdftx_eat_withLibXC/build/jdftx with command-line: -i /data2/jt577/May_2025/Relax_Mag_litU/pure_NiO/runs/calc_20250516-211220/O/O.in
Running on hosts (process indices):  node3403 (0-8)
Divided in process groups (process indices):  0 (0)  1 (1)  2 (2)  3 (3)  4 (4)  5 (5)  6 (6)  7 (7)  8 (8)
Resource initialization completed at t[s]:      0.00
Run totals: 9 processes, 90 threads, 0 GPUs


Input parsed successfully to the following command list (including defaults):

add-mix 
add-U 	Ni d 0.235196
basis kpoint-dependent
coords-type Lattice
core-overlap-check vector
coulomb-interaction Periodic
davidson-band-ratio 1.1
dump End IonicPositions Lattice Ecomponents
dump-name O.$VAR
elec-cutoff 30
elec-eigen-algo Davidson
elec-ex-corr gga-x-rpbe gga-c-pbe
elec-smearing Fermi 0.001
electronic-minimize  \
	dirUpdateScheme      FletcherReeves \
	linminMethod         DirUpdateRecommended \
	nIterations          1000 \
	history              15 \
	knormThreshold       0 \
	energyDiffThreshold  1e-06 \
	nEnergyDiff          5 \
	alphaTstart          1 \
	alphaTmin            1e-10 \
	updateTestStepSize   yes \
	alphaTreduceFactor   0.1 \
	alphaTincreaseFactor 3 \
	nAlphaAdjustMax      3 \
	wolfeEnergy          0.0001 \
	wolfeGradient        0.9 \
	fdTest               no
exchange-regularization WignerSeitzTruncated
fluid None
fluid-ex-corr (null) lda-PZ
fluid-gummel-loop 10 1.000000e-05
fluid-minimize  \
	dirUpdateScheme      PolakRibiere \
	linminMethod         DirUpdateRecommended \
	nIterations          100 \
	history              15 \
	knormThreshold       0 \
	energyDiffThreshold  0 \
	nEnergyDiff          2 \
	alphaTstart          1 \
	alphaTmin            1e-10 \
	updateTestStepSize   yes \
	alphaTreduceFactor   0.1 \
	alphaTincreaseFactor 3 \
	nAlphaAdjustMax      3 \
	wolfeEnergy          0.0001 \
	wolfeGradient        0.9 \
	fdTest               no
fluid-solvent H2O 55.338 ScalarEOS \
	epsBulk 78.4 \
	pMol 0.92466 \
	epsInf 1.77 \
	Pvap 1.06736e-10 \
	sigmaBulk 4.62e-05 \
	Rvdw 2.61727 \
	Res 1.42 \
	tauNuc 343133 \
	poleEl 15 7 1
forces-output-coords Positions
initial-magnetic-moments  \
	Ni 1 -1 1 -1 1 1 -1 -1 -1 1 -1 1 -1 -1 1 1
initial-state O.$VAR
ion Ni  0.000000000000000   0.000000000000000   0.150000000000000 1
ion Ni  0.500000000000000   0.000000000000000   0.150000000000000 1
ion Ni  0.000000000000000   0.500000000000000   0.150000000000000 1
ion Ni  0.500000000000000   0.500000000000000   0.150000000000000 1
ion Ni  0.250000000000000   0.250000000000000   0.050000000000000 1
ion Ni  0.250000000000000   0.750000000000000   0.050000000000000 1
ion Ni -0.250000000000000   0.250000000000000   0.050000000000000 1
ion Ni -0.250000000000000   0.750000000000000   0.050000000000000 1
ion Ni  0.000000000000000   0.000000000000000  -0.050000000000000 0
ion Ni  0.500000000000000   0.000000000000000  -0.050000000000000 0
ion Ni  0.000000000000000   0.500000000000000  -0.050000000000000 0
ion Ni  0.500000000000000   0.500000000000000  -0.050000000000000 0
ion Ni  0.250000000000000   0.250000000000000  -0.150000000000000 0
ion Ni  0.250000000000000   0.750000000000000  -0.150000000000000 0
ion Ni -0.250000000000000   0.250000000000000  -0.150000000000000 0
ion Ni -0.250000000000000   0.750000000000000  -0.150000000000000 0
ion O  0.250000000000000   0.250000000000000   0.150000000000000 1
ion O  0.250000000000000   0.750000000000000   0.150000000000000 1
ion O -0.250000000000000   0.250000000000000   0.150000000000000 1
ion O -0.250000000000000   0.750000000000000   0.150000000000000 1
ion O  0.000000000000000   0.000000000000000   0.050000000000000 1
ion O  0.500000000000000   0.000000000000000   0.050000000000000 1
ion O  0.000000000000000   0.500000000000000   0.050000000000000 1
ion O  0.500000000000000   0.500000000000000   0.050000000000000 1
ion O  0.250000000000000   0.250000000000000  -0.050000000000000 0
ion O  0.250000000000000   0.750000000000000  -0.050000000000000 0
ion O -0.250000000000000   0.250000000000000  -0.050000000000000 0
ion O -0.250000000000000   0.750000000000000  -0.050000000000000 0
ion O  0.000000000000000   0.000000000000000  -0.150000000000000 0
ion O  0.500000000000000   0.000000000000000  -0.150000000000000 0
ion O  0.000000000000000   0.500000000000000  -0.150000000000000 0
ion O  0.500000000000000   0.500000000000000  -0.150000000000000 0
ion O  0.000000000000000   0.000000000000000   0.230000000000000 1
ion-species SG15/$ID_ONCV_PBE.upf
ion-width 0
ionic-minimize  \
	dirUpdateScheme      L-BFGS \
	linminMethod         DirUpdateRecommended \
	nIterations          1000 \
	history              15 \
	knormThreshold       0.0001 \
	energyDiffThreshold  0.0001 \
	nEnergyDiff          3 \
	alphaTstart          1 \
	alphaTmin            1e-10 \
	updateTestStepSize   yes \
	alphaTreduceFactor   0.1 \
	alphaTincreaseFactor 3 \
	nAlphaAdjustMax      3 \
	wolfeEnergy          0.0001 \
	wolfeGradient        0.9 \
	fdTest               no
kpoint   0.500000000000   0.500000000000   0.500000000000  1.00000000000000
kpoint-folding 3 3 1 
latt-move-scale 1 1 1
latt-scale 1 1 1 
lattice  \
	   7.880000000000000    7.880000000000000    0.000000000000000  \
	   7.880000000000000   -7.880000000000000    0.000000000000000  \
	   0.000000000000000    0.000000000000000   39.399999999999999 
lattice-minimize  \
	dirUpdateScheme      L-BFGS \
	linminMethod         DirUpdateRecommended \
	nIterations          0 \
	history              15 \
	knormThreshold       0 \
	energyDiffThreshold  1e-06 \
	nEnergyDiff          2 \
	alphaTstart          1 \
	alphaTmin            1e-10 \
	updateTestStepSize   yes \
	alphaTreduceFactor   0.1 \
	alphaTincreaseFactor 3 \
	nAlphaAdjustMax      3 \
	wolfeEnergy          0.0001 \
	wolfeGradient        0.9 \
	fdTest               no
lcao-params -1 1e-06 0.001
pcm-variant GLSSA13
spintype z-spin
subspace-rotation-factor 1 yes
symmetries none
symmetry-threshold 0.0001


Applied RMS atom displacement 0 bohrs to make symmetries exact.

---------- Initializing the Grid ----------
R = 
[         7.88         7.88            0  ]
[         7.88        -7.88            0  ]
[            0            0         39.4  ]
unit cell volume = 4893.04
G =
[   0.398679   0.398679         -0  ]
[   0.398679  -0.398679         -0  ]
[         -0         -0   0.159472  ]
Minimum fftbox size, Smin = [  56  56  196  ]
Chosen fftbox size, S = [  56  56  196  ]

---------- Exchange Correlation functional ----------
Initialized LibXC exchange functional 'Hammer, Hansen, and Norskov'
Initialized LibXC correlation functional 'Perdew, Burke & Ernzerhof'

---------- Setting up pseudopotentials ----------
Width of ionic core gaussian charges (only for fluid interactions / plotting) set to 0

Reading pseudopotential file '/data2/jt577/jdftx_eat_withLibXC/build/pseudopotentials/SG15/Ni_ONCV_PBE.upf':
  'Ni' pseudopotential, 'PBE' functional
  Generated using ONCVPSP code by D. R. Hamann
  Author: Martin Schlipf and Francois Gygi  Date: 150915.
  18 valence electrons, 4 orbitals, 6 projectors, 1292 radial grid points, with lMax = 2
  Transforming local potential to a uniform radial grid of dG=0.02 with 1368 points.
  Transforming nonlocal projectors to a uniform radial grid of dG=0.02 with 528 points.
    3S    l: 0   occupation:  2.0   eigenvalue: -4.081355
    3P    l: 1   occupation:  6.0   eigenvalue: -2.623460
    4S    l: 0   occupation:  2.0   eigenvalue: -0.207378
    3D    l: 2   occupation:  8.0   eigenvalue: -0.326118
  Transforming atomic orbitals to a uniform radial grid of dG=0.02 with 528 points.
  WARNING: large normalization error in atomic orbital 1s (integral: 0.000006).
  Core radius for overlap checks: 1.99 bohrs.
  Reading pulay file /data2/jt577/jdftx_eat_withLibXC/build/pseudopotentials/SG15/Ni_ONCV_PBE.pulay ... using dE_dnG = -7.250568e-04 computed for Ecut = 30.

Reading pseudopotential file '/data2/jt577/jdftx_eat_withLibXC/build/pseudopotentials/SG15/O_ONCV_PBE.upf':
  'O' pseudopotential, 'PBE' functional
  Generated using ONCVPSP code by D. R. Hamann
  Author: Martin Schlipf and Francois Gygi  Date: 150915.
  6 valence electrons, 2 orbitals, 4 projectors, 936 radial grid points, with lMax = 1
  Transforming local potential to a uniform radial grid of dG=0.02 with 1368 points.
  Transforming nonlocal projectors to a uniform radial grid of dG=0.02 with 528 points.
    2S    l: 0   occupation:  2.0   eigenvalue: -0.880572
    2P    l: 1   occupation:  4.0   eigenvalue: -0.331869
  Transforming atomic orbitals to a uniform radial grid of dG=0.02 with 528 points.
  Core radius for overlap checks: 1.29 bohrs.
  Reading pulay file /data2/jt577/jdftx_eat_withLibXC/build/pseudopotentials/SG15/O_ONCV_PBE.pulay ... using dE_dnG = -8.209514e-03 computed for Ecut = 30.

Initialized 2 species with 33 total atoms.

Folded 1 k-points by 3x3x1 to 9 k-points.

---------- Setting up k-points, bands, fillings ----------
No reducable k-points. 
Computing the number of bands and number of electrons
Calculating initial fillings.
nElectrons: 390.000000   nBands: 228   nStates: 18

----- Setting up reduced wavefunction bases (one per k-point) -----
average nbasis = 38425.778 , ideal nbasis = 38402.061

---------- Setting up ewald sum ----------
Optimum gaussian width for ewald sums = 3.781673 bohr.
Real space sum over 605 unit cells with max indices [  5  5  2  ]
Reciprocal space sum over 5915 terms with max indices [  6  6  17  ]

---------- Allocating electronic variables ----------
Initializing wave functions:  linear combination of atomic orbitals
Ni (M=1) pseudo-atom majority spin occupations:   s ( 1 0.5 )  p ( 3 )  d ( 5 )
Ni (M=1) pseudo-atom minority spin occupations:   s ( 1 0 )  p ( 3 )  d ( 4.5 )
O pseudo-atom occupations:   s ( 2 )  p ( 4 )
	FillingsUpdate:  mu: +1.809001770  nElectrons: 390.000000  magneticMoment: [ Abs: 0.19800  Tot: -0.00000 ]
LCAOMinimize: Iter:   0  F: -2503.8215670074564514  |grad|_K:  2.340e-02  alpha:  1.000e+00
LCAOMinimize: 	Step increased F by 4.472622e+01, reducing alpha to 4.529319e-02.
LCAOMinimize: 	Step increased F by 2.070839e+00, reducing alpha to 4.529319e-03.
	FillingsUpdate:  mu: +1.669197922  nElectrons: 390.000000  magneticMoment: [ Abs: 0.20496  Tot: +0.00000 ]
LCAOMinimize: Iter:   1  F: -2506.8898680487804995  |grad|_K:  2.548e-02  alpha:  4.529e-03  linmin: -1.316e-01  cgtest:  7.767e-01  t[s]:     54.38
LCAOMinimize: 	Wrong curvature in test step, increasing alphaT to 1.358796e-02.
	FillingsUpdate:  mu: +1.330144983  nElectrons: 390.000000  magneticMoment: [ Abs: 0.23468  Tot: +0.00000 ]
LCAOMinimize: Iter:   2  F: -2511.2893387124322544  |grad|_K:  2.183e-02  alpha: -1.605e-02  linmin: -1.959e-01  cgtest:  8.909e-01  t[s]:     65.98
LCAOMinimize: Encountered beta<0, resetting CG.
LCAOMinimize: 	Step increased F by 4.020051e+01, reducing alpha to 4.505352e-02.
LCAOMinimize: 	Step increased F by 3.108138e+00, reducing alpha to 4.505352e-03.
	FillingsUpdate:  mu: +1.135975467  nElectrons: 390.000000  magneticMoment: [ Abs: 0.23882  Tot: +0.00000 ]
LCAOMinimize: Iter:   3  F: -2513.1315103183328574  |grad|_K:  1.943e-02  alpha:  4.505e-03  linmin: -1.825e-01  cgtest:  9.416e-01  t[s]:     96.46
LCAOMinimize: Encountered beta<0, resetting CG.
LCAOMinimize: 	Wrong curvature in test step, increasing alphaT to 1.351606e-02.
	FillingsUpdate:  mu: +0.906760435  nElectrons: 390.000000  magneticMoment: [ Abs: 0.25467  Tot: -0.00000 ]
LCAOMinimize: Iter:   4  F: -2514.8564543981128736  |grad|_K:  1.890e-02  alpha: -3.041e-02  linmin: -1.851e-01  cgtest:  8.347e-01  t[s]:    108.20
LCAOMinimize: 	Step increased F by 4.119198e+01, reducing alpha to 4.404854e-02.
LCAOMinimize: 	Step increased F by 6.164319e+00, reducing alpha to 4.404854e-03.
	FillingsUpdate:  mu: +0.606710667  nElectrons: 390.000000  magneticMoment: [ Abs: 0.27059  Tot: +0.00000 ]
LCAOMinimize: Iter:   5  F: -2516.5336912155466962  |grad|_K:  1.434e-02  alpha:  4.405e-03  linmin: -1.816e-01  cgtest:  8.901e-01  t[s]:    139.14
LCAOMinimize: Encountered beta<0, resetting CG.
LCAOMinimize: 	Predicted alpha/alphaT>3.000000, increasing alphaT to 1.321456e-02.
	FillingsUpdate:  mu: -0.013509407  nElectrons: 390.000000  magneticMoment: [ Abs: 0.29205  Tot: -0.00000 ]
LCAOMinimize: Iter:   6  F: -2519.0643241767129439  |grad|_K:  7.450e-03  alpha:  2.332e-02  linmin: -4.643e-02  cgtest: -1.861e-01  t[s]:    155.48
	FillingsUpdate:  mu: -0.078783753  nElectrons: 390.000000  magneticMoment: [ Abs: 0.34413  Tot: +0.00000 ]
LCAOMinimize: Iter:   7  F: -2519.6522367939960532  |grad|_K:  5.780e-03  alpha:  1.278e-02  linmin: -9.322e-03  cgtest:  2.104e-01  t[s]:    168.25
	FillingsUpdate:  mu: -0.144483532  nElectrons: 390.000000  magneticMoment: [ Abs: 0.36762  Tot: -0.00000 ]
LCAOMinimize: Iter:   8  F: -2519.8575291565680345  |grad|_K:  3.721e-03  alpha:  1.157e-02  linmin:  1.161e-02  cgtest:  6.895e-01  t[s]:    180.62
LCAOMinimize: Encountered beta<0, resetting CG.
	FillingsUpdate:  mu: -0.127306573  nElectrons: 390.000000  magneticMoment: [ Abs: 0.35393  Tot: -0.00000 ]
LCAOMinimize: Iter:   9  F: -2519.9747182271448764  |grad|_K:  9.041e-04  alpha:  1.717e-02  linmin: -2.840e-02  cgtest:  3.633e-01  t[s]:    193.27
LCAOMinimize: Encountered beta<0, resetting CG.
	FillingsUpdate:  mu: -0.107207530  nElectrons: 390.000000  magneticMoment: [ Abs: 0.37281  Tot: -0.00000 ]
LCAOMinimize: Iter:  10  F: -2519.9902951429780842  |grad|_K:  1.507e-03  alpha:  4.043e-02  linmin:  4.741e-05  cgtest: -8.807e-02  t[s]:    205.90
	FillingsUpdate:  mu: -0.068121485  nElectrons: 390.000000  magneticMoment: [ Abs: 0.49232  Tot: -0.00000 ]
LCAOMinimize: Iter:  11  F: -2520.0322188354089121  |grad|_K:  3.331e-03  alpha:  5.608e-02  linmin:  2.165e-03  cgtest: -2.089e-01  t[s]:    218.63
LCAOMinimize: 	Step increased F by 1.199266e-04, reducing alpha to 2.758931e-04.
	FillingsUpdate:  mu: -0.068028843  nElectrons: 390.000000  magneticMoment: [ Abs: 0.49394  Tot: +0.00000 ]
LCAOMinimize: Iter:  12  F: -2520.0324844637798378  |grad|_K:  3.383e-03  alpha:  2.759e-04  linmin: -1.895e-04  cgtest:  9.980e-01  t[s]:    240.05
LCAOMinimize: 	Predicted alpha/alphaT>3.000000, increasing alphaT to 8.276793e-04.
LCAOMinimize: 	Predicted alpha/alphaT>3.000000, increasing alphaT to 2.483038e-03.
LCAOMinimize: 	Predicted alpha/alphaT>3.000000, increasing alphaT to 7.449113e-03.
	FillingsUpdate:  mu: -0.030510821  nElectrons: 390.000000  magneticMoment: [ Abs: 0.53400  Tot: -0.00000 ]
LCAOMinimize: Iter:  13  F: -2520.0384894377461933  |grad|_K:  6.395e-03  alpha:  2.266e-02  linmin:  2.440e-02  cgtest: -4.458e-01  t[s]:    260.02
LCAOMinimize: 	Bad step direction: g.d > 0.
LCAOMinimize: 	Undoing step.
LCAOMinimize: 	Step failed: resetting search direction.
	FillingsUpdate:  mu: -0.030510821  nElectrons: 390.000000  magneticMoment: [ Abs: 0.53400  Tot: -0.00000 ]
LCAOMinimize: Iter:  14  F: -2520.0384894377461933  |grad|_K:  6.395e-03  alpha:  0.000e+00
	FillingsUpdate:  mu: -0.091519435  nElectrons: 390.000000  magneticMoment: [ Abs: 0.50919  Tot: -0.00000 ]
LCAOMinimize: Iter:  15  F: -2520.1409755673307700  |grad|_K:  2.112e-03  alpha:  8.599e-03  linmin:  7.671e-02  cgtest: -1.003e+00  t[s]:    281.56
LCAOMinimize: 	Bad step direction: g.d > 0.
LCAOMinimize: 	Undoing step.
LCAOMinimize: 	Step failed: resetting search direction.
	FillingsUpdate:  mu: -0.091519435  nElectrons: 390.000000  magneticMoment: [ Abs: 0.50919  Tot: -0.00000 ]
LCAOMinimize: Iter:  16  F: -2520.1409755673271320  |grad|_K:  2.112e-03  alpha:  0.000e+00
	FillingsUpdate:  mu: -0.102731714  nElectrons: 390.000000  magneticMoment: [ Abs: 0.52552  Tot: -0.00000 ]
LCAOMinimize: Iter:  17  F: -2520.1577049673592228  |grad|_K:  6.796e-04  alpha:  7.867e-03  linmin:  6.107e-03  cgtest: -9.192e-02  t[s]:    303.11
LCAOMinimize: 	Predicted alpha/alphaT>3.000000, increasing alphaT to 2.360061e-02.
LCAOMinimize: 	Predicted alpha/alphaT>3.000000, increasing alphaT to 7.080184e-02.
	FillingsUpdate:  mu: -0.094875303  nElectrons: 390.000000  magneticMoment: [ Abs: 0.60567  Tot: -0.00000 ]
LCAOMinimize: Iter:  18  F: -2520.1810971014424467  |grad|_K:  9.623e-04  alpha:  1.104e-01  linmin: -3.632e-04  cgtest:  2.890e-01  t[s]:    323.28
	FillingsUpdate:  mu: -0.095201618  nElectrons: 390.000000  magneticMoment: [ Abs: 0.67562  Tot: -0.00000 ]
LCAOMinimize: Iter:  19  F: -2520.1932753729743126  |grad|_K:  1.621e-03  alpha:  3.206e-02  linmin:  4.002e-04  cgtest: -1.559e-01  t[s]:    335.87
	FillingsUpdate:  mu: -0.096441739  nElectrons: 390.000000  magneticMoment: [ Abs: 1.09107  Tot: +0.00000 ]
LCAOMinimize: Iter:  20  F: -2520.2397161885619425  |grad|_K:  1.475e-03  alpha:  4.227e-02  linmin:  6.386e-05  cgtest: -8.205e-02  t[s]:    348.69
	FillingsUpdate:  mu: -0.083597968  nElectrons: 390.000000  magneticMoment: [ Abs: 1.41203  Tot: -0.00000 ]
LCAOMinimize: Iter:  21  F: -2520.2757507738801905  |grad|_K:  8.967e-04  alpha:  3.659e-02  linmin: -4.173e-04  cgtest:  6.319e-01  t[s]:    361.42
LCAOMinimize: Encountered beta<0, resetting CG.
	FillingsUpdate:  mu: -0.071638224  nElectrons: 390.000000  magneticMoment: [ Abs: 1.48522  Tot: -0.00000 ]
LCAOMinimize: Iter:  22  F: -2520.2820660775582837  |grad|_K:  5.657e-04  alpha:  1.616e-02  linmin: -6.410e-03  cgtest:  3.521e-02  t[s]:    374.08
	FillingsUpdate:  mu: -0.067628318  nElectrons: 390.000000  magneticMoment: [ Abs: 1.55744  Tot: +0.00000 ]
LCAOMinimize: Iter:  23  F: -2520.2845908906006116  |grad|_K:  3.733e-04  alpha:  1.646e-02  linmin: -2.577e-04  cgtest: -3.356e-02  t[s]:    386.88
	FillingsUpdate:  mu: -0.072211487  nElectrons: 390.000000  magneticMoment: [ Abs: 1.79081  Tot: -0.00000 ]
LCAOMinimize: Iter:  24  F: -2520.2876150575134488  |grad|_K:  3.412e-04  alpha:  4.709e-02  linmin:  4.589e-03  cgtest:  3.145e-02  t[s]:    399.40
LCAOMinimize: 	Predicted alpha/alphaT>3.000000, increasing alphaT to 1.412812e-01.
	FillingsUpdate:  mu: -0.078886323  nElectrons: 390.000000  magneticMoment: [ Abs: 2.60954  Tot: -0.00000 ]
LCAOMinimize: Iter:  25  F: -2520.2947544575285974  |grad|_K:  1.074e-03  alpha:  1.317e-01  linmin:  3.055e-03  cgtest:  1.845e-01  t[s]:    415.35
	FillingsUpdate:  mu: -0.073626611  nElectrons: 390.000000  magneticMoment: [ Abs: 3.90358  Tot: +0.00000 ]
LCAOMinimize: Iter:  26  F: -2520.3018072258523716  |grad|_K:  1.803e-03  alpha:  2.937e-02  linmin:  4.885e-03  cgtest:  1.006e+00  t[s]:    427.69
	FillingsUpdate:  mu: -0.089109824  nElectrons: 390.000000  magneticMoment: [ Abs: 4.68143  Tot: -0.00000 ]
LCAOMinimize: Iter:  27  F: -2520.3248523752463370  |grad|_K:  8.366e-04  alpha:  1.948e-02  linmin: -6.801e-04  cgtest: -1.938e-01  t[s]:    440.15
	FillingsUpdate:  mu: -0.081159942  nElectrons: 390.000000  magneticMoment: [ Abs: 5.25526  Tot: +0.00000 ]
LCAOMinimize: Iter:  28  F: -2520.3378132982320494  |grad|_K:  4.602e-04  alpha:  3.661e-02  linmin: -1.192e-02  cgtest: -6.292e-02  t[s]:    452.50
	FillingsUpdate:  mu: -0.084163962  nElectrons: 390.000000  magneticMoment: [ Abs: 5.57981  Tot: -0.00000 ]
LCAOMinimize: Iter:  29  F: -2520.3420932332551274  |grad|_K:  5.788e-04  alpha:  3.782e-02  linmin: -6.402e-04  cgtest: -1.296e-01  t[s]:    465.18
	FillingsUpdate:  mu: -0.085639063  nElectrons: 390.000000  magneticMoment: [ Abs: 6.34242  Tot: +0.00000 ]
LCAOMinimize: Iter:  30  F: -2520.3489649569255562  |grad|_K:  6.003e-04  alpha:  4.263e-02  linmin: -5.734e-03  cgtest:  3.464e-01  t[s]:    477.67
LCAOMinimize: None of the convergence criteria satisfied after 30 iterations.


---- Citations for features of the code used in this run ----

   Software package:
      R. Sundararaman, K. Letchworth-Weaver, K.A. Schwarz, D. Gunceler, Y. Ozhabes and T.A. Arias, 'JDFTx: software for joint density-functional theory', SoftwareX 6, 278 (2017)

   Simplified rotationally-invariant DFT+U:
      S. L. Dudarev et al., Phys. Rev. B 57, 1505 (1998)

   LibXC library of exchange-correlation functions:
      M. A. L. Marques, M. J. T. Oliveira and T. Burnus, Comput. Phys. Commun. 183, 2272 (2012)

   Hammer, Hansen, and Norskov exchange functional:
      B. Hammer, L. B. Hansen, and J. K. Nørskov, Phys. Rev. B 59, 7413 (1999)

   Perdew, Burke & Ernzerhof correlation functional:
      J. P. Perdew, K. Burke, and M. Ernzerhof, Phys. Rev. Lett. 77, 3865 (1996)

   Pseudopotentials:
      M Schlipf and F Gygi, Comput. Phys. Commun. 196, 36 (2015)

   Total energy minimization with Auxiliary Hamiltonian:
      C. Freysoldt, S. Boeck, and J. Neugebauer, Phys. Rev. B 79, 241103(R) (2009)

This list may not be complete. Please suggest additional citations or
report any other bugs at https://github.com/shankar1729/jdftx/issues

Initialization completed successfully at t[s]:    483.17


-------- Electronic minimization -----------
	FillingsUpdate:  mu: -0.085639061  nElectrons: 390.000000  magneticMoment: [ Abs: 6.34242  Tot: +0.00000 ]
ElecMinimize: Iter:   0  F: -2520.348964956933287  |grad|_K:  1.749e-03  alpha:  1.000e+00
	FillingsUpdate:  mu: +1.201611314  nElectrons: 390.000000  magneticMoment: [ Abs: 7.38562  Tot: +0.00000 ]
	SubspaceRotationAdjust: set factor to 0.997
ElecMinimize: Iter:   1  F: -2639.366494383158170  |grad|_K:  2.240e-03  alpha:  4.739e-01  linmin:  8.181e-02  t[s]:    566.36
ElecMinimize: 	Step increased F by 2.613166e+01, reducing alpha to 1.812785e-02.
	FillingsUpdate:  mu: +0.923772224  nElectrons: 390.000000  magneticMoment: [ Abs: 7.81773  Tot: -0.00000 ]
	SubspaceRotationAdjust: set factor to 1.09
ElecMinimize: Iter:   2  F: -2647.329107691894478  |grad|_K:  1.359e-03  alpha:  1.813e-02  linmin: -2.990e-03  t[s]:    674.10
ElecMinimize: 	Predicted alpha/alphaT>3.000000, increasing alphaT to 5.438354e-02.
	FillingsUpdate:  mu: +0.665496529  nElectrons: 390.000000  magneticMoment: [ Abs: 5.76376  Tot: +0.00000 ]
	SubspaceRotationAdjust: set factor to 0.744
ElecMinimize: Iter:   3  F: -2683.916529183316925  |grad|_K:  1.682e-03  alpha:  1.011e-01  linmin:  9.675e-05  t[s]:    775.71
	FillingsUpdate:  mu: +0.890930901  nElectrons: 390.000000  magneticMoment: [ Abs: 7.51885  Tot: +0.00000 ]
	SubspaceRotationAdjust: set factor to 0.78
ElecMinimize: Iter:   4  F: -2702.101425898717935  |grad|_K:  1.051e-03  alpha:  4.652e-02  linmin:  3.123e-04  t[s]:    847.33
	FillingsUpdate:  mu: +0.756592693  nElectrons: 390.000000  magneticMoment: [ Abs: 6.90151  Tot: -0.00000 ]
	SubspaceRotationAdjust: set factor to 0.59
ElecMinimize: Iter:   5  F: -2708.277106629757327  |grad|_K:  1.082e-03  alpha:  3.840e-02  linmin:  7.738e-05  t[s]:    919.50
	FillingsUpdate:  mu: +0.369118854  nElectrons: 390.000000  magneticMoment: [ Abs: 4.22339  Tot: +0.00000 ]
	SubspaceRotationAdjust: set factor to 0.736
ElecMinimize: Iter:   6  F: -2718.800528414767541  |grad|_K:  6.282e-04  alpha:  6.055e-02  linmin:  3.445e-04  t[s]:    992.74
	FillingsUpdate:  mu: +0.313864242  nElectrons: 390.000000  magneticMoment: [ Abs: 3.04762  Tot: +0.00000 ]
	SubspaceRotationAdjust: set factor to 0.674
ElecMinimize: Iter:   7  F: -2722.983380110359576  |grad|_K:  6.247e-04  alpha:  7.658e-02  linmin:  3.680e-04  t[s]:   1063.42
	FillingsUpdate:  mu: +0.078735485  nElectrons: 390.000000  magneticMoment: [ Abs: 2.64994  Tot: -0.00000 ]
	SubspaceRotationAdjust: set factor to 0.588
ElecMinimize: Iter:   8  F: -2725.456267321294945  |grad|_K:  4.432e-04  alpha:  4.426e-02  linmin: -4.690e-05  t[s]:   1134.58
	FillingsUpdate:  mu: +0.106678254  nElectrons: 390.000000  magneticMoment: [ Abs: 3.39325  Tot: -0.00000 ]
	SubspaceRotationAdjust: set factor to 0.683
ElecMinimize: Iter:   9  F: -2728.466900867725599  |grad|_K:  3.640e-04  alpha:  9.862e-02  linmin:  1.929e-04  t[s]:   1206.28
	FillingsUpdate:  mu: +0.295530707  nElectrons: 390.000000  magneticMoment: [ Abs: 3.87996  Tot: -0.00000 ]
	SubspaceRotationAdjust: set factor to 0.675
ElecMinimize: Iter:  10  F: -2729.939371985569778  |grad|_K:  3.799e-04  alpha:  7.722e-02  linmin: -2.466e-05  t[s]:   1279.07
	FillingsUpdate:  mu: +0.279573699  nElectrons: 390.000000  magneticMoment: [ Abs: 3.80543  Tot: +0.00000 ]
	SubspaceRotationAdjust: set factor to 0.535
ElecMinimize: Iter:  11  F: -2730.891812623621718  |grad|_K:  3.439e-04  alpha:  3.887e-02  linmin: -1.179e-04  t[s]:   1349.53
	FillingsUpdate:  mu: +0.146597465  nElectrons: 390.000000  magneticMoment: [ Abs: 3.42237  Tot: -0.00000 ]
	SubspaceRotationAdjust: set factor to 0.421
ElecMinimize: Iter:  12  F: -2732.057522558437086  |grad|_K:  2.599e-04  alpha:  5.908e-02  linmin:  2.916e-06  t[s]:   1421.42
	FillingsUpdate:  mu: +0.166813988  nElectrons: 390.000000  magneticMoment: [ Abs: 2.76373  Tot: +0.00000 ]
	SubspaceRotationAdjust: set factor to 0.385
ElecMinimize: Iter:  13  F: -2732.719210035992091  |grad|_K:  2.776e-04  alpha:  6.217e-02  linmin:  1.979e-05  t[s]:   1493.24
	FillingsUpdate:  mu: +0.115363862  nElectrons: 390.000000  magneticMoment: [ Abs: 2.76629  Tot: +0.00000 ]
	SubspaceRotationAdjust: set factor to 0.504
ElecMinimize: Iter:  14  F: -2733.371751181781747  |grad|_K:  2.057e-04  alpha:  5.447e-02  linmin: -5.830e-06  t[s]:   1564.31
	FillingsUpdate:  mu: +0.204021497  nElectrons: 390.000000  magneticMoment: [ Abs: 3.38234  Tot: -0.00000 ]
	SubspaceRotationAdjust: set factor to 0.414
ElecMinimize: Iter:  15  F: -2733.822552526861728  |grad|_K:  2.545e-04  alpha:  7.133e-02  linmin:  3.833e-04  t[s]:   1636.71
	FillingsUpdate:  mu: +0.133551986  nElectrons: 390.000000  magneticMoment: [ Abs: 3.69485  Tot: +0.00000 ]
	SubspaceRotationAdjust: set factor to 0.51
ElecMinimize: Iter:  16  F: -2734.047848738257926  |grad|_K:  2.071e-04  alpha:  3.147e-02  linmin:  5.541e-05  t[s]:   1709.45
	FillingsUpdate:  mu: +0.169293543  nElectrons: 390.000000  magneticMoment: [ Abs: 3.49956  Tot: +0.00000 ]
	SubspaceRotationAdjust: set factor to 0.491
ElecMinimize: Iter:  17  F: -2734.270843758557476  |grad|_K:  2.131e-04  alpha:  3.397e-02  linmin: -4.026e-05  t[s]:   1785.03
	FillingsUpdate:  mu: +0.132203669  nElectrons: 390.000000  magneticMoment: [ Abs: 3.48699  Tot: -0.00000 ]
	SubspaceRotationAdjust: set factor to 0.379
ElecMinimize: Iter:  18  F: -2734.544843632354059  |grad|_K:  2.484e-04  alpha:  5.426e-02  linmin:  1.151e-03  t[s]:   1859.91
	FillingsUpdate:  mu: +0.129471050  nElectrons: 390.000000  magneticMoment: [ Abs: 3.49183  Tot: -0.00000 ]
	SubspaceRotationAdjust: set factor to 0.326
ElecMinimize: Iter:  19  F: -2734.545806505178916  |grad|_K:  2.278e-04  alpha:  3.288e-04  linmin: -1.504e-04  t[s]:   1931.85
ElecMinimize: 	Predicted alpha/alphaT>3.000000, increasing alphaT to 9.865217e-04.
ElecMinimize: 	Predicted alpha/alphaT>3.000000, increasing alphaT to 2.959565e-03.
	FillingsUpdate:  mu: +0.062692452  nElectrons: 390.000000  magneticMoment: [ Abs: 3.70191  Tot: -0.00000 ]
	SubspaceRotationAdjust: set factor to 0.501
ElecMinimize: Iter:  20  F: -2734.609702875017774  |grad|_K:  1.711e-04  alpha:  7.357e-03  linmin:  1.551e-04  t[s]:   2063.93
	FillingsUpdate:  mu: +0.075064207  nElectrons: 390.000000  magneticMoment: [ Abs: 3.80277  Tot: +0.00000 ]
	SubspaceRotationAdjust: set factor to 0.624
ElecMinimize: Iter:  21  F: -2734.635262609753681  |grad|_K:  1.731e-04  alpha:  6.167e-03  linmin:  1.752e-05  t[s]:   2137.38
	FillingsUpdate:  mu: +0.101049387  nElectrons: 390.000000  magneticMoment: [ Abs: 3.85994  Tot: +0.00000 ]
	SubspaceRotationAdjust: set factor to 0.626
ElecMinimize: Iter:  22  F: -2734.661833143082276  |grad|_K:  1.809e-04  alpha:  5.655e-03  linmin:  2.780e-05  t[s]:   2208.70
	FillingsUpdate:  mu: +0.102458187  nElectrons: 390.000000  magneticMoment: [ Abs: 3.85898  Tot: +0.00000 ]
	SubspaceRotationAdjust: set factor to 0.585
ElecMinimize: Iter:  23  F: -2734.685110043920304  |grad|_K:  1.732e-04  alpha:  4.550e-03  linmin:  1.099e-05  t[s]:   2279.41
	FillingsUpdate:  mu: +0.088187942  nElectrons: 390.000000  magneticMoment: [ Abs: 3.82550  Tot: +0.00000 ]
	SubspaceRotationAdjust: set factor to 0.618
ElecMinimize: Iter:  24  F: -2734.704374508359706  |grad|_K:  1.485e-04  alpha:  4.089e-03  linmin:  2.059e-06  t[s]:   2352.36
	FillingsUpdate:  mu: +0.067014639  nElectrons: 390.000000  magneticMoment: [ Abs: 3.77922  Tot: +0.00000 ]
	SubspaceRotationAdjust: set factor to 0.804
ElecMinimize: Iter:  25  F: -2734.718661884663561  |grad|_K:  1.257e-04  alpha:  4.099e-03  linmin: -3.110e-07  t[s]:   2422.83
	FillingsUpdate:  mu: +0.063917206  nElectrons: 390.000000  magneticMoment: [ Abs: 3.72950  Tot: -0.00000 ]
	SubspaceRotationAdjust: set factor to 0.978
ElecMinimize: Iter:  26  F: -2734.729146880953522  |grad|_K:  1.177e-04  alpha:  4.196e-03  linmin:  7.048e-06  t[s]:   2495.01
	FillingsUpdate:  mu: +0.072797387  nElectrons: 390.000000  magneticMoment: [ Abs: 3.68350  Tot: +0.00000 ]
	SubspaceRotationAdjust: set factor to 0.807
ElecMinimize: Iter:  27  F: -2734.738662194124117  |grad|_K:  1.301e-04  alpha:  4.359e-03  linmin:  1.445e-05  t[s]:   2566.90
	FillingsUpdate:  mu: +0.084985354  nElectrons: 390.000000  magneticMoment: [ Abs: 3.65809  Tot: -0.00000 ]
	SubspaceRotationAdjust: set factor to 0.544
ElecMinimize: Iter:  28  F: -2734.750517245852279  |grad|_K:  1.384e-04  alpha:  4.458e-03  linmin:  1.663e-05  t[s]:   2640.00
	FillingsUpdate:  mu: +0.091876019  nElectrons: 390.000000  magneticMoment: [ Abs: 3.67967  Tot: +0.00000 ]
	SubspaceRotationAdjust: set factor to 0.358
ElecMinimize: Iter:  29  F: -2734.764074163415444  |grad|_K:  1.191e-04  alpha:  4.504e-03  linmin:  1.069e-05  t[s]:   2712.29
	FillingsUpdate:  mu: +0.085362981  nElectrons: 390.000000  magneticMoment: [ Abs: 3.73951  Tot: +0.00000 ]
	SubspaceRotationAdjust: set factor to 0.262
ElecMinimize: Iter:  30  F: -2734.775552541073466  |grad|_K:  8.971e-05  alpha:  5.139e-03  linmin:  1.482e-06  t[s]:   2784.46
	FillingsUpdate:  mu: +0.078635809  nElectrons: 390.000000  magneticMoment: [ Abs: 3.80914  Tot: +0.00000 ]
	SubspaceRotationAdjust: set factor to 0.225
ElecMinimize: Iter:  31  F: -2734.784212467615362  |grad|_K:  7.210e-05  alpha:  6.803e-03  linmin: -1.736e-05  t[s]:   2857.06
	FillingsUpdate:  mu: +0.074916426  nElectrons: 390.000000  magneticMoment: [ Abs: 3.87916  Tot: +0.00000 ]
	SubspaceRotationAdjust: set factor to 0.203
ElecMinimize: Iter:  32  F: -2734.791774250724302  |grad|_K:  6.703e-05  alpha:  9.149e-03  linmin: -3.044e-05  t[s]:   2930.23
	FillingsUpdate:  mu: +0.074645314  nElectrons: 390.000000  magneticMoment: [ Abs: 3.94939  Tot: -0.00000 ]
	SubspaceRotationAdjust: set factor to 0.176
ElecMinimize: Iter:  33  F: -2734.799730736113816  |grad|_K:  6.791e-05  alpha:  1.110e-02  linmin: -3.091e-05  t[s]:   3004.16
	FillingsUpdate:  mu: +0.076605249  nElectrons: 390.000000  magneticMoment: [ Abs: 4.01608  Tot: -0.00000 ]
	SubspaceRotationAdjust: set factor to 0.158
ElecMinimize: Iter:  34  F: -2734.808680404049028  |grad|_K:  6.855e-05  alpha:  1.216e-02  linmin: -2.709e-05  t[s]:   3077.44
	FillingsUpdate:  mu: +0.073144052  nElectrons: 390.000000  magneticMoment: [ Abs: 4.07266  Tot: -0.00000 ]
	SubspaceRotationAdjust: set factor to 0.162
ElecMinimize: Iter:  35  F: -2734.818188891059435  |grad|_K:  6.754e-05  alpha:  1.269e-02  linmin: -2.579e-05  t[s]:   3148.75
	FillingsUpdate:  mu: +0.066337082  nElectrons: 390.000000  magneticMoment: [ Abs: 4.11774  Tot: -0.00000 ]
	SubspaceRotationAdjust: set factor to 0.195
ElecMinimize: Iter:  36  F: -2734.827596278455076  |grad|_K:  6.721e-05  alpha:  1.292e-02  linmin: -2.644e-05  t[s]:   3219.05
	FillingsUpdate:  mu: +0.060825859  nElectrons: 390.000000  magneticMoment: [ Abs: 4.15698  Tot: +0.00000 ]
	SubspaceRotationAdjust: set factor to 0.246
ElecMinimize: Iter:  37  F: -2734.836753909200525  |grad|_K:  6.986e-05  alpha:  1.268e-02  linmin: -2.758e-05  t[s]:   3292.18
	FillingsUpdate:  mu: +0.062977350  nElectrons: 390.000000  magneticMoment: [ Abs: 4.20180  Tot: +0.00000 ]
	SubspaceRotationAdjust: set factor to 0.265
ElecMinimize: Iter:  38  F: -2734.846221874292496  |grad|_K:  7.716e-05  alpha:  1.212e-02  linmin: -2.950e-05  t[s]:   3362.37
	FillingsUpdate:  mu: +0.075485665  nElectrons: 390.000000  magneticMoment: [ Abs: 4.27021  Tot: +0.00000 ]
	SubspaceRotationAdjust: set factor to 0.246
ElecMinimize: Iter:  39  F: -2734.857199197044338  |grad|_K:  8.666e-05  alpha:  1.150e-02  linmin: -3.380e-05  t[s]:   3433.86
	FillingsUpdate:  mu: +0.090810013  nElectrons: 390.000000  magneticMoment: [ Abs: 4.37609  Tot: -0.00000 ]
	SubspaceRotationAdjust: set factor to 0.228
ElecMinimize: Iter:  40  F: -2734.870321264176255  |grad|_K:  9.167e-05  alpha:  1.088e-02  linmin: -4.098e-05  t[s]:   3505.03
	FillingsUpdate:  mu: +0.096911584  nElectrons: 390.000000  magneticMoment: [ Abs: 4.51336  Tot: +0.00000 ]
	SubspaceRotationAdjust: set factor to 0.244
ElecMinimize: Iter:  41  F: -2734.884687637679690  |grad|_K:  9.082e-05  alpha:  1.060e-02  linmin: -4.673e-05  t[s]:   3577.37
	FillingsUpdate:  mu: +0.090322023  nElectrons: 390.000000  magneticMoment: [ Abs: 4.66218  Tot: -0.00000 ]
	SubspaceRotationAdjust: set factor to 0.333
ElecMinimize: Iter:  42  F: -2734.898813482098376  |grad|_K:  8.828e-05  alpha:  1.058e-02  linmin: -4.363e-05  t[s]:   3649.47
	FillingsUpdate:  mu: +0.090948904  nElectrons: 390.000000  magneticMoment: [ Abs: 4.80662  Tot: +0.00000 ]
	SubspaceRotationAdjust: set factor to 0.428
ElecMinimize: Iter:  43  F: -2734.911804379556997  |grad|_K:  8.858e-05  alpha:  1.030e-02  linmin: -3.572e-05  t[s]:   3722.79
	FillingsUpdate:  mu: +0.098853048  nElectrons: 390.000000  magneticMoment: [ Abs: 4.94513  Tot: +0.00000 ]
	SubspaceRotationAdjust: set factor to 0.537
ElecMinimize: Iter:  44  F: -2734.924262824340985  |grad|_K:  9.371e-05  alpha:  9.847e-03  linmin: -3.341e-05  t[s]:   3794.23
	FillingsUpdate:  mu: +0.111933650  nElectrons: 390.000000  magneticMoment: [ Abs: 5.09072  Tot: +0.00000 ]
	SubspaceRotationAdjust: set factor to 0.556
ElecMinimize: Iter:  45  F: -2734.938658860137821  |grad|_K:  1.059e-04  alpha:  1.016e-02  linmin: -4.211e-05  t[s]:   3865.88
	FillingsUpdate:  mu: +0.114615212  nElectrons: 390.000000  magneticMoment: [ Abs: 5.23033  Tot: +0.00000 ]
	SubspaceRotationAdjust: set factor to 0.613
ElecMinimize: Iter:  46  F: -2734.955473131587496  |grad|_K:  1.049e-04  alpha:  9.260e-03  linmin: -3.346e-05  t[s]:   3937.70
	FillingsUpdate:  mu: +0.112503883  nElectrons: 390.000000  magneticMoment: [ Abs: 5.32450  Tot: +0.00000 ]
	SubspaceRotationAdjust: set factor to 0.851
ElecMinimize: Iter:  47  F: -2734.969752727358809  |grad|_K:  9.646e-05  alpha:  8.015e-03  linmin: -1.073e-05  t[s]:   4009.40
	FillingsUpdate:  mu: +0.113528908  nElectrons: 390.000000  magneticMoment: [ Abs: 5.39733  Tot: -0.00000 ]
	SubspaceRotationAdjust: set factor to 0.975
ElecMinimize: Iter:  48  F: -2734.981197097180939  |grad|_K:  1.048e-04  alpha:  7.717e-03  linmin:  2.465e-06  t[s]:   4081.56
	FillingsUpdate:  mu: +0.114609310  nElectrons: 390.000000  magneticMoment: [ Abs: 5.52019  Tot: +0.00000 ]
	SubspaceRotationAdjust: set factor to 0.801
ElecMinimize: Iter:  49  F: -2734.994457894576044  |grad|_K:  1.253e-04  alpha:  7.640e-03  linmin: -1.293e-05  t[s]:   4153.93
	FillingsUpdate:  mu: +0.104691977  nElectrons: 390.000000  magneticMoment: [ Abs: 5.74584  Tot: -0.00000 ]
	SubspaceRotationAdjust: set factor to 0.765
ElecMinimize: Iter:  50  F: -2735.010568279321433  |grad|_K:  1.141e-04  alpha:  6.453e-03  linmin: -2.609e-05  t[s]:   4226.94
	FillingsUpdate:  mu: +0.095736678  nElectrons: 390.000000  magneticMoment: [ Abs: 5.98981  Tot: +0.00000 ]
	SubspaceRotationAdjust: set factor to 1.07
ElecMinimize: Iter:  51  F: -2735.023651443051222  |grad|_K:  9.899e-05  alpha:  6.258e-03  linmin: -2.573e-05  t[s]:   4298.97
	FillingsUpdate:  mu: +0.100929255  nElectrons: 390.000000  magneticMoment: [ Abs: 6.24762  Tot: +0.00000 ]
	SubspaceRotationAdjust: set factor to 1.12
ElecMinimize: Iter:  52  F: -2735.035663838482378  |grad|_K:  1.104e-04  alpha:  7.593e-03  linmin: -5.133e-05  t[s]:   4372.14
	FillingsUpdate:  mu: +0.107603741  nElectrons: 390.000000  magneticMoment: [ Abs: 6.59194  Tot: +0.00000 ]
	SubspaceRotationAdjust: set factor to 1.06
ElecMinimize: Iter:  53  F: -2735.052185786584232  |grad|_K:  1.160e-04  alpha:  8.304e-03  linmin: -6.313e-05  t[s]:   4445.93
	FillingsUpdate:  mu: +0.099059191  nElectrons: 390.000000  magneticMoment: [ Abs: 6.87628  Tot: -0.00000 ]
	SubspaceRotationAdjust: set factor to 1.54
ElecMinimize: Iter:  54  F: -2735.067320302841381  |grad|_K:  9.536e-05  alpha:  6.911e-03  linmin: -3.000e-05  t[s]:   4517.52
	FillingsUpdate:  mu: +0.104683546  nElectrons: 390.000000  magneticMoment: [ Abs: 7.10273  Tot: +0.00000 ]
	SubspaceRotationAdjust: set factor to 1.72
ElecMinimize: Iter:  55  F: -2735.079806529151938  |grad|_K:  1.079e-04  alpha:  8.499e-03  linmin: -4.842e-05  t[s]:   4589.54
	FillingsUpdate:  mu: +0.109009224  nElectrons: 390.000000  magneticMoment: [ Abs: 7.51944  Tot: +0.00000 ]
	SubspaceRotationAdjust: set factor to 1.54
ElecMinimize: Iter:  56  F: -2735.100600804135411  |grad|_K:  1.223e-04  alpha:  1.090e-02  linmin: -7.668e-05  t[s]:   4660.90
	FillingsUpdate:  mu: +0.103778156  nElectrons: 390.000000  magneticMoment: [ Abs: 7.92704  Tot: -0.00000 ]
	SubspaceRotationAdjust: set factor to 2.01
ElecMinimize: Iter:  57  F: -2735.118532927066553  |grad|_K:  1.024e-04  alpha:  7.395e-03  linmin: -1.467e-05  t[s]:   4731.87
	FillingsUpdate:  mu: +0.098385896  nElectrons: 390.000000  magneticMoment: [ Abs: 8.40302  Tot: -0.00000 ]
	SubspaceRotationAdjust: set factor to 1.77
ElecMinimize: Iter:  58  F: -2735.139226564353066  |grad|_K:  1.256e-04  alpha:  1.226e-02  linmin: -5.291e-05  t[s]:   4803.27
	FillingsUpdate:  mu: +0.081858189  nElectrons: 390.000000  magneticMoment: [ Abs: 8.78677  Tot: -0.00000 ]
	SubspaceRotationAdjust: set factor to 2.29
ElecMinimize: Iter:  59  F: -2735.157647004410137  |grad|_K:  9.669e-05  alpha:  7.165e-03  linmin: -1.011e-05  t[s]:   4876.58
	FillingsUpdate:  mu: +0.078283832  nElectrons: 390.000000  magneticMoment: [ Abs: 9.18457  Tot: +0.00000 ]
	SubspaceRotationAdjust: set factor to 1.93
ElecMinimize: Iter:  60  F: -2735.175196243028040  |grad|_K:  1.290e-04  alpha:  1.176e-02  linmin: -2.023e-05  t[s]:   4948.16
	FillingsUpdate:  mu: +0.070139182  nElectrons: 390.000000  magneticMoment: [ Abs: 9.79214  Tot: -0.00000 ]
	SubspaceRotationAdjust: set factor to 2.68
ElecMinimize: Iter:  61  F: -2735.198006216226986  |grad|_K:  1.014e-04  alpha:  8.678e-03  linmin: -2.881e-05  t[s]:   5019.49
	FillingsUpdate:  mu: +0.079945041  nElectrons: 390.000000  magneticMoment: [ Abs: 10.27218  Tot: -0.00000 ]
	SubspaceRotationAdjust: set factor to 2.82
ElecMinimize: Iter:  62  F: -2735.213026650623306  |grad|_K:  1.092e-04  alpha:  9.084e-03  linmin:  1.966e-05  t[s]:   5092.39
	FillingsUpdate:  mu: +0.080906620  nElectrons: 390.000000  magneticMoment: [ Abs: 10.83434  Tot: -0.00000 ]
	SubspaceRotationAdjust: set factor to 3.81
ElecMinimize: Iter:  63  F: -2735.230051202947834  |grad|_K:  9.634e-05  alpha:  9.127e-03  linmin: -6.306e-05  t[s]:   5164.64
	FillingsUpdate:  mu: +0.081334821  nElectrons: 390.000000  magneticMoment: [ Abs: 11.30066  Tot: +0.00000 ]
	SubspaceRotationAdjust: set factor to 3.27
ElecMinimize: Iter:  64  F: -2735.244636352749694  |grad|_K:  1.133e-04  alpha:  9.567e-03  linmin: -4.937e-05  t[s]:   5235.97
	FillingsUpdate:  mu: +0.069600337  nElectrons: 390.000000  magneticMoment: [ Abs: 11.92424  Tot: -0.00000 ]
	SubspaceRotationAdjust: set factor to 4.33
ElecMinimize: Iter:  65  F: -2735.261661073465802  |grad|_K:  8.574e-05  alpha:  8.232e-03  linmin: -3.707e-05  t[s]:   5306.99
	FillingsUpdate:  mu: +0.066616443  nElectrons: 390.000000  magneticMoment: [ Abs: 12.73297  Tot: +0.00000 ]
	SubspaceRotationAdjust: set factor to 3.36
ElecMinimize: Iter:  66  F: -2735.281595481215390  |grad|_K:  1.100e-04  alpha:  1.642e-02  linmin: -8.873e-05  t[s]:   5378.78
	FillingsUpdate:  mu: +0.061650075  nElectrons: 390.000000  magneticMoment: [ Abs: 13.32245  Tot: +0.00000 ]
	SubspaceRotationAdjust: set factor to 3.1
ElecMinimize: Iter:  67  F: -2735.295417897100833  |grad|_K:  9.483e-05  alpha:  6.818e-03  linmin: -1.407e-05  t[s]:   5451.48
	FillingsUpdate:  mu: +0.065467204  nElectrons: 390.000000  magneticMoment: [ Abs: 14.32882  Tot: -0.00000 ]
	SubspaceRotationAdjust: set factor to 3.77
ElecMinimize: Iter:  68  F: -2735.315224668154315  |grad|_K:  8.238e-05  alpha:  1.361e-02  linmin: -5.643e-05  t[s]:   5521.69
	FillingsUpdate:  mu: +0.073533177  nElectrons: 390.000000  magneticMoment: [ Abs: 15.12676  Tot: -0.00000 ]
	SubspaceRotationAdjust: set factor to 2.87
ElecMinimize: Iter:  69  F: -2735.329153936706462  |grad|_K:  1.079e-04  alpha:  1.262e-02  linmin: -1.654e-05  t[s]:   5593.75
	FillingsUpdate:  mu: +0.069648285  nElectrons: 390.000000  magneticMoment: [ Abs: 16.09641  Tot: -0.00000 ]
	SubspaceRotationAdjust: set factor to 3.55
ElecMinimize: Iter:  70  F: -2735.345988035685878  |grad|_K:  7.662e-05  alpha:  8.877e-03  linmin:  6.322e-06  t[s]:   5666.83
	FillingsUpdate:  mu: +0.065934554  nElectrons: 390.000000  magneticMoment: [ Abs: 17.15930  Tot: -0.00000 ]
	SubspaceRotationAdjust: set factor to 3.13
ElecMinimize: Iter:  71  F: -2735.363265353143561  |grad|_K:  1.013e-04  alpha:  1.876e-02  linmin:  1.266e-05  t[s]:   5738.23
	FillingsUpdate:  mu: +0.073336803  nElectrons: 390.000000  magneticMoment: [ Abs: 17.73244  Tot: +0.00000 ]
	SubspaceRotationAdjust: set factor to 2.95
ElecMinimize: Iter:  72  F: -2735.373083444333133  |grad|_K:  7.916e-05  alpha:  5.589e-03  linmin: -1.102e-04  t[s]:   5810.43
ElecMinimize: 	Predicted alpha/alphaT>3.000000, increasing alphaT to 1.676645e-02.
	FillingsUpdate:  mu: +0.082244932  nElectrons: 390.000000  magneticMoment: [ Abs: 18.77269  Tot: +0.00000 ]
	SubspaceRotationAdjust: set factor to 2.24
ElecMinimize: Iter:  73  F: -2735.391051319519647  |grad|_K:  1.166e-04  alpha:  1.683e-02  linmin:  5.140e-05  t[s]:   5914.98
	FillingsUpdate:  mu: +0.075791333  nElectrons: 390.000000  magneticMoment: [ Abs: 19.38120  Tot: +0.00000 ]
	SubspaceRotationAdjust: set factor to 3.29
ElecMinimize: Iter:  74  F: -2735.402757303815179  |grad|_K:  7.590e-05  alpha:  5.092e-03  linmin: -1.302e-04  t[s]:   5987.15
	FillingsUpdate:  mu: +0.077265218  nElectrons: 390.000000  magneticMoment: [ Abs: 19.84753  Tot: -0.00000 ]
	SubspaceRotationAdjust: set factor to 2.31
ElecMinimize: Iter:  75  F: -2735.412120461235645  |grad|_K:  1.280e-04  alpha:  9.797e-03  linmin:  1.350e-04  t[s]:   6058.14
	FillingsUpdate:  mu: +0.079159023  nElectrons: 390.000000  magneticMoment: [ Abs: 20.61429  Tot: -0.00000 ]
	SubspaceRotationAdjust: set factor to 1.7
ElecMinimize: Iter:  76  F: -2735.425821366065975  |grad|_K:  1.201e-04  alpha:  5.857e-03  linmin: -3.492e-06  t[s]:   6131.86
	FillingsUpdate:  mu: +0.081210148  nElectrons: 390.000000  magneticMoment: [ Abs: 21.01637  Tot: -0.00000 ]
	SubspaceRotationAdjust: set factor to 2.36
ElecMinimize: Iter:  77  F: -2735.434085566244903  |grad|_K:  7.445e-05  alpha:  3.619e-03  linmin:  3.818e-06  t[s]:   6204.29
	FillingsUpdate:  mu: +0.082706187  nElectrons: 390.000000  magneticMoment: [ Abs: 21.34212  Tot: -0.00000 ]
	SubspaceRotationAdjust: set factor to 2.1
ElecMinimize: Iter:  78  F: -2735.441243743380710  |grad|_K:  1.005e-04  alpha:  7.882e-03  linmin: -1.179e-04  t[s]:   6277.72
	FillingsUpdate:  mu: +0.078214412  nElectrons: 390.000000  magneticMoment: [ Abs: 22.02406  Tot: -0.00000 ]
	SubspaceRotationAdjust: set factor to 2.19
ElecMinimize: Iter:  79  F: -2735.458826697179575  |grad|_K:  8.728e-05  alpha:  1.038e-02  linmin:  9.151e-05  t[s]:   6348.10
	FillingsUpdate:  mu: +0.081407196  nElectrons: 390.000000  magneticMoment: [ Abs: 22.30204  Tot: -0.00000 ]
	SubspaceRotationAdjust: set factor to 2.69
ElecMinimize: Iter:  80  F: -2735.465932702446025  |grad|_K:  7.493e-05  alpha:  6.452e-03  linmin:  7.325e-07  t[s]:   6419.32
	FillingsUpdate:  mu: +0.079018864  nElectrons: 390.000000  magneticMoment: [ Abs: 22.68701  Tot: +0.00000 ]
	SubspaceRotationAdjust: set factor to 2.13
ElecMinimize: Iter:  81  F: -2735.477021491196865  |grad|_K:  9.505e-05  alpha:  1.234e-02  linmin: -5.253e-05  t[s]:   6493.35
	FillingsUpdate:  mu: +0.081190446  nElectrons: 390.000000  magneticMoment: [ Abs: 23.06415  Tot: +0.00000 ]
	SubspaceRotationAdjust: set factor to 2.39
ElecMinimize: Iter:  82  F: -2735.488162234092215  |grad|_K:  7.361e-05  alpha:  7.469e-03  linmin: -3.117e-05  t[s]:   6566.08
	FillingsUpdate:  mu: +0.079861549  nElectrons: 390.000000  magneticMoment: [ Abs: 23.36110  Tot: -0.00000 ]
	SubspaceRotationAdjust: set factor to 1.8
ElecMinimize: Iter:  83  F: -2735.496752485230900  |grad|_K:  9.115e-05  alpha:  1.020e-02  linmin:  2.217e-04  t[s]:   6639.19
	FillingsUpdate:  mu: +0.087421157  nElectrons: 390.000000  magneticMoment: [ Abs: 23.63931  Tot: -0.00000 ]
	SubspaceRotationAdjust: set factor to 1.27
ElecMinimize: Iter:  84  F: -2735.505459844017878  |grad|_K:  9.664e-05  alpha:  7.240e-03  linmin: -3.999e-06  t[s]:   6712.18
	FillingsUpdate:  mu: +0.077785959  nElectrons: 390.000000  magneticMoment: [ Abs: 23.89858  Tot: -0.00000 ]
	SubspaceRotationAdjust: set factor to 1.53
ElecMinimize: Iter:  85  F: -2735.515640562524823  |grad|_K:  6.921e-05  alpha:  6.878e-03  linmin: -7.507e-06  t[s]:   6786.96
	FillingsUpdate:  mu: +0.082941220  nElectrons: 390.000000  magneticMoment: [ Abs: 24.07298  Tot: +0.00000 ]
	SubspaceRotationAdjust: set factor to 1.47
ElecMinimize: Iter:  86  F: -2735.523112386457342  |grad|_K:  7.787e-05  alpha:  9.750e-03  linmin: -7.212e-05  t[s]:   6857.46
	FillingsUpdate:  mu: +0.087643345  nElectrons: 390.000000  magneticMoment: [ Abs: 24.39338  Tot: -0.00000 ]
	SubspaceRotationAdjust: set factor to 1.43
ElecMinimize: Iter:  87  F: -2735.537334809747335  |grad|_K:  8.011e-05  alpha:  1.429e-02  linmin: -4.552e-05  t[s]:   6929.61
	FillingsUpdate:  mu: +0.083542391  nElectrons: 390.000000  magneticMoment: [ Abs: 24.61396  Tot: -0.00000 ]
	SubspaceRotationAdjust: set factor to 2.05
ElecMinimize: Iter:  88  F: -2735.547334782520011  |grad|_K:  7.130e-05  alpha:  9.873e-03  linmin: -1.886e-05  t[s]:   7000.36
	FillingsUpdate:  mu: +0.083212537  nElectrons: 390.000000  magneticMoment: [ Abs: 24.83687  Tot: -0.00000 ]
	SubspaceRotationAdjust: set factor to 2.65
ElecMinimize: Iter:  89  F: -2735.558740386047248  |grad|_K:  7.514e-05  alpha:  1.373e-02  linmin: -1.181e-04  t[s]:   7071.79
	FillingsUpdate:  mu: +0.083850990  nElectrons: 390.000000  magneticMoment: [ Abs: 25.06004  Tot: -0.00000 ]
	SubspaceRotationAdjust: set factor to 3.41
ElecMinimize: Iter:  90  F: -2735.572264150986484  |grad|_K:  7.674e-05  alpha:  1.417e-02  linmin: -3.447e-05  t[s]:   7147.55
	FillingsUpdate:  mu: +0.085749651  nElectrons: 390.000000  magneticMoment: [ Abs: 25.22605  Tot: +0.00000 ]
	SubspaceRotationAdjust: set factor to 4.3
ElecMinimize: Iter:  91  F: -2735.584083033196293  |grad|_K:  7.759e-05  alpha:  1.246e-02  linmin: -2.808e-05  t[s]:   7221.59
	FillingsUpdate:  mu: +0.087330063  nElectrons: 390.000000  magneticMoment: [ Abs: 25.33467  Tot: +0.00000 ]
	SubspaceRotationAdjust: set factor to 5.34
ElecMinimize: Iter:  92  F: -2735.595128784885674  |grad|_K:  7.757e-05  alpha:  1.139e-02  linmin: -1.365e-05  t[s]:   7293.67
	FillingsUpdate:  mu: +0.090799701  nElectrons: 390.000000  magneticMoment: [ Abs: 25.36006  Tot: -0.00000 ]
	SubspaceRotationAdjust: set factor to 4.73
ElecMinimize: Iter:  93  F: -2735.603646459356241  |grad|_K:  8.989e-05  alpha:  9.177e-03  linmin: -2.476e-05  t[s]:   7363.88
	FillingsUpdate:  mu: +0.090003390  nElectrons: 390.000000  magneticMoment: [ Abs: 25.37560  Tot: +0.00000 ]
	SubspaceRotationAdjust: set factor to 6.95
ElecMinimize: Iter:  94  F: -2735.613794666609920  |grad|_K:  7.218e-05  alpha:  7.691e-03  linmin:  3.541e-05  t[s]:   7436.13
	FillingsUpdate:  mu: +0.103383179  nElectrons: 390.000000  magneticMoment: [ Abs: 25.36304  Tot: -0.00000 ]
	SubspaceRotationAdjust: set factor to 8.59
	SubspaceRotationAdjust: resetting CG because factor has changed by 8.5867
ElecMinimize: 	State modified externally: resetting search direction.
ElecMinimize: Iter:  95  F: -2735.621635731850347  |grad|_K:  7.792e-05  alpha:  9.622e-03
ElecMinimize: 	Predicted alpha/alphaT>3.000000, increasing alphaT to 2.886743e-02.
ElecMinimize: 	Predicted alpha/alphaT>3.000000, increasing alphaT to 8.660230e-02.
	FillingsUpdate:  mu: +0.140056945  nElectrons: 390.000000  magneticMoment: [ Abs: 24.91307  Tot: -0.00000 ]
	SubspaceRotationAdjust: set factor to 4.77
ElecMinimize: Iter:  96  F: -2735.705516081274254  |grad|_K:  1.270e-04  alpha:  8.723e-02  linmin: -4.829e-04  t[s]:   7656.63
	FillingsUpdate:  mu: +0.134816712  nElectrons: 390.000000  magneticMoment: [ Abs: 24.89745  Tot: +0.00000 ]
	SubspaceRotationAdjust: set factor to 2.91
ElecMinimize: Iter:  97  F: -2735.712712446576461  |grad|_K:  9.178e-05  alpha:  1.365e-03  linmin: -4.046e-03  t[s]:   7730.33
ElecMinimize: 	Wrong curvature in test step, increasing alphaT to 4.096174e-03.
	FillingsUpdate:  mu: +0.125732644  nElectrons: 390.000000  magneticMoment: [ Abs: 24.89355  Tot: +0.00000 ]
	SubspaceRotationAdjust: set factor to 1.83
ElecMinimize: Iter:  98  F: -2735.721038776000114  |grad|_K:  8.399e-05  alpha: -5.175e-03  linmin: -7.494e-03  t[s]:   7775.98
	FillingsUpdate:  mu: +0.101751803  nElectrons: 390.000000  magneticMoment: [ Abs: 24.84625  Tot: +0.00000 ]
	SubspaceRotationAdjust: set factor to 1.03
	SubspaceRotationAdjust: resetting CG because factor has changed by 0.119487
ElecMinimize: 	State modified externally: resetting search direction.
ElecMinimize: Iter:  99  F: -2735.724099285938337  |grad|_K:  4.293e-05  alpha:  1.347e-02
ElecMinimize: 	Predicted alpha/alphaT>3.000000, increasing alphaT to 4.041718e-02.
ElecMinimize: 	Predicted alpha/alphaT>3.000000, increasing alphaT to 1.212515e-01.
	FillingsUpdate:  mu: +0.140275140  nElectrons: 390.000000  magneticMoment: [ Abs: 24.75267  Tot: -0.00000 ]
	SubspaceRotationAdjust: set factor to 0.581
ElecMinimize: Iter: 100  F: -2735.755332474532679  |grad|_K:  7.283e-05  alpha:  1.793e-01  linmin:  1.921e-02  t[s]:   7996.53
ElecMinimize: 	Bad step direction: g.d > 0.
ElecMinimize: 	Undoing step.
ElecMinimize: 	Step failed: resetting search direction.
	FillingsUpdate:  mu: +0.140275140  nElectrons: 390.000000  magneticMoment: [ Abs: 24.75267  Tot: -0.00000 ]
	SubspaceRotationAdjust: set factor to 0.359
ElecMinimize: Iter: 101  F: -2735.755332474532224  |grad|_K:  5.723e-05  alpha:  0.000e+00
	FillingsUpdate:  mu: +0.089496008  nElectrons: 390.000000  magneticMoment: [ Abs: 24.76300  Tot: +0.00000 ]
	SubspaceRotationAdjust: set factor to 0.463
ElecMinimize: Iter: 102  F: -2735.802608402697842  |grad|_K:  1.707e-05  alpha:  1.150e-01  linmin: -5.447e-03  t[s]:   8110.27
ElecMinimize: 	Predicted alpha/alphaT>3.000000, increasing alphaT to 3.448544e-01.
	FillingsUpdate:  mu: +0.097842255  nElectrons: 390.000000  magneticMoment: [ Abs: 24.62127  Tot: +0.00000 ]
	SubspaceRotationAdjust: set factor to 0.324
ElecMinimize: Iter: 103  F: -2735.827406339851677  |grad|_K:  2.028e-05  alpha:  4.749e-01  linmin: -5.673e-03  t[s]:   8214.64
	FillingsUpdate:  mu: +0.088413466  nElectrons: 390.000000  magneticMoment: [ Abs: 24.39673  Tot: -0.00000 ]
	SubspaceRotationAdjust: set factor to 0.254
ElecMinimize: Iter: 104  F: -2735.844152231746648  |grad|_K:  1.266e-05  alpha:  2.339e-01  linmin:  3.303e-03  t[s]:   8288.29
	FillingsUpdate:  mu: +0.084503847  nElectrons: 390.000000  magneticMoment: [ Abs: 24.17374  Tot: -0.00000 ]
	SubspaceRotationAdjust: set factor to 0.31
ElecMinimize: Iter: 105  F: -2735.852823834365154  |grad|_K:  1.032e-05  alpha:  3.902e-01  linmin:  1.368e-04  t[s]:   8361.30
	FillingsUpdate:  mu: +0.091677280  nElectrons: 390.000000  magneticMoment: [ Abs: 23.98203  Tot: +0.00000 ]
	SubspaceRotationAdjust: set factor to 0.327
ElecMinimize: Iter: 106  F: -2735.859364568870660  |grad|_K:  7.228e-06  alpha:  3.901e-01  linmin:  2.829e-04  t[s]:   8436.42
	FillingsUpdate:  mu: +0.089856314  nElectrons: 390.000000  magneticMoment: [ Abs: 23.88550  Tot: +0.00000 ]
	SubspaceRotationAdjust: set factor to 0.358
ElecMinimize: Iter: 107  F: -2735.861808524606204  |grad|_K:  4.368e-06  alpha:  2.994e-01  linmin:  3.163e-05  t[s]:   8511.40
	FillingsUpdate:  mu: +0.087581308  nElectrons: 390.000000  magneticMoment: [ Abs: 23.83159  Tot: +0.00000 ]
	SubspaceRotationAdjust: set factor to 0.395
ElecMinimize: Iter: 108  F: -2735.862856361770810  |grad|_K:  3.576e-06  alpha:  3.477e-01  linmin:  8.361e-06  t[s]:   8583.97
	FillingsUpdate:  mu: +0.088457005  nElectrons: 390.000000  magneticMoment: [ Abs: 23.77535  Tot: +0.00000 ]
	SubspaceRotationAdjust: set factor to 0.423
ElecMinimize: Iter: 109  F: -2735.863779241483371  |grad|_K:  2.988e-06  alpha:  4.566e-01  linmin:  1.767e-05  t[s]:   8658.10
	FillingsUpdate:  mu: +0.088789468  nElectrons: 390.000000  magneticMoment: [ Abs: 23.73917  Tot: -0.00000 ]
	SubspaceRotationAdjust: set factor to 0.475
ElecMinimize: Iter: 110  F: -2735.864215332419917  |grad|_K:  2.136e-06  alpha:  3.095e-01  linmin:  7.301e-06  t[s]:   8729.66
	FillingsUpdate:  mu: +0.088649920  nElectrons: 390.000000  magneticMoment: [ Abs: 23.70845  Tot: +0.00000 ]
	SubspaceRotationAdjust: set factor to 0.543
ElecMinimize: Iter: 111  F: -2735.864449921546111  |grad|_K:  1.627e-06  alpha:  3.253e-01  linmin:  5.382e-06  t[s]:   8804.45
	FillingsUpdate:  mu: +0.088024728  nElectrons: 390.000000  magneticMoment: [ Abs: 23.67961  Tot: -0.00000 ]
	SubspaceRotationAdjust: set factor to 0.614
ElecMinimize: Iter: 112  F: -2735.864595450835168  |grad|_K:  1.269e-06  alpha:  3.482e-01  linmin:  2.874e-05  t[s]:   8876.80
	FillingsUpdate:  mu: +0.088694216  nElectrons: 390.000000  magneticMoment: [ Abs: 23.65536  Tot: -0.00000 ]
	SubspaceRotationAdjust: set factor to 0.718
ElecMinimize: Iter: 113  F: -2735.864681822622515  |grad|_K:  1.019e-06  alpha:  3.407e-01  linmin: -8.643e-08  t[s]:   8947.46
	FillingsUpdate:  mu: +0.088609467  nElectrons: 390.000000  magneticMoment: [ Abs: 23.63192  Tot: +0.00000 ]
	SubspaceRotationAdjust: set factor to 0.846
ElecMinimize: Iter: 114  F: -2735.864735963271869  |grad|_K:  8.057e-07  alpha:  3.299e-01  linmin: -3.858e-06  t[s]:   9020.35
	FillingsUpdate:  mu: +0.088775927  nElectrons: 390.000000  magneticMoment: [ Abs: 23.61176  Tot: +0.00000 ]
	SubspaceRotationAdjust: set factor to 0.986
ElecMinimize: Iter: 115  F: -2735.864768249519329  |grad|_K:  6.408e-07  alpha:  3.142e-01  linmin:  2.009e-06  t[s]:   9089.92
	FillingsUpdate:  mu: +0.088943124  nElectrons: 390.000000  magneticMoment: [ Abs: 23.59805  Tot: +0.00000 ]
	SubspaceRotationAdjust: set factor to 1.1
ElecMinimize: Iter: 116  F: -2735.864787902086846  |grad|_K:  4.985e-07  alpha:  3.027e-01  linmin: -5.217e-07  t[s]:   9161.96
	FillingsUpdate:  mu: +0.088763958  nElectrons: 390.000000  magneticMoment: [ Abs: 23.59152  Tot: +0.00000 ]
	SubspaceRotationAdjust: set factor to 1.19
ElecMinimize: Iter: 117  F: -2735.864800797434327  |grad|_K:  4.293e-07  alpha:  3.280e-01  linmin:  4.192e-06  t[s]:   9237.08
	FillingsUpdate:  mu: +0.089269004  nElectrons: 390.000000  magneticMoment: [ Abs: 23.59184  Tot: +0.00000 ]
	SubspaceRotationAdjust: set factor to 1.07
ElecMinimize: Iter: 118  F: -2735.864808525705939  |grad|_K:  4.131e-07  alpha:  2.652e-01  linmin:  4.151e-06  t[s]:   9310.32
	FillingsUpdate:  mu: +0.088608518  nElectrons: 390.000000  magneticMoment: [ Abs: 23.59258  Tot: +0.00000 ]
	SubspaceRotationAdjust: set factor to 0.835
ElecMinimize: Iter: 119  F: -2735.864811995528271  |grad|_K:  3.509e-07  alpha:  1.293e-01  linmin:  1.013e-05  t[s]:   9383.45
	FillingsUpdate:  mu: +0.088950043  nElectrons: 390.000000  magneticMoment: [ Abs: 23.59463  Tot: -0.00000 ]
	SubspaceRotationAdjust: set factor to 0.865
ElecMinimize: Iter: 120  F: -2735.864815940266908  |grad|_K:  2.616e-07  alpha:  2.029e-01  linmin: -9.474e-06  t[s]:   9456.44
	FillingsUpdate:  mu: +0.089026283  nElectrons: 390.000000  magneticMoment: [ Abs: 23.59801  Tot: -0.00000 ]
	SubspaceRotationAdjust: set factor to 0.944
ElecMinimize: Iter: 121  F: -2735.864819261096727  |grad|_K:  2.497e-07  alpha:  3.062e-01  linmin:  6.973e-06  t[s]:   9528.40
	FillingsUpdate:  mu: +0.088656568  nElectrons: 390.000000  magneticMoment: [ Abs: 23.60158  Tot: -0.00000 ]
	SubspaceRotationAdjust: set factor to 0.841
ElecMinimize: Iter: 122  F: -2735.864821838231819  |grad|_K:  2.798e-07  alpha:  2.620e-01  linmin: -3.066e-06  t[s]:   9599.91
	FillingsUpdate:  mu: +0.089091353  nElectrons: 390.000000  magneticMoment: [ Abs: 23.60520  Tot: -0.00000 ]
	SubspaceRotationAdjust: set factor to 0.722
ElecMinimize: Iter: 123  F: -2735.864824010438497  |grad|_K:  2.430e-07  alpha:  1.752e-01  linmin: -2.505e-06  t[s]:   9669.42
	FillingsUpdate:  mu: +0.088947064  nElectrons: 390.000000  magneticMoment: [ Abs: 23.61059  Tot: -0.00000 ]
	SubspaceRotationAdjust: set factor to 0.859
ElecMinimize: Iter: 124  F: -2735.864827230753235  |grad|_K:  2.439e-07  alpha:  3.455e-01  linmin:  6.632e-06  t[s]:   9741.36
	FillingsUpdate:  mu: +0.088602904  nElectrons: 390.000000  magneticMoment: [ Abs: 23.61471  Tot: -0.00000 ]
	SubspaceRotationAdjust: set factor to 0.81
ElecMinimize: Iter: 125  F: -2735.864830558025460  |grad|_K:  3.102e-07  alpha:  3.550e-01  linmin:  1.785e-06  t[s]:   9812.70
	FillingsUpdate:  mu: +0.089140733  nElectrons: 390.000000  magneticMoment: [ Abs: 23.61721  Tot: -0.00000 ]
	SubspaceRotationAdjust: set factor to 0.691
ElecMinimize: Iter: 126  F: -2735.864833599850044  |grad|_K:  2.984e-07  alpha:  2.005e-01  linmin: -2.645e-09  t[s]:   9882.79
	FillingsUpdate:  mu: +0.088837346  nElectrons: 390.000000  magneticMoment: [ Abs: 23.61883  Tot: +0.00000 ]
	SubspaceRotationAdjust: set factor to 0.795
ElecMinimize: Iter: 127  F: -2735.864838320606395  |grad|_K:  3.147e-07  alpha:  3.368e-01  linmin:  1.131e-05  t[s]:   9954.06
	FillingsUpdate:  mu: +0.088417019  nElectrons: 390.000000  magneticMoment: [ Abs: 23.61951  Tot: +0.00000 ]
	SubspaceRotationAdjust: set factor to 0.829
ElecMinimize: Iter: 128  F: -2735.864843800438393  |grad|_K:  3.734e-07  alpha:  3.542e-01  linmin:  2.373e-05  t[s]:  10025.75
	FillingsUpdate:  mu: +0.088995392  nElectrons: 390.000000  magneticMoment: [ Abs: 23.61931  Tot: +0.00000 ]
	SubspaceRotationAdjust: set factor to 0.75
ElecMinimize: Iter: 129  F: -2735.864848842078572  |grad|_K:  3.912e-07  alpha:  2.338e-01  linmin: -2.841e-06  t[s]:  10095.45
	FillingsUpdate:  mu: +0.088559329  nElectrons: 390.000000  magneticMoment: [ Abs: 23.61767  Tot: -0.00000 ]
	SubspaceRotationAdjust: set factor to 0.794
ElecMinimize: Iter: 130  F: -2735.864854812829435  |grad|_K:  3.443e-07  alpha:  2.464e-01  linmin:  1.017e-05  t[s]:  10164.97
	FillingsUpdate:  mu: +0.088267839  nElectrons: 390.000000  magneticMoment: [ Abs: 23.61476  Tot: +0.00000 ]
	SubspaceRotationAdjust: set factor to 0.938
ElecMinimize: Iter: 131  F: -2735.864861175422902  |grad|_K:  3.684e-07  alpha:  3.461e-01  linmin:  3.536e-05  t[s]:  10238.57
	FillingsUpdate:  mu: +0.088763949  nElectrons: 390.000000  magneticMoment: [ Abs: 23.61192  Tot: -0.00000 ]
	SubspaceRotationAdjust: set factor to 0.948
ElecMinimize: Iter: 132  F: -2735.864865982724950  |grad|_K:  4.001e-07  alpha:  2.316e-01  linmin: -3.523e-06  t[s]:  10310.05
	FillingsUpdate:  mu: +0.088217464  nElectrons: 390.000000  magneticMoment: [ Abs: 23.60819  Tot: -0.00000 ]
	SubspaceRotationAdjust: set factor to 0.981
ElecMinimize: Iter: 133  F: -2735.864871529455741  |grad|_K:  3.655e-07  alpha:  2.180e-01  linmin:  1.935e-06  t[s]:  10383.91
	FillingsUpdate:  mu: +0.088375154  nElectrons: 390.000000  magneticMoment: [ Abs: 23.60480  Tot: +0.00000 ]
	SubspaceRotationAdjust: set factor to 1.19
ElecMinimize: Iter: 134  F: -2735.864878266123014  |grad|_K:  3.597e-07  alpha:  3.172e-01  linmin: -1.132e-05  t[s]:  10455.54
	FillingsUpdate:  mu: +0.088485581  nElectrons: 390.000000  magneticMoment: [ Abs: 23.60282  Tot: +0.00000 ]
	SubspaceRotationAdjust: set factor to 1.33
ElecMinimize: Iter: 135  F: -2735.864885233983387  |grad|_K:  3.884e-07  alpha:  3.324e-01  linmin: -2.192e-06  t[s]:  10528.01
	FillingsUpdate:  mu: +0.088046517  nElectrons: 390.000000  magneticMoment: [ Abs: 23.60197  Tot: +0.00000 ]
	SubspaceRotationAdjust: set factor to 1.25
ElecMinimize: Iter: 136  F: -2735.864891381387224  |grad|_K:  4.874e-07  alpha:  2.568e-01  linmin: -3.758e-06  t[s]:  10599.02
	FillingsUpdate:  mu: +0.088812166  nElectrons: 390.000000  magneticMoment: [ Abs: 23.60245  Tot: -0.00000 ]
	SubspaceRotationAdjust: set factor to 0.992
ElecMinimize: Iter: 137  F: -2735.864897346215912  |grad|_K:  5.039e-07  alpha:  1.612e-01  linmin: -2.560e-06  t[s]:  10672.99
	FillingsUpdate:  mu: +0.088012487  nElectrons: 390.000000  magneticMoment: [ Abs: 23.60321  Tot: +0.00000 ]
	SubspaceRotationAdjust: set factor to 0.8
ElecMinimize: Iter: 138  F: -2735.864905401938358  |grad|_K:  5.339e-07  alpha:  2.046e-01  linmin:  5.190e-05  t[s]:  10745.16
	FillingsUpdate:  mu: +0.088042669  nElectrons: 390.000000  magneticMoment: [ Abs: 23.60255  Tot: -0.00000 ]
	SubspaceRotationAdjust: set factor to 1.06
ElecMinimize: Iter: 139  F: -2735.864916411196191  |grad|_K:  5.676e-07  alpha:  2.690e-01  linmin:  3.079e-05  t[s]:  10818.98
	FillingsUpdate:  mu: +0.088345309  nElectrons: 390.000000  magneticMoment: [ Abs: 23.60072  Tot: -0.00000 ]
	SubspaceRotationAdjust: set factor to 1.18
ElecMinimize: Iter: 140  F: -2735.864925833694997  |grad|_K:  5.761e-07  alpha:  1.887e-01  linmin: -1.253e-05  t[s]:  10891.60
	FillingsUpdate:  mu: +0.088009370  nElectrons: 390.000000  magneticMoment: [ Abs: 23.59900  Tot: +0.00000 ]
	SubspaceRotationAdjust: set factor to 1.46
ElecMinimize: Iter: 141  F: -2735.864934495639773  |grad|_K:  5.884e-07  alpha:  1.587e-01  linmin:  1.390e-05  t[s]:  10965.83
	FillingsUpdate:  mu: +0.088025043  nElectrons: 390.000000  magneticMoment: [ Abs: 23.59772  Tot: -0.00000 ]
	SubspaceRotationAdjust: set factor to 1.6
ElecMinimize: Iter: 142  F: -2735.864941673770318  |grad|_K:  6.384e-07  alpha:  1.318e-01  linmin:  5.901e-06  t[s]:  11039.89
	FillingsUpdate:  mu: +0.088343837  nElectrons: 390.000000  magneticMoment: [ Abs: 23.59650  Tot: +0.00000 ]
	SubspaceRotationAdjust: set factor to 1.66
ElecMinimize: Iter: 143  F: -2735.864948072794959  |grad|_K:  6.418e-07  alpha:  9.989e-02  linmin: -2.862e-06  t[s]:  11108.51
	FillingsUpdate:  mu: +0.088260633  nElectrons: 390.000000  magneticMoment: [ Abs: 23.59518  Tot: +0.00000 ]
	SubspaceRotationAdjust: set factor to 1.86
ElecMinimize: Iter: 144  F: -2735.864954321051300  |grad|_K:  6.146e-07  alpha:  9.531e-02  linmin:  3.519e-06  t[s]:  11181.42
	FillingsUpdate:  mu: +0.088063444  nElectrons: 390.000000  magneticMoment: [ Abs: 23.59455  Tot: +0.00000 ]
	SubspaceRotationAdjust: set factor to 1.79
ElecMinimize: Iter: 145  F: -2735.864959906545664  |grad|_K:  6.508e-07  alpha:  9.414e-02  linmin:  4.826e-06  t[s]:  11250.45
	FillingsUpdate:  mu: +0.088285238  nElectrons: 390.000000  magneticMoment: [ Abs: 23.59502  Tot: +0.00000 ]
	SubspaceRotationAdjust: set factor to 2.03
ElecMinimize: Iter: 146  F: -2735.864965203553311  |grad|_K:  6.003e-07  alpha:  7.982e-02  linmin: -1.675e-06  t[s]:  11322.72
	FillingsUpdate:  mu: +0.088551559  nElectrons: 390.000000  magneticMoment: [ Abs: 23.59644  Tot: +0.00000 ]
	SubspaceRotationAdjust: set factor to 2.09
ElecMinimize: Iter: 147  F: -2735.864970222575266  |grad|_K:  6.219e-07  alpha:  8.770e-02  linmin: -4.945e-06  t[s]:  11393.51
	FillingsUpdate:  mu: +0.088387538  nElectrons: 390.000000  magneticMoment: [ Abs: 23.59828  Tot: -0.00000 ]
	SubspaceRotationAdjust: set factor to 2.25
ElecMinimize: Iter: 148  F: -2735.864975226535535  |grad|_K:  6.036e-07  alpha:  8.089e-02  linmin: -5.014e-06  t[s]:  11466.44
	FillingsUpdate:  mu: +0.088437638  nElectrons: 390.000000  magneticMoment: [ Abs: 23.60055  Tot: +0.00000 ]
	SubspaceRotationAdjust: set factor to 2.58
ElecMinimize: Iter: 149  F: -2735.864979947943084  |grad|_K:  5.767e-07  alpha:  8.116e-02  linmin: -1.424e-05  t[s]:  11540.05
	FillingsUpdate:  mu: +0.088764312  nElectrons: 390.000000  magneticMoment: [ Abs: 23.60346  Tot: -0.00000 ]
	SubspaceRotationAdjust: set factor to 2.84
ElecMinimize: Iter: 150  F: -2735.864984224122054  |grad|_K:  5.695e-07  alpha:  7.936e-02  linmin: -1.509e-05  t[s]:  11609.85
	FillingsUpdate:  mu: +0.088591688  nElectrons: 390.000000  magneticMoment: [ Abs: 23.60683  Tot: +0.00000 ]
	SubspaceRotationAdjust: set factor to 3.64
ElecMinimize: Iter: 151  F: -2735.864988006532712  |grad|_K:  5.192e-07  alpha:  7.182e-02  linmin: -5.637e-06  t[s]:  11683.06
	FillingsUpdate:  mu: +0.088785057  nElectrons: 390.000000  magneticMoment: [ Abs: 23.61037  Tot: +0.00000 ]
	SubspaceRotationAdjust: set factor to 4.78
ElecMinimize: Iter: 152  F: -2735.864991364297111  |grad|_K:  4.744e-07  alpha:  7.773e-02  linmin: -1.130e-05  t[s]:  11754.51
	FillingsUpdate:  mu: +0.089001480  nElectrons: 390.000000  magneticMoment: [ Abs: 23.61272  Tot: +0.00000 ]
	SubspaceRotationAdjust: set factor to 5.37
ElecMinimize: Iter: 153  F: -2735.864994038034638  |grad|_K:  4.758e-07  alpha:  7.345e-02  linmin: -5.981e-06  t[s]:  11827.42
	FillingsUpdate:  mu: +0.088680238  nElectrons: 390.000000  magneticMoment: [ Abs: 23.61397  Tot: +0.00000 ]
	SubspaceRotationAdjust: set factor to 4.46
ElecMinimize: Iter: 154  F: -2735.864995821470984  |grad|_K:  5.263e-07  alpha:  4.901e-02  linmin: -3.770e-07  t[s]:  11901.46
	FillingsUpdate:  mu: +0.089044905  nElectrons: 390.000000  magneticMoment: [ Abs: 23.61495  Tot: +0.00000 ]
	SubspaceRotationAdjust: set factor to 4.36
ElecMinimize: Iter: 155  F: -2735.864997324765227  |grad|_K:  4.447e-07  alpha:  3.426e-02  linmin: -8.865e-08  t[s]:  11972.01
	FillingsUpdate:  mu: +0.088994241  nElectrons: 390.000000  magneticMoment: [ Abs: 23.61560  Tot: +0.00000 ]
	SubspaceRotationAdjust: set factor to 5.55
ElecMinimize: Iter: 156  F: -2735.864999327791338  |grad|_K:  3.885e-07  alpha:  6.403e-02  linmin:  1.546e-07  t[s]:  12043.79
	FillingsUpdate:  mu: +0.088851743  nElectrons: 390.000000  magneticMoment: [ Abs: 23.61539  Tot: -0.00000 ]
	SubspaceRotationAdjust: set factor to 4.76
ElecMinimize: Iter: 157  F: -2735.865001320071769  |grad|_K:  4.500e-07  alpha:  8.357e-02  linmin:  1.097e-06  t[s]:  12115.05
	FillingsUpdate:  mu: +0.089170656  nElectrons: 390.000000  magneticMoment: [ Abs: 23.61494  Tot: -0.00000 ]
	SubspaceRotationAdjust: set factor to 4.07
ElecMinimize: Iter: 158  F: -2735.865002321120755  |grad|_K:  4.375e-07  alpha:  3.111e-02  linmin: -2.703e-06  t[s]:  12187.66
	FillingsUpdate:  mu: +0.088975769  nElectrons: 390.000000  magneticMoment: [ Abs: 23.61360  Tot: -0.00000 ]
	SubspaceRotationAdjust: set factor to 5.61
ElecMinimize: Iter: 159  F: -2735.865003825902477  |grad|_K:  3.275e-07  alpha:  4.944e-02  linmin:  7.843e-07  t[s]:  12259.66
	FillingsUpdate:  mu: +0.088850713  nElectrons: 390.000000  magneticMoment: [ Abs: 23.61235  Tot: +0.00000 ]
	SubspaceRotationAdjust: set factor to 4.98
ElecMinimize: Iter: 160  F: -2735.865004943175791  |grad|_K:  3.785e-07  alpha:  6.595e-02  linmin: -8.376e-07  t[s]:  12331.70
	FillingsUpdate:  mu: +0.089116059  nElectrons: 390.000000  magneticMoment: [ Abs: 23.61174  Tot: +0.00000 ]
	SubspaceRotationAdjust: set factor to 4.5
ElecMinimize: Iter: 161  F: -2735.865005571862184  |grad|_K:  3.362e-07  alpha:  2.755e-02  linmin: -1.474e-06  t[s]:  12404.73
	FillingsUpdate:  mu: +0.088986802  nElectrons: 390.000000  magneticMoment: [ Abs: 23.61078  Tot: -0.00000 ]
	SubspaceRotationAdjust: set factor to 5.7
ElecMinimize: Iter: 162  F: -2735.865006458419430  |grad|_K:  2.737e-07  alpha:  4.946e-02  linmin:  5.061e-07  t[s]:  12476.80
	FillingsUpdate:  mu: +0.088832560  nElectrons: 390.000000  magneticMoment: [ Abs: 23.61008  Tot: +0.00000 ]
	SubspaceRotationAdjust: set factor to 4.52
ElecMinimize: Iter: 163  F: -2735.865007136682379  |grad|_K:  3.289e-07  alpha:  5.733e-02  linmin: -4.678e-07  t[s]:  12550.85
	FillingsUpdate:  mu: +0.089056012  nElectrons: 390.000000  magneticMoment: [ Abs: 23.60993  Tot: -0.00000 ]
	SubspaceRotationAdjust: set factor to 4.3
ElecMinimize: Iter: 164  F: -2735.865007585655349  |grad|_K:  2.682e-07  alpha:  2.608e-02  linmin: -1.270e-06  t[s]:  12625.59
	FillingsUpdate:  mu: +0.089039341  nElectrons: 390.000000  magneticMoment: [ Abs: 23.61007  Tot: +0.00000 ]
	SubspaceRotationAdjust: set factor to 5.32
ElecMinimize: Iter: 165  F: -2735.865008257548197  |grad|_K:  2.398e-07  alpha:  5.890e-02  linmin:  2.524e-08  t[s]:  12698.50
ElecMinimize: Converged (|Delta F|<1.000000e-06 for 5 iters).
Setting wave functions to eigenvectors of Hamiltonian

# Ionic positions in lattice coordinates:
ion Ni   0.000000000000000   0.000000000000000   0.150000000000000 1
ion Ni   0.500000000000000   0.000000000000000   0.150000000000000 1
ion Ni   0.000000000000000   0.500000000000000   0.150000000000000 1
ion Ni   0.500000000000000   0.500000000000000   0.150000000000000 1
ion Ni   0.250000000000000   0.250000000000000   0.050000000000000 1
ion Ni   0.250000000000000   0.750000000000000   0.050000000000000 1
ion Ni  -0.250000000000000   0.250000000000000   0.050000000000000 1
ion Ni  -0.250000000000000   0.750000000000000   0.050000000000000 1
ion Ni   0.000000000000000   0.000000000000000  -0.050000000000000 0
ion Ni   0.500000000000000   0.000000000000000  -0.050000000000000 0
ion Ni   0.000000000000000   0.500000000000000  -0.050000000000000 0
ion Ni   0.500000000000000   0.500000000000000  -0.050000000000000 0
ion Ni   0.250000000000000   0.250000000000000  -0.150000000000000 0
ion Ni   0.250000000000000   0.750000000000000  -0.150000000000000 0
ion Ni  -0.250000000000000   0.250000000000000  -0.150000000000000 0
ion Ni  -0.250000000000000   0.750000000000000  -0.150000000000000 0
ion O   0.250000000000000   0.250000000000000   0.150000000000000 1
ion O   0.250000000000000   0.750000000000000   0.150000000000000 1
ion O  -0.250000000000000   0.250000000000000   0.150000000000000 1
ion O  -0.250000000000000   0.750000000000000   0.150000000000000 1
ion O   0.000000000000000   0.000000000000000   0.050000000000000 1
ion O   0.500000000000000   0.000000000000000   0.050000000000000 1
ion O   0.000000000000000   0.500000000000000   0.050000000000000 1
ion O   0.500000000000000   0.500000000000000   0.050000000000000 1
ion O   0.250000000000000   0.250000000000000  -0.050000000000000 0
ion O   0.250000000000000   0.750000000000000  -0.050000000000000 0
ion O  -0.250000000000000   0.250000000000000  -0.050000000000000 0
ion O  -0.250000000000000   0.750000000000000  -0.050000000000000 0
ion O   0.000000000000000   0.000000000000000  -0.150000000000000 0
ion O   0.500000000000000   0.000000000000000  -0.150000000000000 0
ion O   0.000000000000000   0.500000000000000  -0.150000000000000 0
ion O   0.500000000000000   0.500000000000000  -0.150000000000000 0
ion O   0.000000000000000   0.000000000000000   0.230000000000000 1

# Forces in Lattice coordinates:
force Ni   0.018082626569932  -0.007024584770059  -0.593987242728547 1
force Ni   0.000602419095301   0.000019841550506  -0.225900958407326 1
force Ni  -0.002059711345272   0.000042800426771  -0.264716207129732 1
force Ni  -0.002655741564474  -0.000094074882398  -0.294721526112654 1
force Ni   0.014605184126528   0.013249098903716   0.185613069509429 1
force Ni   0.016692767915424  -0.015431478621838   0.193225047743033 1
force Ni  -0.010024690645943   0.010180033738963   0.159759070580841 1
force Ni  -0.009323616424213  -0.009294981596421   0.167983099414049 1
force Ni  -0.003814535006761  -0.000568158881919  -0.294167054165718 0
force Ni  -0.000115869701647  -0.000442681497615  -0.161201319779070 0
force Ni   0.000852217237797   0.000399235836734  -0.162296380745213 0
force Ni   0.001417472655780   0.000394724221163  -0.152672075661571 0
force Ni   0.003083950207297   0.001732865922341   0.355615304417392 0
force Ni   0.002960872899556  -0.001768160464637   0.355494646433809 0
force Ni   0.000672074852562   0.001077390431816   0.356269472709646 0
force Ni   0.000881537433336  -0.001109110297217   0.356758531601595 0
force O   0.003921818056102   0.018441700225426  -0.356745276010026 1
force O   0.004224608010529  -0.020550916583469  -0.357302705114847 1
force O  -0.018539526796644   0.022838459496574  -0.345331240855380 1
force O  -0.018350640972934  -0.020257627956714  -0.357301610262702 1
force O  -0.007623394653829   0.004791893071028   0.483123787560889 1
force O   0.003757945291250   0.000233857904130  -0.086430875154335 1
force O   0.005717458043273  -0.000347312597357  -0.094261135647689 1
force O  -0.000777148023579  -0.000757588746689  -0.104982038414703 1
force O  -0.005482762591857  -0.000183442759540   0.104075634147284 0
force O  -0.005872894989194   0.000525339840941   0.102423522497029 0
force O  -0.006232887799665   0.000165758184995   0.105389436359511 0
force O  -0.006443955949626  -0.000369454328360   0.102248519630189 0
force O   0.006574299125800  -0.000133703650188   0.063854651569111 0
force O   0.008867851668297  -0.000082896156313   0.043543297062659 0
force O   0.004890286744545   0.000279937077623   0.044093825788977 0
force O   0.008429635267730   0.000217948113597   0.034341305955751 0
force O  -0.009295387311729   0.004278352424185   0.831520689067169 1

# Energy components:
   Eewald =     7284.5530789474723861
       EH =     9761.1343204710574355
     Eloc =   -19859.7074499915142951
      Enl =     -851.9675738943799388
   Epulay =        0.0007326944676329
      Exc =     -301.6729339454678325
       KE =     1229.5717746413756686
        U =        2.2235576546310756
-------------------------------------
     Etot =    -2735.8644934223575547
       TS =        0.0005148351907017
-------------------------------------
        F =    -2735.8650082575481974

IonicMinimize: Iter:   0  F: -2735.865008257548197  |grad|_K:  5.265e-03  t[s]:  12706.94

#--- Lowdin population analysis ---
# oxidation-state Ni +3.541 +3.768 +3.754 +3.696 +3.365 +3.368 +3.367 +3.366 +3.379 +3.372 +3.372 +3.371 +3.727 +3.728 +3.727 +3.727
# magnetic-moments Ni +0.357 -1.019 +0.998 -0.937 +0.899 +0.903 -0.903 -0.902 -0.929 +0.909 -0.909 +0.909 -1.010 -1.010 +1.008 +1.008
# oxidation-state O -0.575 -0.578 -0.581 -0.578 -0.577 -0.581 -0.580 -0.579 -0.581 -0.581 -0.580 -0.581 -0.634 -0.637 -0.637 -0.637 -0.260
# magnetic-moments O +0.138 +0.147 -0.145 -0.153 -0.064 -0.043 +0.046 -0.034 -0.055 -0.054 +0.049 +0.050 -0.152 +0.136 -0.140 +0.133 +0.872


-------- Electronic minimization -----------
	FillingsUpdate:  mu: +0.101991121  nElectrons: 390.000000  magneticMoment: [ Abs: 23.60964  Tot: +0.00000 ]
ElecMinimize: Iter:   0  F: -2735.755788406157990  |grad|_K:  7.141e-05  alpha:  1.000e+00
	FillingsUpdate:  mu: +0.087577129  nElectrons: 390.000000  magneticMoment: [ Abs: 23.61292  Tot: +0.00000 ]
	SubspaceRotationAdjust: set factor to 5.18
ElecMinimize: Iter:   1  F: -2735.790047011596926  |grad|_K:  5.559e-05  alpha:  2.654e-02  linmin: -3.349e-03  t[s]:  12802.44
ElecMinimize: 	Predicted alpha/alphaT>3.000000, increasing alphaT to 7.963479e-02.
	FillingsUpdate:  mu: +0.106944361  nElectrons: 390.000000  magneticMoment: [ Abs: 23.63773  Tot: +0.00000 ]
	SubspaceRotationAdjust: set factor to 2.77
ElecMinimize: Iter:   2  F: -2735.852436526338806  |grad|_K:  4.351e-05  alpha:  7.973e-02  linmin:  1.286e-04  t[s]:  12904.20
	FillingsUpdate:  mu: +0.087916151  nElectrons: 390.000000  magneticMoment: [ Abs: 23.63778  Tot: +0.00000 ]
	SubspaceRotationAdjust: set factor to 1.82
ElecMinimize: Iter:   3  F: -2735.857877747168459  |grad|_K:  1.921e-05  alpha:  2.309e-02  linmin:  1.227e-03  t[s]:  12975.91
	FillingsUpdate:  mu: +0.104335835  nElectrons: 390.000000  magneticMoment: [ Abs: 23.61383  Tot: +0.00000 ]
	SubspaceRotationAdjust: set factor to 1.37
ElecMinimize: Iter:   4  F: -2735.860588273303165  |grad|_K:  1.455e-05  alpha:  6.073e-02  linmin:  1.919e-03  t[s]:  13048.91
	FillingsUpdate:  mu: +0.106587391  nElectrons: 390.000000  magneticMoment: [ Abs: 23.61584  Tot: +0.00000 ]
	SubspaceRotationAdjust: set factor to 0.943
ElecMinimize: Iter:   5  F: -2735.862792527013880  |grad|_K:  1.147e-05  alpha:  8.546e-02  linmin: -2.001e-04  t[s]:  13119.91
	FillingsUpdate:  mu: +0.090875932  nElectrons: 390.000000  magneticMoment: [ Abs: 23.62241  Tot: +0.00000 ]
	SubspaceRotationAdjust: set factor to 0.806
ElecMinimize: Iter:   6  F: -2735.864353550616670  |grad|_K:  6.453e-06  alpha:  7.381e-02  linmin: -7.381e-05  t[s]:  13193.08
	FillingsUpdate:  mu: +0.086397906  nElectrons: 390.000000  magneticMoment: [ Abs: 23.62411  Tot: -0.00000 ]
	SubspaceRotationAdjust: set factor to 0.672
	SubspaceRotationAdjust: resetting CG because factor has changed by 0.12628
ElecMinimize: 	State modified externally: resetting search direction.
ElecMinimize: Iter:   7  F: -2735.865320582382537  |grad|_K:  4.795e-06  alpha:  1.461e-01
	FillingsUpdate:  mu: +0.092027250  nElectrons: 390.000000  magneticMoment: [ Abs: 23.62350  Tot: -0.00000 ]
	SubspaceRotationAdjust: set factor to 0.509
ElecMinimize: Iter:   8  F: -2735.865873331460079  |grad|_K:  2.264e-06  alpha:  1.523e-01  linmin:  1.098e-03  t[s]:  13351.06
	FillingsUpdate:  mu: +0.088098300  nElectrons: 390.000000  magneticMoment: [ Abs: 23.62283  Tot: -0.00000 ]
	SubspaceRotationAdjust: set factor to 0.461
ElecMinimize: Iter:   9  F: -2735.866017381738857  |grad|_K:  1.373e-06  alpha:  1.807e-01  linmin: -6.331e-04  t[s]:  13425.37
	FillingsUpdate:  mu: +0.088443728  nElectrons: 390.000000  magneticMoment: [ Abs: 23.62414  Tot: +0.00000 ]
	SubspaceRotationAdjust: set factor to 0.492
ElecMinimize: Iter:  10  F: -2735.866119997539954  |grad|_K:  9.759e-07  alpha:  3.329e-01  linmin:  4.594e-06  t[s]:  13499.11
	FillingsUpdate:  mu: +0.089112092  nElectrons: 390.000000  magneticMoment: [ Abs: 23.62333  Tot: -0.00000 ]
	SubspaceRotationAdjust: set factor to 0.606
ElecMinimize: Iter:  11  F: -2735.866176188178997  |grad|_K:  7.812e-07  alpha:  3.733e-01  linmin:  1.200e-05  t[s]:  13570.25
	FillingsUpdate:  mu: +0.087946605  nElectrons: 390.000000  magneticMoment: [ Abs: 23.62266  Tot: +0.00000 ]
	SubspaceRotationAdjust: set factor to 0.513
ElecMinimize: Iter:  12  F: -2735.866201450588505  |grad|_K:  5.479e-07  alpha:  2.631e-01  linmin: -7.353e-06  t[s]:  13640.98
	FillingsUpdate:  mu: +0.088881275  nElectrons: 390.000000  magneticMoment: [ Abs: 23.62277  Tot: +0.00000 ]
	SubspaceRotationAdjust: set factor to 0.37
ElecMinimize: Iter:  13  F: -2735.866210893592779  |grad|_K:  3.287e-07  alpha:  1.981e-01  linmin:  1.468e-05  t[s]:  13714.52
	FillingsUpdate:  mu: +0.088546432  nElectrons: 390.000000  magneticMoment: [ Abs: 23.62255  Tot: -0.00000 ]
	SubspaceRotationAdjust: set factor to 0.405
ElecMinimize: Iter:  14  F: -2735.866216024509413  |grad|_K:  1.955e-07  alpha:  3.007e-01  linmin: -2.319e-06  t[s]:  13785.94
	FillingsUpdate:  mu: +0.088422173  nElectrons: 390.000000  magneticMoment: [ Abs: 23.62234  Tot: -0.00000 ]
	SubspaceRotationAdjust: set factor to 0.428
ElecMinimize: Iter:  15  F: -2735.866217906840120  |grad|_K:  1.343e-07  alpha:  3.111e-01  linmin: -1.500e-07  t[s]:  13856.45
	FillingsUpdate:  mu: +0.088613700  nElectrons: 390.000000  magneticMoment: [ Abs: 23.62224  Tot: +0.00000 ]
	SubspaceRotationAdjust: set factor to 0.409
ElecMinimize: Iter:  16  F: -2735.866218726362604  |grad|_K:  9.381e-08  alpha:  2.873e-01  linmin:  2.262e-06  t[s]:  13927.64
	FillingsUpdate:  mu: +0.088498235  nElectrons: 390.000000  magneticMoment: [ Abs: 23.62209  Tot: -0.00000 ]
	SubspaceRotationAdjust: set factor to 0.43
ElecMinimize: Iter:  17  F: -2735.866219197508599  |grad|_K:  7.436e-08  alpha:  3.386e-01  linmin: -1.537e-06  t[s]:  13998.30
	FillingsUpdate:  mu: +0.088551155  nElectrons: 390.000000  magneticMoment: [ Abs: 23.62195  Tot: -0.00000 ]
	SubspaceRotationAdjust: set factor to 0.506
[...]
ion Ni   0.500000000000000   0.000000000000000  -0.050000000000000 0
ion Ni   0.000000000000000   0.500000000000000  -0.050000000000000 0
ion Ni   0.500000000000000   0.500000000000000  -0.050000000000000 0
ion Ni   0.250000000000000   0.250000000000000  -0.150000000000000 0
ion Ni   0.250000000000000   0.750000000000000  -0.150000000000000 0
ion Ni  -0.250000000000000   0.250000000000000  -0.150000000000000 0
ion Ni  -0.250000000000000   0.750000000000000  -0.150000000000000 0
ion O   0.252640803895900   0.254028207678996   0.146487311781947 1
ion O   0.254898268962583   0.745376840255621   0.144885629297850 1
ion O  -0.256828348513975   0.256149171480680   0.144985823109523 1
ion O  -0.255811962440600   0.745144141172043   0.144955183604348 1
ion O  -0.000558112914545   0.001902980729956   0.054076553455349 1
ion O   0.500117229942562  -0.000037765860026   0.047913900064050 1
ion O   0.002653512299851   0.500077069393940   0.047873937045098 1
ion O   0.500299949220027   0.498136725314700   0.047363511612859 1
ion O   0.250000000000000   0.250000000000000  -0.050000000000000 0
ion O   0.250000000000000   0.750000000000000  -0.050000000000000 0
ion O  -0.250000000000000   0.250000000000000  -0.050000000000000 0
ion O  -0.250000000000000   0.750000000000000  -0.050000000000000 0
ion O   0.000000000000000   0.000000000000000  -0.150000000000000 0
ion O   0.500000000000000   0.000000000000000  -0.150000000000000 0
ion O   0.000000000000000   0.500000000000000  -0.150000000000000 0
ion O   0.500000000000000   0.500000000000000  -0.150000000000000 0
ion O  -0.008400808049526  -0.006689936460549   0.238556152314649 1
ion H   0.104221385430029   0.104489714545460   0.252070358825029 1

# Forces in Lattice coordinates:
force Ni   0.007062804742189   0.010975899832557  -0.112730224539947 1
force Ni  -0.002163745761514  -0.000983911818149  -0.025567191670405 1
force Ni  -0.001339468258909   0.001166620995520  -0.024595997006132 1
force Ni   0.000453505985712  -0.000061131767590  -0.024043636908329 1
force Ni   0.001384506465897   0.001674501718321  -0.011080250575897 1
force Ni   0.004279184797419  -0.003045661187634   0.002256183665255 1
force Ni  -0.001000471611621   0.001487379978688  -0.002659083716478 1
force Ni  -0.002381239189642  -0.002889003182386   0.006970782827973 1
force Ni  -0.003713777926640  -0.000562789895628  -0.219865224957968 0
force Ni   0.000256492415959   0.002526493130198  -0.368774050119704 0
force Ni   0.004866853116715  -0.001943151433499  -0.375243771964643 0
force Ni   0.000648199703933  -0.002867877084948  -0.402950401409914 0
force Ni   0.003023824115421   0.001528454338116   0.317018923942699 0
force Ni   0.002969705721257  -0.001583313655018   0.311135688811533 0
force Ni  -0.000550940236826   0.001458241240065   0.317929789547549 0
force Ni  -0.000482152609009  -0.001381561961436   0.315095339100782 0
force O  -0.002244896349133   0.000101090829679  -0.037813227233556 1
force O  -0.001693143814036  -0.001726537618387  -0.008308816938367 1
force O  -0.002181842457942  -0.001301750536513  -0.013814024763235 1
force O  -0.004391437080801  -0.002757613848862  -0.008562835337178 1
force O  -0.001056911577689  -0.003020597062165  -0.010449898895065 1
force O   0.002971354266554  -0.001113350096216  -0.000370910556631 1
force O  -0.001961921758208   0.001170165274887  -0.000339764237872 1
force O  -0.001343290700158   0.000787841600878   0.011601599791235 1
force O  -0.015442797487620  -0.010748478908144   0.070866244347313 0
force O  -0.015856092908914   0.011119879606707   0.041153628636379 0
force O   0.006577512266516  -0.011109642488318   0.031149083554014 0
force O   0.005994694792258   0.010359869656956   0.041436372516098 0
force O   0.009614891689640   0.000172869664178   0.056754656655681 0
force O   0.007077767933069  -0.000133068828479   0.050157306442527 0
force O   0.006020070793335   0.000070551520981   0.051525700871933 0
force O   0.006636036253160   0.000541279867951   0.048540422252698 0
force O  -0.001341163342467  -0.001449926720070   0.056582115937694 1
force H  -0.005395972541898  -0.005674338922565   0.038913096422153 1

# Energy components:
   Eewald =     7383.6741575947826277
       EH =     9863.3522012966550392
     Eloc =   -20062.0864804306547740
      Enl =     -852.2880862008236136
   Epulay =        0.0007330941558102
      Exc =     -302.1992520794222514
       KE =     1230.7926554657638007
        U =        2.2174918019302781
-------------------------------------
     Etot =    -2736.5365794576123335
       TS =        0.0009074445316560
-------------------------------------
        F =    -2736.5374869021438826

IonicMinimize: Iter:   9  F: -2736.537486902143883  |grad|_K:  5.572e-04  alpha:  1.000e+00  linmin: -1.210e-01  t[s]:  22446.53

#--- Lowdin population analysis ---
# oxidation-state Ni +3.564 +3.715 +3.713 +3.649 +3.345 +3.337 +3.337 +3.340 +3.368 +3.359 +3.358 +3.363 +3.725 +3.723 +3.722 +3.725
# magnetic-moments Ni +0.693 -1.001 +0.995 -0.874 +0.892 +0.887 -0.884 -0.890 -0.918 +0.902 -0.903 +0.904 -1.009 -1.008 +1.007 +1.009
# oxidation-state O -0.596 -0.576 -0.579 -0.577 -0.563 -0.573 -0.573 -0.568 -0.580 -0.579 -0.578 -0.579 -0.631 -0.638 -0.638 -0.638 -0.564
# magnetic-moments O +0.148 +0.180 -0.119 -0.138 -0.024 -0.054 +0.057 -0.047 -0.054 -0.057 +0.056 +0.053 -0.164 +0.134 -0.133 +0.130 +0.256
# oxidation-state H +0.382
# magnetic-moments H -0.005


-------- Electronic minimization -----------
	FillingsUpdate:  mu: +0.104541411  nElectrons: 391.000000  magneticMoment: [ Abs: 23.19123  Tot: +0.00000 ]
ElecMinimize: Iter:   0  F: -2736.409314225659728  |grad|_K:  6.916e-05  alpha:  1.000e+00
	FillingsUpdate:  mu: +0.095877777  nElectrons: 391.000000  magneticMoment: [ Abs: 23.27620  Tot: -0.00000 ]
	SubspaceRotationAdjust: set factor to 0.472
ElecMinimize: Iter:   1  F: -2736.528474819091116  |grad|_K:  1.434e-05  alpha:  1.534e-01  linmin: -4.539e-03  t[s]:  22541.05
	FillingsUpdate:  mu: +0.101345391  nElectrons: 391.000000  magneticMoment: [ Abs: 23.19313  Tot: -0.00000 ]
	SubspaceRotationAdjust: set factor to 0.274
ElecMinimize: Iter:   2  F: -2736.534460018631307  |grad|_K:  6.943e-06  alpha:  1.808e-01  linmin:  1.903e-03  t[s]:  22614.06
	FillingsUpdate:  mu: +0.095915571  nElectrons: 391.000000  magneticMoment: [ Abs: 23.20133  Tot: -0.00000 ]
	SubspaceRotationAdjust: set factor to 0.346
ElecMinimize: Iter:   3  F: -2736.536182485283007  |grad|_K:  3.399e-06  alpha:  2.404e-01  linmin:  2.215e-05  t[s]:  22687.02
	FillingsUpdate:  mu: +0.092806689  nElectrons: 391.000000  magneticMoment: [ Abs: 23.20580  Tot: +0.00000 ]
	SubspaceRotationAdjust: set factor to 0.422
ElecMinimize: Iter:   4  F: -2736.536738070403317  |grad|_K:  2.390e-06  alpha:  3.031e-01  linmin:  3.386e-06  t[s]:  22757.67
	FillingsUpdate:  mu: +0.093970846  nElectrons: 391.000000  magneticMoment: [ Abs: 23.19731  Tot: +0.00000 ]
	SubspaceRotationAdjust: set factor to 0.517
ElecMinimize: Iter:   5  F: -2736.537056182991819  |grad|_K:  1.998e-06  alpha:  3.506e-01  linmin:  3.920e-07  t[s]:  22832.21
	FillingsUpdate:  mu: +0.094796820  nElectrons: 391.000000  magneticMoment: [ Abs: 23.19331  Tot: +0.00000 ]
	SubspaceRotationAdjust: set factor to 0.604
ElecMinimize: Iter:   6  F: -2736.537311078970561  |grad|_K:  1.689e-06  alpha:  4.021e-01  linmin:  1.474e-05  t[s]:  22907.22
	FillingsUpdate:  mu: +0.093683935  nElectrons: 391.000000  magneticMoment: [ Abs: 23.19412  Tot: +0.00000 ]
	SubspaceRotationAdjust: set factor to 0.691
ElecMinimize: Iter:   7  F: -2736.537445807039148  |grad|_K:  1.168e-06  alpha:  2.979e-01  linmin:  1.911e-06  t[s]:  22981.15
	FillingsUpdate:  mu: +0.094065179  nElectrons: 391.000000  magneticMoment: [ Abs: 23.19130  Tot: +0.00000 ]
	SubspaceRotationAdjust: set factor to 0.655
ElecMinimize: Iter:   8  F: -2736.537503061108055  |grad|_K:  7.492e-07  alpha:  2.643e-01  linmin: -4.683e-06  t[s]:  23055.13
	FillingsUpdate:  mu: +0.093792021  nElectrons: 391.000000  magneticMoment: [ Abs: 23.19303  Tot: -0.00000 ]
	SubspaceRotationAdjust: set factor to 0.519
ElecMinimize: Iter:   9  F: -2736.537522210041971  |grad|_K:  4.798e-07  alpha:  2.146e-01  linmin:  1.161e-06  t[s]:  23128.17
	FillingsUpdate:  mu: +0.094096900  nElectrons: 391.000000  magneticMoment: [ Abs: 23.19147  Tot: -0.00000 ]
	SubspaceRotationAdjust: set factor to 0.461
ElecMinimize: Iter:  10  F: -2736.537530738583428  |grad|_K:  2.874e-07  alpha:  2.333e-01  linmin:  1.493e-06  t[s]:  23200.29
	FillingsUpdate:  mu: +0.093938315  nElectrons: 391.000000  magneticMoment: [ Abs: 23.19193  Tot: +0.00000 ]
	SubspaceRotationAdjust: set factor to 0.497
ElecMinimize: Iter:  11  F: -2736.537534405898441  |grad|_K:  1.857e-07  alpha:  2.794e-01  linmin: -2.780e-06  t[s]:  23271.21
	FillingsUpdate:  mu: +0.093917745  nElectrons: 391.000000  magneticMoment: [ Abs: 23.19233  Tot: +0.00000 ]
	SubspaceRotationAdjust: set factor to 0.507
ElecMinimize: Iter:  12  F: -2736.537535940647558  |grad|_K:  1.285e-07  alpha:  2.802e-01  linmin:  2.752e-07  t[s]:  23345.18
	FillingsUpdate:  mu: +0.094022314  nElectrons: 391.000000  magneticMoment: [ Abs: 23.19195  Tot: +0.00000 ]
	SubspaceRotationAdjust: set factor to 0.532
ElecMinimize: Iter:  13  F: -2736.537536653234383  |grad|_K:  9.059e-08  alpha:  2.716e-01  linmin: -3.420e-06  t[s]:  23419.22
	FillingsUpdate:  mu: +0.093949503  nElectrons: 391.000000  magneticMoment: [ Abs: 23.19209  Tot: -0.00000 ]
	SubspaceRotationAdjust: set factor to 0.624
ElecMinimize: Iter:  14  F: -2736.537537060731665  |grad|_K:  6.867e-08  alpha:  3.123e-01  linmin: -1.183e-05  t[s]:  23492.33
	FillingsUpdate:  mu: +0.093958851  nElectrons: 391.000000  magneticMoment: [ Abs: 23.19213  Tot: -0.00000 ]
	SubspaceRotationAdjust: set factor to 0.747
ElecMinimize: Iter:  15  F: -2736.537537291596891  |grad|_K:  5.184e-08  alpha:  3.078e-01  linmin:  5.380e-06  t[s]:  23561.50
	FillingsUpdate:  mu: +0.093998764  nElectrons: 391.000000  magneticMoment: [ Abs: 23.19195  Tot: +0.00000 ]
	SubspaceRotationAdjust: set factor to 0.772
ElecMinimize: Iter:  16  F: -2736.537537413668360  |grad|_K:  4.222e-08  alpha:  2.861e-01  linmin: -8.565e-07  t[s]:  23634.81
	FillingsUpdate:  mu: +0.093945688  nElectrons: 391.000000  magneticMoment: [ Abs: 23.19210  Tot: -0.00000 ]
	SubspaceRotationAdjust: set factor to 0.692
ElecMinimize: Iter:  17  F: -2736.537537479593084  |grad|_K:  3.365e-08  alpha:  2.323e-01  linmin: -2.682e-06  t[s]:  23706.78
ElecMinimize: Converged (|Delta F|<1.000000e-06 for 5 iters).
Setting wave functions to eigenvectors of Hamiltonian

# Ionic positions in lattice coordinates:
ion Ni   0.000254163264509  -0.000742854935519   0.150688122249682 1
ion Ni   0.501123711293412  -0.000204541589307   0.145217944007396 1
ion Ni  -0.001795872759948   0.501102728517707   0.145208088258052 1
ion Ni   0.499245126315790   0.500307337949878   0.145491953632987 1
ion Ni   0.250171866400775   0.249476051758888   0.049027673751061 1
ion Ni   0.250576789852806   0.750277162201715   0.048573584349071 1
ion Ni  -0.249453023631675   0.250410764497791   0.048539663802260 1
ion Ni  -0.249379390391141   0.749936748299254   0.048560188512439 1
ion Ni   0.000000000000000   0.000000000000000  -0.050000000000000 0
ion Ni   0.500000000000000   0.000000000000000  -0.050000000000000 0
ion Ni   0.000000000000000   0.500000000000000  -0.050000000000000 0
ion Ni   0.500000000000000   0.500000000000000  -0.050000000000000 0
ion Ni   0.250000000000000   0.250000000000000  -0.150000000000000 0
ion Ni   0.250000000000000   0.750000000000000  -0.150000000000000 0
ion Ni  -0.250000000000000   0.250000000000000  -0.150000000000000 0
ion Ni  -0.250000000000000   0.750000000000000  -0.150000000000000 0
ion O   0.252224950497720   0.253831845930053   0.146064569360854 1
ion O   0.254463385947734   0.745558257898516   0.144673661644151 1
ion O  -0.256608771271505   0.255707209189813   0.144743617049460 1
ion O  -0.255970244775011   0.745033732891253   0.144744957233368 1
ion O  -0.000447764923498   0.001569599841322   0.054032372593060 1
ion O   0.500359738527158  -0.000164447697824   0.047877352626061 1
ion O   0.002619564380176   0.500237592712009   0.047833170798592 1
ion O   0.500133158173263   0.498159750075020   0.047453843269244 1
ion O   0.250000000000000   0.250000000000000  -0.050000000000000 0
ion O   0.250000000000000   0.750000000000000  -0.050000000000000 0
ion O  -0.250000000000000   0.250000000000000  -0.050000000000000 0
ion O  -0.250000000000000   0.750000000000000  -0.050000000000000 0
ion O   0.000000000000000   0.000000000000000  -0.150000000000000 0
ion O   0.500000000000000   0.000000000000000  -0.150000000000000 0
ion O   0.000000000000000   0.500000000000000  -0.150000000000000 0
ion O   0.500000000000000   0.500000000000000  -0.150000000000000 0
ion O  -0.008191589230143  -0.006651254407686   0.238502037945864 1
ion H   0.103734782316753   0.103997032316448   0.252600296767917 1

# Forces in Lattice coordinates:
force Ni   0.005136321196373   0.003794519549868   0.025620177190739 1
force Ni   0.000486668835633  -0.002154220025145  -0.004825972048635 1
force Ni  -0.001866677996032   0.005094043365811  -0.005429174934412 1
force Ni  -0.000865026771024  -0.000167337103575  -0.004902395959791 1
force Ni   0.000436974786239   0.000115774565732  -0.021181134308575 1
force Ni   0.002656311181189  -0.001797662279595  -0.032514959708337 1
force Ni  -0.001095229061805   0.000635430265223  -0.037178691228271 1
force Ni  -0.000425857179319  -0.001488838138403  -0.024764142244943 1
force Ni  -0.004589457226057  -0.001761102645876  -0.222261068927062 0
force Ni   0.001200022721836   0.001352441321437  -0.373020477365196 0
force Ni   0.004095543378220  -0.000602040813319  -0.378715306409303 0
force Ni   0.001687697107518  -0.001887205945192  -0.401282867779659 0
force Ni   0.002921018653836   0.001434877099831   0.315181357579750 0
force Ni   0.002865111478908  -0.001482678294131   0.312105343135666 0
force Ni  -0.000461189826128   0.001362631351241   0.318320746519456 0
force Ni  -0.000392534343533  -0.001275495670759   0.316957075973103 0
force O  -0.000157947556607   0.002071018432702  -0.001121436456380 1
force O   0.001183666781017  -0.004140980522297   0.023777502461183 1
force O  -0.005344939972744   0.001824949550950   0.016844583202724 1
force O  -0.004459619357648  -0.001845425609981   0.020180896697189 1
force O  -0.001643181675851  -0.001456003227156  -0.034735892541092 1
force O   0.002809888893375  -0.000539935940565  -0.009754078425743 1
force O  -0.002099443972923   0.000339501536997  -0.009133215541727 1
force O  -0.000613606138410   0.000273007341378  -0.016316698317469 1
force O  -0.015050936142177  -0.010560566885026   0.063414737373955 0
force O  -0.015559249759204   0.010869944135143   0.043103767387183 0
force O   0.006359320513633  -0.010838450378161   0.033224101698685 0
force O   0.005741145685114   0.010104083385805   0.043520558802411 0
force O   0.009677861385383   0.000208323504740   0.057706268507491 0
force O   0.007022543685398  -0.000053602118841   0.051026542982235 0
force O   0.006035620376283  -0.000008427340033   0.052380016000305 0
force O   0.006620585925974   0.000469675357055   0.049809775374985 0
force O  -0.011965162332322  -0.010451024570015  -0.027820754348989 1
force H   0.003008654307770   0.002513726378887   0.029751976879263 1

# Energy components:
   Eewald =     7391.7143118821986718
       EH =     9871.4156502625537541
     Eloc =   -20078.1998442457661440
      Enl =     -852.2945961834618629
   Epulay =        0.0007330941558102
      Exc =     -302.2049668702987901
       KE =     1230.8152056216545134
        U =        2.2168931303012007
-------------------------------------
     Etot =    -2736.5366133086613445
       TS =        0.0009241709316394
-------------------------------------
        F =    -2736.5375374795930838

IonicMinimize: Iter:  10  F: -2736.537537479593084  |grad|_K:  4.156e-04  alpha:  1.000e+00  linmin:  2.859e-03  t[s]:  23715.53
IonicMinimize: Converged (|Delta F|<1.000000e-04 for 3 iters).

#--- Lowdin population analysis ---
# oxidation-state Ni +3.563 +3.714 +3.712 +3.648 +3.342 +3.335 +3.335 +3.338 +3.368 +3.358 +3.358 +3.363 +3.725 +3.723 +3.722 +3.725
# magnetic-moments Ni +0.694 -1.000 +0.994 -0.876 +0.891 +0.886 -0.883 -0.888 -0.917 +0.902 -0.903 +0.905 -1.009 -1.008 +1.007 +1.009
# oxidation-state O -0.595 -0.575 -0.579 -0.576 -0.562 -0.572 -0.572 -0.568 -0.580 -0.580 -0.578 -0.579 -0.631 -0.638 -0.638 -0.638 -0.565
# magnetic-moments O +0.149 +0.180 -0.120 -0.140 -0.023 -0.055 +0.058 -0.047 -0.054 -0.058 +0.056 +0.054 -0.164 +0.134 -0.133 +0.130 +0.257
# oxidation-state H +0.384
# magnetic-moments H -0.005


Dumping 'OH.ionpos' ... done
Dumping 'OH.lattice' ... done
Dumping 'OH.Ecomponents' ... done
End date and time: Sat May 17 10:40:49 2025  (Duration: 0-6:35:18.39)
Done!
File 'min_progress.txt' has been deleted.
File 'min_details.txt' has been deleted.
File 'O_pos.txt' does not exist, so it cannot be deleted.
File 'OH_pos.txt' does not exist, so it cannot be deleted.
Directory 'runs' has been deleted.
File '/data2/jt577/May_2025/Relax_Mag_litU/pure_NiO/runs/wavefunctions/O.wfns' does not exist and cannot be copied.
File '/data2/jt577/May_2025/Relax_Mag_litU/pure_NiO/runs/wavefunctions/OH.wfns' does not exist and cannot be copied.
File '/data2/jt577/May_2025/Relax_Mag_litU/pure_NiO/runs/calc_20250516-211220/O/O.wfns' does not exist and cannot be copied.
File '/data2/jt577/May_2025/Relax_Mag_litU/pure_NiO/runs/calc_20250516-211220/OH/OH.wfns' does not exist and cannot be copied.
File '/data2/jt577/May_2025/Relax_Mag_litU/pure_NiO/runs/calc_20250516-211220/O/O.ionpos' has been copied to '/data2/jt577/May_2025/Relax_Mag_litU/pure_NiO/runs/positions/O.ionpos'.
File '/data2/jt577/May_2025/Relax_Mag_litU/pure_NiO/runs/calc_20250516-211220/O/O.lattice' has been copied to '/data2/jt577/May_2025/Relax_Mag_litU/pure_NiO/runs/positions/O.lattice'.
File '/data2/jt577/May_2025/Relax_Mag_litU/pure_NiO/runs/calc_20250516-211220/OH/OH.ionpos' has been copied to '/data2/jt577/May_2025/Relax_Mag_litU/pure_NiO/runs/positions/OH.ionpos'.
File '/data2/jt577/May_2025/Relax_Mag_litU/pure_NiO/runs/calc_20250516-211220/OH/OH.lattice' has been copied to '/data2/jt577/May_2025/Relax_Mag_litU/pure_NiO/runs/positions/OH.lattice'.
File '/data2/jt577/May_2025/Relax_Mag_litU/pure_NiO/runs/wavefunctions/O.wfns' does not exist and cannot be copied.
File '/data2/jt577/May_2025/Relax_Mag_litU/pure_NiO/runs/wavefunctions/OH.wfns' does not exist and cannot be copied.
Traceback (most recent call last):
  File "/data2/jt577/May_2025/Relax_Mag_litU/pure_NiO/main.py", line 246, in <module>
    x, _, unique_folder = mn.PBFGS(fun=cost, x0=x, jac=grad_cost, args=(elements, target, eta, q, first_iteration, generic_inputs, lattice, positions_ordered, ads_O_pos, ads_OH_pos), S=num_species, B=quasi_Hessian, folder=unique_folder, progress_file_path=progress_file_path, details_file_path=details_file_path, maxit=maxit, tol=1e-2, callback=callback_func)
  File "/data2/jt577/May_2025/Relax_Mag_litU/pure_NiO/modules/minimize.py", line 162, in PBFGS
    unique_folder = bs.perform_calc(x, *args)
  File "/data2/jt577/May_2025/Relax_Mag_litU/pure_NiO/modules/bsruncalc.py", line 152, in perform_calc
    energy_surface(w, adsorbate='O', elements=elements, folder=unique_folder, first_iteration=first_iteration, generic_inputs=generic_inputs, lattice=lattice, positions_ordered=positions_ordered, ads_O_pos=ads_O_pos, ads_OH_pos=ads_OH_pos)
  File "/data2/jt577/May_2025/Relax_Mag_litU/pure_NiO/modules/bsruncalc.py", line 128, in energy_surface
    write_input_surface(weights, adsorbate, elements, folder, first_iteration, generic_inputs, lattice, positions_ordered, ads_O_pos, ads_OH_pos)
  File "/data2/jt577/May_2025/Relax_Mag_litU/pure_NiO/modules/bsruncalc.py", line 82, in write_input_surface
    curr_line = mixed_lines[i]
IndexError: list index out of range
