
*************** JDFTx 1.7.0  ***************

Start date and time: Fri May 16 17:18:36 2025
Executable /data2/jt577/jdftx_eat_withLibXC/build/jdftx with command-line: -i /data2/jt577/May_2025/Relax_Mag_litU/rel1+1_6/O/runs/calc_/run.in
Running on hosts (process indices):  node3304 (0-8)
Divided in process groups (process indices):  0 (0)  1 (1)  2 (2)  3 (3)  4 (4)  5 (5)  6 (6)  7 (7)  8 (8)
Resource initialization completed at t[s]:      0.00
Run totals: 9 processes, 63 threads, 0 GPUs


Input parsed successfully to the following command list (including defaults):

add-mix 
add-U 	Ni d 0.235196 \
	V d 0.113923 \
	Co d 0.121273 \
	Cr d 0.128623
basis kpoint-dependent
coords-type Lattice
core-overlap-check vector
coulomb-interaction Periodic
davidson-band-ratio 1.1
dump End IonicPositions Lattice Ecomponents
dump-name run.$VAR
elec-cutoff 30
elec-eigen-algo Davidson
elec-ex-corr gga-x-rpbe gga-c-pbe
elec-smearing Fermi 0.001
electronic-minimize  \
	dirUpdateScheme      FletcherReeves \
	linminMethod         DirUpdateRecommended \
	nIterations          1000 \
	history              15 \
	knormThreshold       0 \
	energyDiffThreshold  1e-06 \
	nEnergyDiff          5 \
	alphaTstart          1 \
	alphaTmin            1e-10 \
	updateTestStepSize   yes \
	alphaTreduceFactor   0.1 \
	alphaTincreaseFactor 3 \
	nAlphaAdjustMax      3 \
	wolfeEnergy          0.0001 \
	wolfeGradient        0.9 \
	fdTest               no
exchange-regularization WignerSeitzTruncated
fluid None
fluid-ex-corr (null) lda-PZ
fluid-gummel-loop 10 1.000000e-05
fluid-minimize  \
	dirUpdateScheme      PolakRibiere \
	linminMethod         DirUpdateRecommended \
	nIterations          100 \
	history              15 \
	knormThreshold       0 \
	energyDiffThreshold  0 \
	nEnergyDiff          2 \
	alphaTstart          1 \
	alphaTmin            1e-10 \
	updateTestStepSize   yes \
	alphaTreduceFactor   0.1 \
	alphaTincreaseFactor 3 \
	nAlphaAdjustMax      3 \
	wolfeEnergy          0.0001 \
	wolfeGradient        0.9 \
	fdTest               no
fluid-solvent H2O 55.338 ScalarEOS \
	epsBulk 78.4 \
	pMol 0.92466 \
	epsInf 1.77 \
	Pvap 1.06736e-10 \
	sigmaBulk 4.62e-05 \
	Rvdw 2.61727 \
	Res 1.42 \
	tauNuc 343133 \
	poleEl 15 7 1
forces-output-coords Positions
initial-magnetic-moments  \
	Ni 1 -1 1 \
	V -1 1 -1 1 1 -1 -1 \
	Co 1 -1 -1 -1 1 \
	Cr 1
initial-state run.$VAR
ion Ni  0.000000000000000   0.000000000000000   0.150000000000000 1
ion Ni  0.000000000000000   0.000000000000000  -0.050000000000000 0
ion Ni -0.250000000000000   0.250000000000000  -0.150000000000000 0
ion V  0.500000000000000   0.000000000000000   0.150000000000000 1
ion V  0.000000000000000   0.500000000000000   0.150000000000000 1
ion V  0.500000000000000   0.500000000000000   0.150000000000000 1
ion V  0.250000000000000   0.250000000000000   0.050000000000000 1
ion V  0.250000000000000   0.750000000000000   0.050000000000000 1
ion V -0.250000000000000   0.250000000000000   0.050000000000000 1
ion V -0.250000000000000   0.750000000000000   0.050000000000000 1
ion Co  0.500000000000000   0.000000000000000  -0.050000000000000 0
ion Co  0.000000000000000   0.500000000000000  -0.050000000000000 0
ion Co  0.250000000000000   0.250000000000000  -0.150000000000000 0
ion Co  0.250000000000000   0.750000000000000  -0.150000000000000 0
ion Co -0.250000000000000   0.750000000000000  -0.150000000000000 0
ion Cr  0.500000000000000   0.500000000000000  -0.050000000000000 0
ion O  0.250000000000000   0.250000000000000   0.150000000000000 1
ion O  0.250000000000000   0.750000000000000   0.150000000000000 1
ion O -0.250000000000000   0.250000000000000   0.150000000000000 1
ion O -0.250000000000000   0.750000000000000   0.150000000000000 1
ion O  0.000000000000000   0.000000000000000   0.050000000000000 1
ion O  0.500000000000000   0.000000000000000   0.050000000000000 1
ion O  0.000000000000000   0.500000000000000   0.050000000000000 1
ion O  0.500000000000000   0.500000000000000   0.050000000000000 1
ion O  0.250000000000000   0.250000000000000  -0.050000000000000 0
ion O  0.250000000000000   0.750000000000000  -0.050000000000000 0
ion O -0.250000000000000   0.250000000000000  -0.050000000000000 0
ion O -0.250000000000000   0.750000000000000  -0.050000000000000 0
ion O  0.000000000000000   0.000000000000000  -0.150000000000000 0
ion O  0.500000000000000   0.000000000000000  -0.150000000000000 0
ion O  0.000000000000000   0.500000000000000  -0.150000000000000 0
ion O  0.500000000000000   0.500000000000000  -0.150000000000000 0
ion O -0.000095572322686   0.000198307128402   0.224876729873325 1
ion-species SG15/$ID_ONCV_PBE.upf
ion-width 0
ionic-minimize  \
	dirUpdateScheme      L-BFGS \
	linminMethod         DirUpdateRecommended \
	nIterations          1000 \
	history              15 \
	knormThreshold       0.0001 \
	energyDiffThreshold  0.0001 \
	nEnergyDiff          3 \
	alphaTstart          1 \
	alphaTmin            1e-10 \
	updateTestStepSize   yes \
	alphaTreduceFactor   0.1 \
	alphaTincreaseFactor 3 \
	nAlphaAdjustMax      3 \
	wolfeEnergy          0.0001 \
	wolfeGradient        0.9 \
	fdTest               no
kpoint   0.500000000000   0.500000000000   0.500000000000  1.00000000000000
kpoint-folding 3 3 1 
latt-move-scale 1 1 1
latt-scale 1 1 1 
lattice  \
	   8.140000000000001    8.140000000000001    0.000000000000000  \
	   8.140000000000001   -8.140000000000001    0.000000000000000  \
	   0.000000000000000    0.000000000000000   40.700000000000003 
lattice-minimize  \
	dirUpdateScheme      L-BFGS \
	linminMethod         DirUpdateRecommended \
	nIterations          0 \
	history              15 \
	knormThreshold       0 \
	energyDiffThreshold  1e-06 \
	nEnergyDiff          2 \
	alphaTstart          1 \
	alphaTmin            1e-10 \
	updateTestStepSize   yes \
	alphaTreduceFactor   0.1 \
	alphaTincreaseFactor 3 \
	nAlphaAdjustMax      3 \
	wolfeEnergy          0.0001 \
	wolfeGradient        0.9 \
	fdTest               no
lcao-params -1 1e-06 0.001
pcm-variant GLSSA13
spintype z-spin
subspace-rotation-factor 1 yes
symmetries none
symmetry-threshold 0.0001


Applied RMS atom displacement 0 bohrs to make symmetries exact.

---------- Initializing the Grid ----------
R = 
[         8.14         8.14            0  ]
[         8.14        -8.14            0  ]
[            0            0         40.7  ]
unit cell volume = 5393.53
G =
[   0.385945   0.385945         -0  ]
[   0.385945  -0.385945         -0  ]
[         -0         -0   0.154378  ]
Minimum fftbox size, Smin = [  60  60  204  ]
Chosen fftbox size, S = [  60  60  210  ]

---------- Exchange Correlation functional ----------
Initialized LibXC exchange functional 'Hammer, Hansen, and Norskov'
Initialized LibXC correlation functional 'Perdew, Burke & Ernzerhof'

---------- Setting up pseudopotentials ----------
Width of ionic core gaussian charges (only for fluid interactions / plotting) set to 0

Reading pseudopotential file '/data2/jt577/jdftx_eat_withLibXC/build/pseudopotentials/SG15/Ni_ONCV_PBE.upf':
  'Ni' pseudopotential, 'PBE' functional
  Generated using ONCVPSP code by D. R. Hamann
  Author: Martin Schlipf and Francois Gygi  Date: 150915.
  18 valence electrons, 4 orbitals, 6 projectors, 1292 radial grid points, with lMax = 2
  Transforming local potential to a uniform radial grid of dG=0.02 with 1419 points.
  Transforming nonlocal projectors to a uniform radial grid of dG=0.02 with 528 points.
    3S    l: 0   occupation:  2.0   eigenvalue: -4.081355
    3P    l: 1   occupation:  6.0   eigenvalue: -2.623460
    4S    l: 0   occupation:  2.0   eigenvalue: -0.207378
    3D    l: 2   occupation:  8.0   eigenvalue: -0.326118
  Transforming atomic orbitals to a uniform radial grid of dG=0.02 with 528 points.
  WARNING: large normalization error in atomic orbital 1s (integral: 0.000006).
  Core radius for overlap checks: 1.99 bohrs.
  Reading pulay file /data2/jt577/jdftx_eat_withLibXC/build/pseudopotentials/SG15/Ni_ONCV_PBE.pulay ... using dE_dnG = -7.250568e-04 computed for Ecut = 30.

Reading pseudopotential file '/data2/jt577/jdftx_eat_withLibXC/build/pseudopotentials/SG15/V_ONCV_PBE.upf':
  'V' pseudopotential, 'PBE' functional
  Generated using ONCVPSP code by D. R. Hamann
  Author: Martin Schlipf and Francois Gygi  Date: 150915.
  13 valence electrons, 4 orbitals, 6 projectors, 1536 radial grid points, with lMax = 2
  Transforming local potential to a uniform radial grid of dG=0.02 with 1419 points.
  Transforming nonlocal projectors to a uniform radial grid of dG=0.02 with 528 points.
    3S    l: 0   occupation:  2.0   eigenvalue: -2.581105
    3P    l: 1   occupation:  6.0   eigenvalue: -1.618486
    4S    l: 0   occupation:  2.0   eigenvalue: -0.172804
    3D    l: 2   occupation:  3.0   eigenvalue: -0.189795
  Transforming atomic orbitals to a uniform radial grid of dG=0.02 with 528 points.
  Core radius for overlap checks: 1.80 bohrs.
  Reading pulay file /data2/jt577/jdftx_eat_withLibXC/build/pseudopotentials/SG15/V_ONCV_PBE.pulay ... using dE_dnG = -1.698632e-04 computed for Ecut = 30.

Reading pseudopotential file '/data2/jt577/jdftx_eat_withLibXC/build/pseudopotentials/SG15/Co_ONCV_PBE.upf':
  'Co' pseudopotential, 'PBE' functional
  Generated using ONCVPSP code by D. R. Hamann
  Author: Martin Schlipf and Francois Gygi  Date: 150915.
  17 valence electrons, 4 orbitals, 6 projectors, 1388 radial grid points, with lMax = 2
  Transforming local potential to a uniform radial grid of dG=0.02 with 1419 points.
  Transforming nonlocal projectors to a uniform radial grid of dG=0.02 with 528 points.
    3S    l: 0   occupation:  2.0   eigenvalue: -3.763303
    3P    l: 1   occupation:  6.0   eigenvalue: -2.412101
    4S    l: 0   occupation:  2.0   eigenvalue: -0.201022
    3D    l: 2   occupation:  7.0   eigenvalue: -0.301498
  Transforming atomic orbitals to a uniform radial grid of dG=0.02 with 528 points.
  Core radius for overlap checks: 1.94 bohrs.
  Reading pulay file /data2/jt577/jdftx_eat_withLibXC/build/pseudopotentials/SG15/Co_ONCV_PBE.pulay ... using dE_dnG = -9.787391e-05 computed for Ecut = 30.

Reading pseudopotential file '/data2/jt577/jdftx_eat_withLibXC/build/pseudopotentials/SG15/Cr_ONCV_PBE.upf':
  'Cr' pseudopotential, 'PBE' functional
  Generated using ONCVPSP code by D. R. Hamann
  Author: Martin Schlipf and Francois Gygi  Date: 150915.
  14 valence electrons, 4 orbitals, 6 projectors, 1160 radial grid points, with lMax = 2
  Transforming local potential to a uniform radial grid of dG=0.02 with 1419 points.
  Transforming nonlocal projectors to a uniform radial grid of dG=0.02 with 528 points.
    3S    l: 0   occupation:  2.0   eigenvalue: -2.865131
    3P    l: 1   occupation:  6.0   eigenvalue: -1.810600
    4S    l: 0   occupation:  2.0   eigenvalue: -0.180525
    3D    l: 2   occupation:  4.0   eigenvalue: -0.220312
  Transforming atomic orbitals to a uniform radial grid of dG=0.02 with 528 points.
  WARNING: large normalization error in atomic orbital 1s (integral: 0.000001).
  Core radius for overlap checks: 2.10 bohrs.
  Reading pulay file /data2/jt577/jdftx_eat_withLibXC/build/pseudopotentials/SG15/Cr_ONCV_PBE.pulay ... using dE_dnG = -9.817895e-06 computed for Ecut = 30.

Reading pseudopotential file '/data2/jt577/jdftx_eat_withLibXC/build/pseudopotentials/SG15/O_ONCV_PBE.upf':
  'O' pseudopotential, 'PBE' functional
  Generated using ONCVPSP code by D. R. Hamann
  Author: Martin Schlipf and Francois Gygi  Date: 150915.
  6 valence electrons, 2 orbitals, 4 projectors, 936 radial grid points, with lMax = 1
  Transforming local potential to a uniform radial grid of dG=0.02 with 1419 points.
  Transforming nonlocal projectors to a uniform radial grid of dG=0.02 with 528 points.
    2S    l: 0   occupation:  2.0   eigenvalue: -0.880572
    2P    l: 1   occupation:  4.0   eigenvalue: -0.331869
  Transforming atomic orbitals to a uniform radial grid of dG=0.02 with 528 points.
  Core radius for overlap checks: 1.29 bohrs.
  Reading pulay file /data2/jt577/jdftx_eat_withLibXC/build/pseudopotentials/SG15/O_ONCV_PBE.pulay ... using dE_dnG = -8.209514e-03 computed for Ecut = 30.

Initialized 5 species with 33 total atoms.

Folded 1 k-points by 3x3x1 to 9 k-points.

---------- Setting up k-points, bands, fillings ----------
No reducable k-points. 
Computing the number of bands and number of electrons
Calculating initial fillings.
nElectrons: 346.000000   nBands: 228   nStates: 18

----- Setting up reduced wavefunction bases (one per k-point) -----
average nbasis = 42312.000 , ideal nbasis = 42330.081

---------- Setting up ewald sum ----------
Optimum gaussian width for ewald sums = 3.906449 bohr.
Real space sum over 605 unit cells with max indices [  5  5  2  ]
Reciprocal space sum over 5915 terms with max indices [  6  6  17  ]

---------- Allocating electronic variables ----------
Initializing wave functions:  linear combination of atomic orbitals
Ni (M=1) pseudo-atom majority spin occupations:   s ( 1 0.5 )  p ( 3 )  d ( 5 )
Ni (M=1) pseudo-atom minority spin occupations:   s ( 1 0 )  p ( 3 )  d ( 4.5 )
V (M=1) pseudo-atom majority spin occupations:   s ( 1 0 )  p ( 3 )  d ( 3 )
V (M=1) pseudo-atom minority spin occupations:   s ( 1 0 )  p ( 3 )  d ( 2 )
Co (M=1) pseudo-atom majority spin occupations:   s ( 1 0 )  p ( 3 )  d ( 5 )
Co (M=1) pseudo-atom minority spin occupations:   s ( 1 0 )  p ( 3 )  d ( 4 )
Cr (M=1) pseudo-atom majority spin occupations:   s ( 1 0 )  p ( 3 )  d ( 3.5 )
Cr (M=1) pseudo-atom minority spin occupations:   s ( 1 0 )  p ( 3 )  d ( 2.5 )
O pseudo-atom occupations:   s ( 2 )  p ( 4 )
	FillingsUpdate:  mu: +2.108067392  nElectrons: 346.000000  magneticMoment: [ Abs: 6.25021  Tot: -0.00000 ]
LCAOMinimize: Iter:   0  F: -1838.7545653935951577  |grad|_K:  8.350e-02  alpha:  1.000e+00
LCAOMinimize: 	Step increased F by 3.496150e+02, reducing alpha to 4.593301e-02.
LCAOMinimize: 	Step increased F by 3.805456e+00, reducing alpha to 4.593301e-03.
	FillingsUpdate:  mu: +1.293599820  nElectrons: 346.000000  magneticMoment: [ Abs: 8.51346  Tot: -0.00000 ]
LCAOMinimize: Iter:   1  F: -1872.0314128302666177  |grad|_K:  6.955e-02  alpha:  4.593e-03  linmin: -1.404e-01  cgtest:  8.480e-01  t[s]:     93.75
LCAOMinimize: Encountered beta<0, resetting CG.
LCAOMinimize: 	Predicted alpha/alphaT>3.000000, increasing alphaT to 1.377990e-02.
	FillingsUpdate:  mu: -0.075089869  nElectrons: 346.000000  magneticMoment: [ Abs: 11.62715  Tot: -0.00000 ]
LCAOMinimize: Iter:   2  F: -1904.2016235790356404  |grad|_K:  2.071e-02  alpha:  1.407e-02  linmin: -1.339e-02  cgtest:  3.210e-02  t[s]:    120.97
	FillingsUpdate:  mu: +0.223100943  nElectrons: 346.000000  magneticMoment: [ Abs: 13.09990  Tot: -0.00000 ]
LCAOMinimize: Iter:   3  F: -1908.6547770420470442  |grad|_K:  2.078e-02  alpha:  2.677e-02  linmin:  4.075e-02  cgtest: -3.681e-01  t[s]:    142.70
LCAOMinimize: 	Bad step direction: g.d > 0.
LCAOMinimize: 	Undoing step.
LCAOMinimize: 	Step failed: resetting search direction.
	FillingsUpdate:  mu: +0.223100943  nElectrons: 346.000000  magneticMoment: [ Abs: 13.09990  Tot: -0.00000 ]
LCAOMinimize: Iter:   4  F: -1908.6547770420470442  |grad|_K:  2.078e-02  alpha:  0.000e+00
	FillingsUpdate:  mu: -0.049745824  nElectrons: 346.000000  magneticMoment: [ Abs: 14.16520  Tot: -0.00000 ]
LCAOMinimize: Iter:   5  F: -1910.8653453515660203  |grad|_K:  1.139e-02  alpha:  1.369e-02  linmin:  1.017e-02  cgtest: -1.837e-01  t[s]:    180.00
LCAOMinimize: 	Wrong curvature in test step, increasing alphaT to 4.106650e-02.
	FillingsUpdate:  mu: +0.007424820  nElectrons: 346.000000  magneticMoment: [ Abs: 15.05927  Tot: -0.00000 ]
LCAOMinimize: Iter:   6  F: -1912.5029128622270491  |grad|_K:  1.079e-02  alpha: -9.589e-02  linmin: -4.622e-02  cgtest:  8.329e-01  t[s]:    200.19
	FillingsUpdate:  mu: +0.424927472  nElectrons: 346.000000  magneticMoment: [ Abs: 19.17523  Tot: -0.00000 ]
LCAOMinimize: Iter:   7  F: -1918.3546813317746000  |grad|_K:  2.704e-02  alpha:  8.054e-02  linmin:  4.808e-04  cgtest: -1.907e-01  t[s]:    221.88
	FillingsUpdate:  mu: +0.610187952  nElectrons: 346.000000  magneticMoment: [ Abs: 20.69165  Tot: -0.00000 ]
LCAOMinimize: Iter:   8  F: -1919.4335167869426186  |grad|_K:  3.310e-02  alpha:  4.690e-03  linmin:  1.835e-03  cgtest:  1.037e+00  t[s]:    243.73
LCAOMinimize: 	Predicted alpha/alphaT>3.000000, increasing alphaT to 1.406933e-02.
	FillingsUpdate:  mu: +0.870356137  nElectrons: 346.000000  magneticMoment: [ Abs: 10.29395  Tot: -0.00000 ]
LCAOMinimize: Iter:   9  F: -1922.7412886162237555  |grad|_K:  5.157e-02  alpha:  4.097e-02  linmin:  4.831e-02  cgtest: -8.705e-01  t[s]:    271.41
LCAOMinimize: 	Bad step direction: g.d > 0.
LCAOMinimize: 	Undoing step.
LCAOMinimize: 	Step failed: resetting search direction.
	FillingsUpdate:  mu: +0.870356137  nElectrons: 346.000000  magneticMoment: [ Abs: 10.29395  Tot: -0.00000 ]
LCAOMinimize: Iter:  10  F: -1922.7412886162237555  |grad|_K:  5.157e-02  alpha:  0.000e+00
	FillingsUpdate:  mu: -0.190472840  nElectrons: 346.000000  magneticMoment: [ Abs: 14.65967  Tot: +0.00000 ]
LCAOMinimize: Iter:  11  F: -1937.3277717754917830  |grad|_K:  2.105e-02  alpha:  7.469e-03  linmin: -1.167e-01  cgtest:  2.844e-01  t[s]:    307.97
	FillingsUpdate:  mu: +0.044924843  nElectrons: 346.000000  magneticMoment: [ Abs: 17.18203  Tot: -0.00000 ]
LCAOMinimize: Iter:  12  F: -1939.9343656298531187  |grad|_K:  1.215e-02  alpha:  1.101e-02  linmin:  2.317e-03  cgtest:  1.655e-01  t[s]:    328.93
LCAOMinimize: 	Step increased F by 1.312207e-01, reducing alpha to 2.082708e-03.
	FillingsUpdate:  mu: +0.057935288  nElectrons: 346.000000  magneticMoment: [ Abs: 17.20387  Tot: +0.00000 ]
LCAOMinimize: Iter:  13  F: -1940.2209277002048111  |grad|_K:  1.132e-02  alpha:  2.083e-03  linmin: -1.277e-01  cgtest:  9.465e-01  t[s]:    364.98
LCAOMinimize: Encountered beta<0, resetting CG.
LCAOMinimize: 	Predicted alpha/alphaT>3.000000, increasing alphaT to 6.248124e-03.
LCAOMinimize: 	Step increased F by 3.093349e-01, reducing alpha to 1.737361e-03.
	FillingsUpdate:  mu: +0.069943805  nElectrons: 346.000000  magneticMoment: [ Abs: 17.11460  Tot: -0.00000 ]
LCAOMinimize: Iter:  14  F: -1940.4253331534507652  |grad|_K:  1.018e-02  alpha:  1.737e-03  linmin: -1.478e-01  cgtest:  9.470e-01  t[s]:    406.89
LCAOMinimize: Encountered beta<0, resetting CG.
LCAOMinimize: 	Predicted alpha/alphaT>3.000000, increasing alphaT to 5.212084e-03.
LCAOMinimize: 	Predicted alpha/alphaT>3.000000, increasing alphaT to 1.563625e-02.
	FillingsUpdate:  mu: +0.096973753  nElectrons: 346.000000  magneticMoment: [ Abs: 16.78788  Tot: +0.00000 ]
LCAOMinimize: Iter:  15  F: -1940.9785772101765815  |grad|_K:  6.322e-03  alpha:  8.777e-03  linmin: -1.742e-02  cgtest:  2.092e-01  t[s]:    439.43
LCAOMinimize: 	Predicted alpha/alphaT>3.000000, increasing alphaT to 2.633123e-02.
	FillingsUpdate:  mu: +0.160221493  nElectrons: 346.000000  magneticMoment: [ Abs: 17.98890  Tot: +0.00000 ]
LCAOMinimize: Iter:  16  F: -1941.3983702748853375  |grad|_K:  4.998e-03  alpha:  1.781e-02  linmin:  3.917e-03  cgtest:  1.866e-02  t[s]:    466.18
	FillingsUpdate:  mu: +0.142378055  nElectrons: 346.000000  magneticMoment: [ Abs: 18.18904  Tot: -0.00000 ]
LCAOMinimize: Iter:  17  F: -1941.7974178902309177  |grad|_K:  5.675e-03  alpha:  3.365e-02  linmin: -4.309e-03  cgtest:  9.902e-02  t[s]:    487.18
	FillingsUpdate:  mu: +0.075589166  nElectrons: 346.000000  magneticMoment: [ Abs: 18.89946  Tot: +0.00000 ]
LCAOMinimize: Iter:  18  F: -1942.1231211740598610  |grad|_K:  4.788e-03  alpha:  2.203e-02  linmin: -4.714e-04  cgtest: -2.631e-01  t[s]:    508.62
	FillingsUpdate:  mu: +0.096985518  nElectrons: 346.000000  magneticMoment: [ Abs: 19.37456  Tot: +0.00000 ]
LCAOMinimize: Iter:  19  F: -1942.3097524773645546  |grad|_K:  2.277e-03  alpha:  1.657e-02  linmin:  1.317e-03  cgtest:  1.515e-01  t[s]:    530.08
	FillingsUpdate:  mu: +0.134509444  nElectrons: 346.000000  magneticMoment: [ Abs: 20.44824  Tot: -0.00000 ]
LCAOMinimize: Iter:  20  F: -1942.3754132551023304  |grad|_K:  2.297e-03  alpha:  2.730e-02  linmin:  3.204e-04  cgtest:  7.914e-02  t[s]:    551.58
	FillingsUpdate:  mu: +0.134647404  nElectrons: 346.000000  magneticMoment: [ Abs: 21.41346  Tot: +0.00000 ]
LCAOMinimize: Iter:  21  F: -1942.4870345178355819  |grad|_K:  2.648e-03  alpha:  4.635e-02  linmin:  1.446e-03  cgtest: -8.068e-02  t[s]:    573.09
	FillingsUpdate:  mu: +0.109549336  nElectrons: 346.000000  magneticMoment: [ Abs: 22.30590  Tot: -0.00000 ]
LCAOMinimize: Iter:  22  F: -1942.5305730407767442  |grad|_K:  1.737e-03  alpha:  1.642e-02  linmin:  2.861e-03  cgtest: -7.080e-02  t[s]:    594.64
	FillingsUpdate:  mu: +0.128342491  nElectrons: 346.000000  magneticMoment: [ Abs: 23.55439  Tot: +0.00000 ]
LCAOMinimize: Iter:  23  F: -1942.5756149384119453  |grad|_K:  1.179e-03  alpha:  3.380e-02  linmin: -4.004e-03  cgtest:  3.622e-01  t[s]:    616.24
	FillingsUpdate:  mu: +0.108923675  nElectrons: 346.000000  magneticMoment: [ Abs: 24.64364  Tot: +0.00000 ]
LCAOMinimize: Iter:  24  F: -1942.6451292171573186  |grad|_K:  1.838e-03  alpha:  9.186e-02  linmin: -3.534e-03  cgtest:  7.305e-02  t[s]:    637.89
	FillingsUpdate:  mu: +0.154048527  nElectrons: 346.000000  magneticMoment: [ Abs: 26.00983  Tot: -0.00000 ]
LCAOMinimize: Iter:  25  F: -1942.6824224501647222  |grad|_K:  2.543e-03  alpha:  4.067e-02  linmin:  3.863e-03  cgtest: -6.838e-01  t[s]:    659.55
	FillingsUpdate:  mu: +0.156329514  nElectrons: 346.000000  magneticMoment: [ Abs: 26.82544  Tot: -0.00000 ]
LCAOMinimize: Iter:  26  F: -1942.6996369601697552  |grad|_K:  2.074e-03  alpha:  9.205e-03  linmin: -1.138e-03  cgtest:  1.016e+00  t[s]:    681.57
LCAOMinimize: Encountered beta<0, resetting CG.
	FillingsUpdate:  mu: +0.121589605  nElectrons: 346.000000  magneticMoment: [ Abs: 26.90475  Tot: -0.00000 ]
LCAOMinimize: Iter:  27  F: -1942.7314345619713549  |grad|_K:  1.659e-03  alpha:  1.930e-02  linmin:  5.744e-02  cgtest: -3.673e-01  t[s]:    703.37
	FillingsUpdate:  mu: +0.111385728  nElectrons: 346.000000  magneticMoment: [ Abs: 26.86394  Tot: +0.00000 ]
LCAOMinimize: Iter:  28  F: -1942.7376196262785015  |grad|_K:  1.967e-03  alpha:  9.826e-03  linmin: -4.405e-04  cgtest:  9.084e-01  t[s]:    725.37
	FillingsUpdate:  mu: +0.116960726  nElectrons: 346.000000  magneticMoment: [ Abs: 26.87414  Tot: +0.00000 ]
LCAOMinimize: Iter:  29  F: -1942.7603163323742592  |grad|_K:  7.777e-04  alpha:  1.254e-02  linmin:  8.095e-03  cgtest: -1.707e-01  t[s]:    747.34
LCAOMinimize: 	Predicted alpha/alphaT>3.000000, increasing alphaT to 3.762356e-02.
	FillingsUpdate:  mu: +0.130831422  nElectrons: 346.000000  magneticMoment: [ Abs: 27.40369  Tot: +0.00000 ]
LCAOMinimize: Iter:  30  F: -1942.7753987157518623  |grad|_K:  7.055e-04  alpha:  5.378e-02  linmin: -5.688e-03  cgtest:  1.168e-01  t[s]:    775.36
LCAOMinimize: None of the convergence criteria satisfied after 30 iterations.


---- Citations for features of the code used in this run ----

   Software package:
      R. Sundararaman, K. Letchworth-Weaver, K.A. Schwarz, D. Gunceler, Y. Ozhabes and T.A. Arias, 'JDFTx: software for joint density-functional theory', SoftwareX 6, 278 (2017)

   Simplified rotationally-invariant DFT+U:
      S. L. Dudarev et al., Phys. Rev. B 57, 1505 (1998)

   LibXC library of exchange-correlation functions:
      M. A. L. Marques, M. J. T. Oliveira and T. Burnus, Comput. Phys. Commun. 183, 2272 (2012)

   Hammer, Hansen, and Norskov exchange functional:
      B. Hammer, L. B. Hansen, and J. K. Nørskov, Phys. Rev. B 59, 7413 (1999)

   Perdew, Burke & Ernzerhof correlation functional:
      J. P. Perdew, K. Burke, and M. Ernzerhof, Phys. Rev. Lett. 77, 3865 (1996)

   Pseudopotentials:
      M Schlipf and F Gygi, Comput. Phys. Commun. 196, 36 (2015)

   Total energy minimization with Auxiliary Hamiltonian:
      C. Freysoldt, S. Boeck, and J. Neugebauer, Phys. Rev. B 79, 241103(R) (2009)

This list may not be complete. Please suggest additional citations or
report any other bugs at https://github.com/shankar1729/jdftx/issues

Initialization completed successfully at t[s]:    782.69


-------- Electronic minimization -----------
	FillingsUpdate:  mu: +0.130831464  nElectrons: 346.000000  magneticMoment: [ Abs: 27.40369  Tot: +0.00000 ]
ElecMinimize: Iter:   0  F: -1942.775398715751408  |grad|_K:  7.615e-04  alpha:  1.000e+00
	FillingsUpdate:  mu: +0.044386247  nElectrons: 346.000000  magneticMoment: [ Abs: 26.97017  Tot: -0.00000 ]
	SubspaceRotationAdjust: set factor to 0.995
ElecMinimize: Iter:   1  F: -1968.520326864912704  |grad|_K:  8.957e-04  alpha:  4.738e-01  linmin:  6.589e-03  t[s]:    850.92
	FillingsUpdate:  mu: +0.924592923  nElectrons: 346.000000  magneticMoment: [ Abs: 30.05400  Tot: +0.00000 ]
	SubspaceRotationAdjust: set factor to 0.587
ElecMinimize: Iter:   2  F: -1970.330177941275224  |grad|_K:  1.379e-03  alpha:  1.111e-01  linmin:  4.269e-03  t[s]:    897.20
	FillingsUpdate:  mu: +0.557664235  nElectrons: 346.000000  magneticMoment: [ Abs: 33.88256  Tot: -0.00000 ]
	SubspaceRotationAdjust: set factor to 0.377
ElecMinimize: Iter:   3  F: -1974.190815392276818  |grad|_K:  6.035e-04  alpha:  2.719e-02  linmin:  1.225e-03  t[s]:    942.38
ElecMinimize: 	Predicted alpha/alphaT>3.000000, increasing alphaT to 8.158327e-02.
	FillingsUpdate:  mu: +0.378556853  nElectrons: 346.000000  magneticMoment: [ Abs: 32.30106  Tot: +0.00000 ]
	SubspaceRotationAdjust: set factor to 0.222
ElecMinimize: Iter:   4  F: -1983.170908606061630  |grad|_K:  5.000e-04  alpha:  1.746e-01  linmin:  6.533e-04  t[s]:   1001.91
	FillingsUpdate:  mu: +0.266030159  nElectrons: 346.000000  magneticMoment: [ Abs: 32.88610  Tot: -0.00000 ]
	SubspaceRotationAdjust: set factor to 0.366
ElecMinimize: Iter:   5  F: -1984.436595536408504  |grad|_K:  3.846e-04  alpha:  1.716e-02  linmin: -4.246e-03  t[s]:   1047.57
ElecMinimize: 	Predicted alpha/alphaT>3.000000, increasing alphaT to 5.146871e-02.
	FillingsUpdate:  mu: +0.241638244  nElectrons: 346.000000  magneticMoment: [ Abs: 34.31741  Tot: +0.00000 ]
	SubspaceRotationAdjust: set factor to 0.362
ElecMinimize: Iter:   6  F: -1987.921560931594513  |grad|_K:  3.150e-04  alpha:  7.746e-02  linmin: -1.251e-04  t[s]:   1107.04
	FillingsUpdate:  mu: +0.277426544  nElectrons: 346.000000  magneticMoment: [ Abs: 34.39757  Tot: -0.00000 ]
	SubspaceRotationAdjust: set factor to 0.33
ElecMinimize: Iter:   7  F: -1988.589122440239862  |grad|_K:  3.102e-04  alpha:  3.051e-02  linmin: -9.426e-04  t[s]:   1153.78
	FillingsUpdate:  mu: +0.250378516  nElectrons: 346.000000  magneticMoment: [ Abs: 34.24821  Tot: +0.00000 ]
	SubspaceRotationAdjust: set factor to 0.228
ElecMinimize: Iter:   8  F: -1989.264356160238549  |grad|_K:  3.035e-04  alpha:  3.436e-02  linmin: -1.640e-04  t[s]:   1199.87
	FillingsUpdate:  mu: +0.192738830  nElectrons: 346.000000  magneticMoment: [ Abs: 34.23137  Tot: -0.00000 ]
	SubspaceRotationAdjust: set factor to 0.185
ElecMinimize: Iter:   9  F: -1989.767933262902943  |grad|_K:  2.285e-04  alpha:  3.019e-02  linmin:  1.580e-04  t[s]:   1246.27
	FillingsUpdate:  mu: +0.181807773  nElectrons: 346.000000  magneticMoment: [ Abs: 34.19740  Tot: -0.00000 ]
	SubspaceRotationAdjust: set factor to 0.175
ElecMinimize: Iter:  10  F: -1989.992078807555345  |grad|_K:  2.067e-04  alpha:  2.314e-02  linmin:  2.024e-04  t[s]:   1292.04
	FillingsUpdate:  mu: +0.200634450  nElectrons: 346.000000  magneticMoment: [ Abs: 34.21334  Tot: +0.00000 ]
	SubspaceRotationAdjust: set factor to 0.14
ElecMinimize: Iter:  11  F: -1990.125195688380700  |grad|_K:  2.271e-04  alpha:  1.873e-02  linmin:  5.187e-05  t[s]:   1337.86
	FillingsUpdate:  mu: +0.179222698  nElectrons: 346.000000  magneticMoment: [ Abs: 34.50769  Tot: -0.00000 ]
	SubspaceRotationAdjust: set factor to 0.105
	SubspaceRotationAdjust: resetting CG because factor has changed by 0.105472
ElecMinimize: 	State modified externally: resetting search direction.
ElecMinimize: Iter:  12  F: -1990.310205345552049  |grad|_K:  2.123e-04  alpha:  2.095e-02
ElecMinimize: 	Predicted alpha/alphaT>3.000000, increasing alphaT to 6.285339e-02.
	FillingsUpdate:  mu: +0.145127806  nElectrons: 346.000000  magneticMoment: [ Abs: 35.45816  Tot: +0.00000 ]
	SubspaceRotationAdjust: set factor to 0.108
ElecMinimize: Iter:  13  F: -1991.388545564449259  |grad|_K:  8.262e-05  alpha:  1.324e-01  linmin: -1.377e-02  t[s]:   1462.92
	FillingsUpdate:  mu: +0.149380063  nElectrons: 346.000000  magneticMoment: [ Abs: 35.69142  Tot: +0.00000 ]
	SubspaceRotationAdjust: set factor to 0.12
ElecMinimize: Iter:  14  F: -1991.727743262836157  |grad|_K:  5.404e-05  alpha:  2.516e-01  linmin:  1.665e-05  t[s]:   1509.06
	FillingsUpdate:  mu: +0.159052626  nElectrons: 346.000000  magneticMoment: [ Abs: 35.45841  Tot: +0.00000 ]
	SubspaceRotationAdjust: set factor to 0.124
ElecMinimize: Iter:  15  F: -1991.907789090151027  |grad|_K:  5.601e-05  alpha:  3.752e-01  linmin:  7.060e-04  t[s]:   1555.02
	FillingsUpdate:  mu: +0.140433373  nElectrons: 346.000000  magneticMoment: [ Abs: 35.54675  Tot: +0.00000 ]
	SubspaceRotationAdjust: set factor to 0.117
ElecMinimize: Iter:  16  F: -1992.043458603115369  |grad|_K:  4.717e-05  alpha:  2.813e-01  linmin:  1.641e-06  t[s]:   1601.08
	FillingsUpdate:  mu: +0.112284772  nElectrons: 346.000000  magneticMoment: [ Abs: 35.97249  Tot: -0.00000 ]
	SubspaceRotationAdjust: set factor to 0.127
ElecMinimize: Iter:  17  F: -1992.152831855983322  |grad|_K:  3.388e-05  alpha:  2.824e-01  linmin:  8.889e-05  t[s]:   1647.33
	FillingsUpdate:  mu: +0.114155042  nElectrons: 346.000000  magneticMoment: [ Abs: 36.45140  Tot: -0.00000 ]
	SubspaceRotationAdjust: set factor to 0.158
ElecMinimize: Iter:  18  F: -1992.228301492196124  |grad|_K:  3.080e-05  alpha:  3.860e-01  linmin: -2.629e-05  t[s]:   1693.24
	FillingsUpdate:  mu: +0.120899116  nElectrons: 346.000000  magneticMoment: [ Abs: 36.83074  Tot: +0.00000 ]
	SubspaceRotationAdjust: set factor to 0.139
ElecMinimize: Iter:  19  F: -1992.274070944200503  |grad|_K:  3.400e-05  alpha:  2.707e-01  linmin: -2.216e-05  t[s]:   1739.02
	FillingsUpdate:  mu: +0.123576331  nElectrons: 346.000000  magneticMoment: [ Abs: 37.31377  Tot: -0.00000 ]
	SubspaceRotationAdjust: set factor to 0.125
ElecMinimize: Iter:  20  F: -1992.318516627655526  |grad|_K:  2.812e-05  alpha:  2.200e-01  linmin: -3.263e-05  t[s]:   1784.62
	FillingsUpdate:  mu: +0.122399473  nElectrons: 346.000000  magneticMoment: [ Abs: 37.83989  Tot: +0.00000 ]
	SubspaceRotationAdjust: set factor to 0.137
ElecMinimize: Iter:  21  F: -1992.375943400420283  |grad|_K:  2.607e-05  alpha:  4.156e-01  linmin:  3.026e-05  t[s]:   1830.43
	FillingsUpdate:  mu: +0.119575063  nElectrons: 346.000000  magneticMoment: [ Abs: 38.24253  Tot: +0.00000 ]
	SubspaceRotationAdjust: set factor to 0.151
ElecMinimize: Iter:  22  F: -1992.426237417527091  |grad|_K:  2.711e-05  alpha:  4.354e-01  linmin: -1.810e-05  t[s]:   1876.15
	FillingsUpdate:  mu: +0.126394661  nElectrons: 346.000000  magneticMoment: [ Abs: 38.66372  Tot: -0.00000 ]
	SubspaceRotationAdjust: set factor to 0.15
ElecMinimize: Iter:  23  F: -1992.475346486529588  |grad|_K:  3.018e-05  alpha:  3.519e-01  linmin: -2.019e-05  t[s]:   1921.81
	FillingsUpdate:  mu: +0.125156224  nElectrons: 346.000000  magneticMoment: [ Abs: 38.67426  Tot: +0.00000 ]
	SubspaceRotationAdjust: set factor to 0.201
ElecMinimize: Iter:  24  F: -1992.476206614898729  |grad|_K:  2.926e-05  alpha:  7.159e-03  linmin: -1.110e-03  t[s]:   1967.67
ElecMinimize: 	Predicted alpha/alphaT>3.000000, increasing alphaT to 2.147761e-02.
ElecMinimize: 	Predicted alpha/alphaT>3.000000, increasing alphaT to 6.443284e-02.
	FillingsUpdate:  mu: +0.128715938  nElectrons: 346.000000  magneticMoment: [ Abs: 38.81094  Tot: -0.00000 ]
	SubspaceRotationAdjust: set factor to 0.155
ElecMinimize: Iter:  25  F: -1992.499944527251500  |grad|_K:  2.562e-05  alpha:  8.292e-02  linmin:  5.683e-04  t[s]:   2039.89
	FillingsUpdate:  mu: +0.128467046  nElectrons: 346.000000  magneticMoment: [ Abs: 38.82111  Tot: +0.00000 ]
	SubspaceRotationAdjust: set factor to 0.158
ElecMinimize: Iter:  26  F: -1992.500938490697990  |grad|_K:  2.356e-05  alpha:  9.205e-03  linmin: -4.793e-04  t[s]:   2085.95
ElecMinimize: 	Predicted alpha/alphaT>3.000000, increasing alphaT to 2.761364e-02.
	FillingsUpdate:  mu: +0.119874399  nElectrons: 346.000000  magneticMoment: [ Abs: 38.84339  Tot: +0.00000 ]
	SubspaceRotationAdjust: set factor to 0.203
ElecMinimize: Iter:  27  F: -1992.504583663174117  |grad|_K:  1.840e-05  alpha:  2.886e-02  linmin:  2.075e-04  t[s]:   2144.70
	FillingsUpdate:  mu: +0.115925854  nElectrons: 346.000000  magneticMoment: [ Abs: 38.85014  Tot: +0.00000 ]
	SubspaceRotationAdjust: set factor to 0.282
ElecMinimize: Iter:  28  F: -1992.505426233052049  |grad|_K:  1.655e-05  alpha:  1.552e-02  linmin: -3.129e-05  t[s]:   2190.08
	FillingsUpdate:  mu: +0.112545989  nElectrons: 346.000000  magneticMoment: [ Abs: 38.85800  Tot: -0.00000 ]
	SubspaceRotationAdjust: set factor to 0.371
ElecMinimize: Iter:  29  F: -1992.506149803875132  |grad|_K:  1.554e-05  alpha:  1.493e-02  linmin:  2.632e-05  t[s]:   2235.79
	FillingsUpdate:  mu: +0.111600096  nElectrons: 346.000000  magneticMoment: [ Abs: 38.86984  Tot: +0.00000 ]
	SubspaceRotationAdjust: set factor to 0.344
ElecMinimize: Iter:  30  F: -1992.506725021365583  |grad|_K:  1.666e-05  alpha:  1.382e-02  linmin:  1.559e-05  t[s]:   2281.15
	FillingsUpdate:  mu: +0.112561109  nElectrons: 346.000000  magneticMoment: [ Abs: 38.89089  Tot: -0.00000 ]
	SubspaceRotationAdjust: set factor to 0.263
ElecMinimize: Iter:  31  F: -1992.507365195429884  |grad|_K:  1.749e-05  alpha:  1.332e-02  linmin:  2.141e-05  t[s]:   2326.48
	FillingsUpdate:  mu: +0.112341832  nElectrons: 346.000000  magneticMoment: [ Abs: 38.91961  Tot: +0.00000 ]
	SubspaceRotationAdjust: set factor to 0.2
ElecMinimize: Iter:  32  F: -1992.508036873785386  |grad|_K:  1.587e-05  alpha:  1.270e-02  linmin:  3.084e-05  t[s]:   2372.00
	FillingsUpdate:  mu: +0.111169026  nElectrons: 346.000000  magneticMoment: [ Abs: 38.94858  Tot: +0.00000 ]
	SubspaceRotationAdjust: set factor to 0.171
ElecMinimize: Iter:  33  F: -1992.508607935146301  |grad|_K:  1.332e-05  alpha:  1.315e-02  linmin:  3.223e-05  t[s]:   2417.15
	FillingsUpdate:  mu: +0.110769815  nElectrons: 346.000000  magneticMoment: [ Abs: 38.97475  Tot: -0.00000 ]
	SubspaceRotationAdjust: set factor to 0.164
ElecMinimize: Iter:  34  F: -1992.509063774589777  |grad|_K:  1.166e-05  alpha:  1.491e-02  linmin:  1.978e-05  t[s]:   2463.01
	FillingsUpdate:  mu: +0.111607433  nElectrons: 346.000000  magneticMoment: [ Abs: 38.99971  Tot: +0.00000 ]
	SubspaceRotationAdjust: set factor to 0.156
ElecMinimize: Iter:  35  F: -1992.509465902606280  |grad|_K:  1.121e-05  alpha:  1.708e-02  linmin:  5.922e-06  t[s]:   2508.50
	FillingsUpdate:  mu: +0.113937413  nElectrons: 346.000000  magneticMoment: [ Abs: 39.02617  Tot: +0.00000 ]
	SubspaceRotationAdjust: set factor to 0.134
ElecMinimize: Iter:  36  F: -1992.509880006128924  |grad|_K:  1.148e-05  alpha:  1.897e-02  linmin: -1.811e-06  t[s]:   2554.42
	FillingsUpdate:  mu: +0.116110148  nElectrons: 346.000000  magneticMoment: [ Abs: 39.05561  Tot: +0.00000 ]
	SubspaceRotationAdjust: set factor to 0.108
ElecMinimize: Iter:  37  F: -1992.510350869927379  |grad|_K:  1.166e-05  alpha:  2.053e-02  linmin: -4.315e-06  t[s]:   2600.64
	FillingsUpdate:  mu: +0.116966035  nElectrons: 346.000000  magneticMoment: [ Abs: 39.08647  Tot: +0.00000 ]
	SubspaceRotationAdjust: set factor to 0.0881
ElecMinimize: Iter:  38  F: -1992.510874150181962  |grad|_K:  1.125e-05  alpha:  2.210e-02  linmin: -8.724e-06  t[s]:   2645.94
	FillingsUpdate:  mu: +0.116817437  nElectrons: 346.000000  magneticMoment: [ Abs: 39.11561  Tot: -0.00000 ]
	SubspaceRotationAdjust: set factor to 0.0779
ElecMinimize: Iter:  39  F: -1992.511406709011681  |grad|_K:  1.045e-05  alpha:  2.412e-02  linmin: -2.137e-05  t[s]:   2691.15
	FillingsUpdate:  mu: +0.115886199  nElectrons: 346.000000  magneticMoment: [ Abs: 39.14148  Tot: +0.00000 ]
	SubspaceRotationAdjust: set factor to 0.0758
ElecMinimize: Iter:  40  F: -1992.511913555873889  |grad|_K:  9.700e-06  alpha:  2.656e-02  linmin: -3.823e-05  t[s]:   2736.92
	FillingsUpdate:  mu: +0.113914243  nElectrons: 346.000000  magneticMoment: [ Abs: 39.16475  Tot: -0.00000 ]
	SubspaceRotationAdjust: set factor to 0.0773
ElecMinimize: Iter:  41  F: -1992.512388434917511  |grad|_K:  9.267e-06  alpha:  2.878e-02  linmin: -5.255e-05  t[s]:   2782.70
	FillingsUpdate:  mu: +0.112843314  nElectrons: 346.000000  magneticMoment: [ Abs: 39.18764  Tot: +0.00000 ]
	SubspaceRotationAdjust: set factor to 0.0761
ElecMinimize: Iter:  42  F: -1992.512848045594637  |grad|_K:  9.192e-06  alpha:  3.045e-02  linmin: -6.342e-05  t[s]:   2829.50
	FillingsUpdate:  mu: +0.113016943  nElectrons: 346.000000  magneticMoment: [ Abs: 39.21305  Tot: +0.00000 ]
	SubspaceRotationAdjust: set factor to 0.07
ElecMinimize: Iter:  43  F: -1992.513321358738040  |grad|_K:  9.335e-06  alpha:  3.183e-02  linmin: -7.213e-05  t[s]:   2875.48
	FillingsUpdate:  mu: +0.113081842  nElectrons: 346.000000  magneticMoment: [ Abs: 39.24341  Tot: +0.00000 ]
	SubspaceRotationAdjust: set factor to 0.0628
ElecMinimize: Iter:  44  F: -1992.513831069224807  |grad|_K:  9.453e-06  alpha:  3.319e-02  linmin: -7.718e-05  t[s]:   2921.10
	FillingsUpdate:  mu: +0.113204530  nElectrons: 346.000000  magneticMoment: [ Abs: 39.27944  Tot: +0.00000 ]
	SubspaceRotationAdjust: set factor to 0.0591
ElecMinimize: Iter:  45  F: -1992.514375250889088  |grad|_K:  9.449e-06  alpha:  3.452e-02  linmin: -7.966e-05  t[s]:   2966.75
	FillingsUpdate:  mu: +0.113356320  nElectrons: 346.000000  magneticMoment: [ Abs: 39.31997  Tot: +0.00000 ]
	SubspaceRotationAdjust: set factor to 0.0623
ElecMinimize: Iter:  46  F: -1992.514935576882408  |grad|_K:  9.474e-06  alpha:  3.553e-02  linmin: -8.698e-05  t[s]:   3012.08
	FillingsUpdate:  mu: +0.113837616  nElectrons: 346.000000  magneticMoment: [ Abs: 39.36380  Tot: +0.00000 ]
	SubspaceRotationAdjust: set factor to 0.0741
ElecMinimize: Iter:  47  F: -1992.515502608527868  |grad|_K:  9.715e-06  alpha:  3.568e-02  linmin: -1.023e-04  t[s]:   3057.36
	FillingsUpdate:  mu: +0.114534491  nElectrons: 346.000000  magneticMoment: [ Abs: 39.41058  Tot: -0.00000 ]
	SubspaceRotationAdjust: set factor to 0.0944
ElecMinimize: Iter:  48  F: -1992.516083598951582  |grad|_K:  1.025e-05  alpha:  3.462e-02  linmin: -1.206e-04  t[s]:   3103.13
	FillingsUpdate:  mu: +0.114570881  nElectrons: 346.000000  magneticMoment: [ Abs: 39.46067  Tot: +0.00000 ]
	SubspaceRotationAdjust: set factor to 0.119
ElecMinimize: Iter:  49  F: -1992.516697544142289  |grad|_K:  1.108e-05  alpha:  3.271e-02  linmin: -1.361e-04  t[s]:   3148.53
	FillingsUpdate:  mu: +0.114503894  nElectrons: 346.000000  magneticMoment: [ Abs: 39.51468  Tot: +0.00000 ]
	SubspaceRotationAdjust: set factor to 0.142
ElecMinimize: Iter:  50  F: -1992.517369871069604  |grad|_K:  1.213e-05  alpha:  3.049e-02  linmin: -1.451e-04  t[s]:   3194.18
	FillingsUpdate:  mu: +0.115597350  nElectrons: 346.000000  magneticMoment: [ Abs: 39.57194  Tot: -0.00000 ]
	SubspaceRotationAdjust: set factor to 0.163
ElecMinimize: Iter:  51  F: -1992.518114523525128  |grad|_K:  1.314e-05  alpha:  2.803e-02  linmin: -1.436e-04  t[s]:   3239.70
	FillingsUpdate:  mu: +0.115395720  nElectrons: 346.000000  magneticMoment: [ Abs: 39.62929  Tot: -0.00000 ]
	SubspaceRotationAdjust: set factor to 0.19
ElecMinimize: Iter:  52  F: -1992.518906280082092  |grad|_K:  1.387e-05  alpha:  2.529e-02  linmin: -1.305e-04  t[s]:   3285.02
	FillingsUpdate:  mu: +0.113811733  nElectrons: 346.000000  magneticMoment: [ Abs: 39.68292  Tot: -0.00000 ]
	SubspaceRotationAdjust: set factor to 0.228
ElecMinimize: Iter:  53  F: -1992.519692889404723  |grad|_K:  1.438e-05  alpha:  2.256e-02  linmin: -1.117e-04  t[s]:   3330.83
	FillingsUpdate:  mu: +0.112866518  nElectrons: 346.000000  magneticMoment: [ Abs: 39.73272  Tot: -0.00000 ]
	SubspaceRotationAdjust: set factor to 0.267
ElecMinimize: Iter:  54  F: -1992.520448617502780  |grad|_K:  1.500e-05  alpha:  2.024e-02  linmin: -9.610e-05  t[s]:   3376.45
	FillingsUpdate:  mu: +0.114107462  nElectrons: 346.000000  magneticMoment: [ Abs: 39.78232  Tot: -0.00000 ]
	SubspaceRotationAdjust: set factor to 0.289
ElecMinimize: Iter:  55  F: -1992.521199627880833  |grad|_K:  1.594e-05  alpha:  1.854e-02  linmin: -8.993e-05  t[s]:   3421.84
	FillingsUpdate:  mu: +0.113881589  nElectrons: 346.000000  magneticMoment: [ Abs: 39.83772  Tot: -0.00000 ]
	SubspaceRotationAdjust: set factor to 0.294
ElecMinimize: Iter:  56  F: -1992.522002479693356  |grad|_K:  1.686e-05  alpha:  1.757e-02  linmin: -9.508e-05  t[s]:   3467.28
	FillingsUpdate:  mu: +0.113209200  nElectrons: 346.000000  magneticMoment: [ Abs: 39.90345  Tot: +0.00000 ]
	SubspaceRotationAdjust: set factor to 0.31
ElecMinimize: Iter:  57  F: -1992.522888938934557  |grad|_K:  1.706e-05  alpha:  1.726e-02  linmin: -1.005e-04  t[s]:   3512.88
	FillingsUpdate:  mu: +0.112770173  nElectrons: 346.000000  magneticMoment: [ Abs: 39.97671  Tot: -0.00000 ]
	SubspaceRotationAdjust: set factor to 0.383
ElecMinimize: Iter:  58  F: -1992.523790216205043  |grad|_K:  1.647e-05  alpha:  1.707e-02  linmin: -7.809e-05  t[s]:   3558.66
	FillingsUpdate:  mu: +0.112726322  nElectrons: 346.000000  magneticMoment: [ Abs: 40.04658  Tot: -0.00000 ]
	SubspaceRotationAdjust: set factor to 0.516
ElecMinimize: Iter:  59  F: -1992.524587126456481  |grad|_K:  1.634e-05  alpha:  1.633e-02  linmin: -4.367e-05  t[s]:   3604.24
	FillingsUpdate:  mu: +0.115966961  nElectrons: 346.000000  magneticMoment: [ Abs: 40.11072  Tot: +0.00000 ]
	SubspaceRotationAdjust: set factor to 0.566
ElecMinimize: Iter:  60  F: -1992.525316951178638  |grad|_K:  1.793e-05  alpha:  1.540e-02  linmin: -3.295e-05  t[s]:   3650.09
	FillingsUpdate:  mu: +0.119668682  nElectrons: 346.000000  magneticMoment: [ Abs: 40.17289  Tot: -0.00000 ]
	SubspaceRotationAdjust: set factor to 0.528
ElecMinimize: Iter:  61  F: -1992.526139038885503  |grad|_K:  1.983e-05  alpha:  1.448e-02  linmin: -4.406e-05  t[s]:   3695.67
	FillingsUpdate:  mu: +0.119567260  nElectrons: 346.000000  magneticMoment: [ Abs: 40.22609  Tot: +0.00000 ]
	SubspaceRotationAdjust: set factor to 0.559
ElecMinimize: Iter:  62  F: -1992.527088746673371  |grad|_K:  1.906e-05  alpha:  1.362e-02  linmin: -5.677e-05  t[s]:   3741.07
	FillingsUpdate:  mu: +0.114994109  nElectrons: 346.000000  magneticMoment: [ Abs: 40.25930  Tot: +0.00000 ]
	SubspaceRotationAdjust: set factor to 0.799
	SubspaceRotationAdjust: resetting CG because factor has changed by 7.57948
ElecMinimize: 	State modified externally: resetting search direction.
ElecMinimize: Iter:  63  F: -1992.527973037971378  |grad|_K:  1.794e-05  alpha:  1.359e-02
ElecMinimize: 	Predicted alpha/alphaT>3.000000, increasing alphaT to 4.078182e-02.
	FillingsUpdate:  mu: +0.115929270  nElectrons: 346.000000  magneticMoment: [ Abs: 40.22856  Tot: +0.00000 ]
	SubspaceRotationAdjust: set factor to 0.459
ElecMinimize: Iter:  64  F: -1992.534243885132355  |grad|_K:  3.347e-05  alpha:  1.095e-01  linmin: -8.134e-04  t[s]:   3868.04
	FillingsUpdate:  mu: +0.138224817  nElectrons: 346.000000  magneticMoment: [ Abs: 40.34970  Tot: +0.00000 ]
	SubspaceRotationAdjust: set factor to 0.289
ElecMinimize: Iter:  65  F: -1992.549518236526865  |grad|_K:  2.615e-05  alpha:  8.034e-02  linmin: -5.064e-04  t[s]:   3914.11
	FillingsUpdate:  mu: +0.117071564  nElectrons: 346.000000  magneticMoment: [ Abs: 40.17901  Tot: -0.00000 ]
	SubspaceRotationAdjust: set factor to 0.144
ElecMinimize: Iter:  66  F: -1992.562303664420142  |grad|_K:  1.692e-05  alpha:  1.113e-01  linmin:  2.177e-03  t[s]:   3960.77
	FillingsUpdate:  mu: +0.123191036  nElectrons: 346.000000  magneticMoment: [ Abs: 40.27095  Tot: -0.00000 ]
	SubspaceRotationAdjust: set factor to 0.114
ElecMinimize: Iter:  67  F: -1992.569093420386707  |grad|_K:  1.379e-05  alpha:  1.654e-01  linmin: -3.090e-04  t[s]:   4007.96
	FillingsUpdate:  mu: +0.116472002  nElectrons: 346.000000  magneticMoment: [ Abs: 40.24811  Tot: +0.00000 ]
	SubspaceRotationAdjust: set factor to 0.137
ElecMinimize: Iter:  68  F: -1992.577025957263913  |grad|_K:  8.018e-06  alpha:  2.344e-01  linmin: -7.543e-05  t[s]:   4054.37
	FillingsUpdate:  mu: +0.116827665  nElectrons: 346.000000  magneticMoment: [ Abs: 40.21266  Tot: +0.00000 ]
	SubspaceRotationAdjust: set factor to 0.138
ElecMinimize: Iter:  69  F: -1992.580322723926201  |grad|_K:  6.142e-06  alpha:  2.926e-01  linmin: -2.939e-04  t[s]:   4100.00
	FillingsUpdate:  mu: +0.116657412  nElectrons: 346.000000  magneticMoment: [ Abs: 40.23389  Tot: -0.00000 ]
	SubspaceRotationAdjust: set factor to 0.108
	SubspaceRotationAdjust: resetting CG because factor has changed by 0.134844
ElecMinimize: 	State modified externally: resetting search direction.
ElecMinimize: Iter:  70  F: -1992.581787838814762  |grad|_K:  4.597e-06  alpha:  2.229e-01
	FillingsUpdate:  mu: +0.114667512  nElectrons: 346.000000  magneticMoment: [ Abs: 40.20208  Tot: -0.00000 ]
	SubspaceRotationAdjust: set factor to 0.123
ElecMinimize: Iter:  71  F: -1992.582581871464527  |grad|_K:  2.899e-06  alpha:  2.158e-01  linmin:  1.646e-04  t[s]:   4213.13
	FillingsUpdate:  mu: +0.115266140  nElectrons: 346.000000  magneticMoment: [ Abs: 40.21381  Tot: +0.00000 ]
	SubspaceRotationAdjust: set factor to 0.114
ElecMinimize: Iter:  72  F: -1992.583164777045567  |grad|_K:  2.688e-06  alpha:  3.984e-01  linmin: -1.422e-04  t[s]:   4258.73
	FillingsUpdate:  mu: +0.114428203  nElectrons: 346.000000  magneticMoment: [ Abs: 40.18538  Tot: -0.00000 ]
	SubspaceRotationAdjust: set factor to 0.118
ElecMinimize: Iter:  73  F: -1992.583698790575227  |grad|_K:  2.553e-06  alpha:  4.229e-01  linmin: -6.202e-05  t[s]:   4304.61
	FillingsUpdate:  mu: +0.115598625  nElectrons: 346.000000  magneticMoment: [ Abs: 40.18501  Tot: +0.00000 ]
	SubspaceRotationAdjust: set factor to 0.117
ElecMinimize: Iter:  74  F: -1992.584281912109873  |grad|_K:  2.147e-06  alpha:  5.123e-01  linmin: -8.032e-06  t[s]:   4350.68
	FillingsUpdate:  mu: +0.115027470  nElectrons: 346.000000  magneticMoment: [ Abs: 40.16235  Tot: -0.00000 ]
	SubspaceRotationAdjust: set factor to 0.111
ElecMinimize: Iter:  75  F: -1992.584598678863813  |grad|_K:  2.112e-06  alpha:  3.953e-01  linmin: -1.934e-06  t[s]:   4396.18
	FillingsUpdate:  mu: +0.114278189  nElectrons: 346.000000  magneticMoment: [ Abs: 40.16425  Tot: -0.00000 ]
	SubspaceRotationAdjust: set factor to 0.101
ElecMinimize: Iter:  76  F: -1992.584960319756192  |grad|_K:  2.059e-06  alpha:  4.647e-01  linmin: -8.772e-05  t[s]:   4442.21
	FillingsUpdate:  mu: +0.113948359  nElectrons: 346.000000  magneticMoment: [ Abs: 40.13755  Tot: +0.00000 ]
	SubspaceRotationAdjust: set factor to 0.102
ElecMinimize: Iter:  77  F: -1992.585287434029397  |grad|_K:  1.953e-06  alpha:  4.408e-01  linmin: -2.392e-05  t[s]:   4487.66
	FillingsUpdate:  mu: +0.115089945  nElectrons: 346.000000  magneticMoment: [ Abs: 40.12943  Tot: +0.00000 ]
	SubspaceRotationAdjust: set factor to 0.108
ElecMinimize: Iter:  78  F: -1992.585677575627415  |grad|_K:  2.136e-06  alpha:  5.853e-01  linmin: -5.930e-05  t[s]:   4533.63
	FillingsUpdate:  mu: +0.115083149  nElectrons: 346.000000  magneticMoment: [ Abs: 40.11266  Tot: +0.00000 ]
	SubspaceRotationAdjust: set factor to 0.116
ElecMinimize: Iter:  79  F: -1992.586167177933476  |grad|_K:  2.527e-06  alpha:  6.127e-01  linmin: -8.568e-06  t[s]:   4579.66
	FillingsUpdate:  mu: +0.114521036  nElectrons: 346.000000  magneticMoment: [ Abs: 40.10641  Tot: +0.00000 ]
	SubspaceRotationAdjust: set factor to 0.128
ElecMinimize: Iter:  80  F: -1992.586785382033213  |grad|_K:  2.734e-06  alpha:  5.550e-01  linmin:  1.504e-05  t[s]:   4625.73
	FillingsUpdate:  mu: +0.114726291  nElectrons: 346.000000  magneticMoment: [ Abs: 40.11458  Tot: +0.00000 ]
	SubspaceRotationAdjust: set factor to 0.137
ElecMinimize: Iter:  81  F: -1992.587444299374511  |grad|_K:  2.654e-06  alpha:  5.070e-01  linmin:  1.819e-05  t[s]:   4672.63
	FillingsUpdate:  mu: +0.114259672  nElectrons: 346.000000  magneticMoment: [ Abs: 40.10233  Tot: -0.00000 ]
	SubspaceRotationAdjust: set factor to 0.137
ElecMinimize: Iter:  82  F: -1992.588036397576843  |grad|_K:  2.929e-06  alpha:  4.839e-01  linmin:  1.032e-05  t[s]:   4718.86
	FillingsUpdate:  mu: +0.114016069  nElectrons: 346.000000  magneticMoment: [ Abs: 40.12503  Tot: +0.00000 ]
	SubspaceRotationAdjust: set factor to 0.126
ElecMinimize: Iter:  83  F: -1992.588678239566889  |grad|_K:  3.054e-06  alpha:  4.308e-01  linmin: -6.104e-05  t[s]:   4765.31
	FillingsUpdate:  mu: +0.113798717  nElectrons: 346.000000  magneticMoment: [ Abs: 40.10699  Tot: +0.00000 ]
	SubspaceRotationAdjust: set factor to 0.123
ElecMinimize: Iter:  84  F: -1992.589384764216220  |grad|_K:  2.905e-06  alpha:  4.320e-01  linmin: -3.526e-05  t[s]:   4811.81
	FillingsUpdate:  mu: +0.115192140  nElectrons: 346.000000  magneticMoment: [ Abs: 40.11801  Tot: +0.00000 ]
	SubspaceRotationAdjust: set factor to 0.138
ElecMinimize: Iter:  85  F: -1992.590046236238322  |grad|_K:  2.648e-06  alpha:  4.484e-01  linmin: -6.188e-05  t[s]:   4858.35
	FillingsUpdate:  mu: +0.114869639  nElectrons: 346.000000  magneticMoment: [ Abs: 40.12334  Tot: -0.00000 ]
	SubspaceRotationAdjust: set factor to 0.159
ElecMinimize: Iter:  86  F: -1992.590611102993307  |grad|_K:  2.531e-06  alpha:  4.602e-01  linmin: -4.061e-05  t[s]:   4904.96
	FillingsUpdate:  mu: +0.113781721  nElectrons: 346.000000  magneticMoment: [ Abs: 40.12142  Tot: +0.00000 ]
	SubspaceRotationAdjust: set factor to 0.177
ElecMinimize: Iter:  87  F: -1992.591101838919940  |grad|_K:  2.539e-06  alpha:  4.384e-01  linmin: -2.549e-05  t[s]:   4950.72
	FillingsUpdate:  mu: +0.113582804  nElectrons: 346.000000  magneticMoment: [ Abs: 40.14115  Tot: +0.00000 ]
	SubspaceRotationAdjust: set factor to 0.172
ElecMinimize: Iter:  88  F: -1992.591572188986675  |grad|_K:  2.671e-06  alpha:  4.179e-01  linmin: -9.446e-06  t[s]:   4996.10
	FillingsUpdate:  mu: +0.112901192  nElectrons: 346.000000  magneticMoment: [ Abs: 40.12606  Tot: -0.00000 ]
	SubspaceRotationAdjust: set factor to 0.151
ElecMinimize: Iter:  89  F: -1992.591995018821763  |grad|_K:  2.538e-06  alpha:  3.409e-01  linmin: -2.393e-05  t[s]:   5041.88
	FillingsUpdate:  mu: +0.113596405  nElectrons: 346.000000  magneticMoment: [ Abs: 40.14177  Tot: -0.00000 ]
	SubspaceRotationAdjust: set factor to 0.152
ElecMinimize: Iter:  90  F: -1992.592402379428677  |grad|_K:  2.201e-06  alpha:  3.620e-01  linmin:  1.180e-06  t[s]:   5087.29
	FillingsUpdate:  mu: +0.113723476  nElectrons: 346.000000  magneticMoment: [ Abs: 40.14042  Tot: +0.00000 ]
	SubspaceRotationAdjust: set factor to 0.176
ElecMinimize: Iter:  91  F: -1992.592763497729266  |grad|_K:  2.123e-06  alpha:  4.283e-01  linmin: -1.111e-06  t[s]:   5132.99
	FillingsUpdate:  mu: +0.113420549  nElectrons: 346.000000  magneticMoment: [ Abs: 40.14142  Tot: +0.00000 ]
	SubspaceRotationAdjust: set factor to 0.203
ElecMinimize: Iter:  92  F: -1992.593112492520049  |grad|_K:  2.178e-06  alpha:  4.446e-01  linmin:  2.442e-06  t[s]:   5179.05
	FillingsUpdate:  mu: +0.113358689  nElectrons: 346.000000  magneticMoment: [ Abs: 40.15874  Tot: -0.00000 ]
	SubspaceRotationAdjust: set factor to 0.216
ElecMinimize: Iter:  93  F: -1992.593470701344131  |grad|_K:  2.438e-06  alpha:  4.339e-01  linmin:  3.893e-06  t[s]:   5225.04
	FillingsUpdate:  mu: +0.112505245  nElectrons: 346.000000  magneticMoment: [ Abs: 40.14896  Tot: +0.00000 ]
	SubspaceRotationAdjust: set factor to 0.195
ElecMinimize: Iter:  94  F: -1992.593825428301898  |grad|_K:  2.787e-06  alpha:  3.427e-01  linmin:  2.634e-06  t[s]:   5271.54
	FillingsUpdate:  mu: +0.113561072  nElectrons: 346.000000  magneticMoment: [ Abs: 40.18150  Tot: -0.00000 ]
	SubspaceRotationAdjust: set factor to 0.18
ElecMinimize: Iter:  95  F: -1992.594244134602604  |grad|_K:  2.633e-06  alpha:  3.097e-01  linmin:  4.963e-06  t[s]:   5316.93
	FillingsUpdate:  mu: +0.113934129  nElectrons: 346.000000  magneticMoment: [ Abs: 40.19180  Tot: +0.00000 ]
	SubspaceRotationAdjust: set factor to 0.19
ElecMinimize: Iter:  96  F: -1992.594754224080816  |grad|_K:  2.787e-06  alpha:  4.334e-01  linmin:  3.689e-04  t[s]:   5362.54
	FillingsUpdate:  mu: +0.114870156  nElectrons: 346.000000  magneticMoment: [ Abs: 40.21276  Tot: -0.00000 ]
	SubspaceRotationAdjust: set factor to 0.216
ElecMinimize: Iter:  97  F: -1992.595201169485790  |grad|_K:  2.781e-06  alpha:  3.385e-01  linmin:  1.793e-04  t[s]:   5408.28
	FillingsUpdate:  mu: +0.113545268  nElectrons: 346.000000  magneticMoment: [ Abs: 40.24652  Tot: +0.00000 ]
	SubspaceRotationAdjust: set factor to 0.212
ElecMinimize: Iter:  98  F: -1992.595584120613239  |grad|_K:  3.209e-06  alpha:  2.919e-01  linmin: -2.897e-05  t[s]:   5454.35
	FillingsUpdate:  mu: +0.112900905  nElectrons: 346.000000  magneticMoment: [ Abs: 40.25122  Tot: +0.00000 ]
	SubspaceRotationAdjust: set factor to 0.241
ElecMinimize: Iter:  99  F: -1992.596026036809235  |grad|_K:  3.105e-06  alpha:  2.441e-01  linmin:  6.919e-05  t[s]:   5500.31
	FillingsUpdate:  mu: +0.112816091  nElectrons: 346.000000  magneticMoment: [ Abs: 40.28018  Tot: -0.00000 ]
	SubspaceRotationAdjust: set factor to 0.273
ElecMinimize: Iter: 100  F: -1992.596502900335736  |grad|_K:  3.368e-06  alpha:  2.868e-01  linmin:  1.100e-05  t[s]:   5546.45
	FillingsUpdate:  mu: +0.114102732  nElectrons: 346.000000  magneticMoment: [ Abs: 40.28633  Tot: -0.00000 ]
	SubspaceRotationAdjust: set factor to 0.281
ElecMinimize: Iter: 101  F: -1992.597001473002820  |grad|_K:  3.443e-06  alpha:  2.514e-01  linmin:  7.361e-05  t[s]:   5592.62
	FillingsUpdate:  mu: +0.115384766  nElectrons: 346.000000  magneticMoment: [ Abs: 40.32069  Tot: -0.00000 ]
	SubspaceRotationAdjust: set factor to 0.268
ElecMinimize: Iter: 102  F: -1992.597419106019743  |grad|_K:  3.911e-06  alpha:  2.053e-01  linmin: -6.792e-06  t[s]:   5638.25
	FillingsUpdate:  mu: +0.114036151  nElectrons: 346.000000  magneticMoment: [ Abs: 40.31640  Tot: -0.00000 ]
	SubspaceRotationAdjust: set factor to 0.235
ElecMinimize: Iter: 103  F: -1992.597838750462415  |grad|_K:  3.518e-06  alpha:  1.553e-01  linmin:  3.090e-05  t[s]:   5683.94
	FillingsUpdate:  mu: +0.113083670  nElectrons: 346.000000  magneticMoment: [ Abs: 40.33921  Tot: +0.00000 ]
	SubspaceRotationAdjust: set factor to 0.228
ElecMinimize: Iter: 104  F: -1992.598263678372632  |grad|_K:  3.246e-06  alpha:  1.982e-01  linmin: -3.555e-05  t[s]:   5730.05
	FillingsUpdate:  mu: +0.114011155  nElectrons: 346.000000  magneticMoment: [ Abs: 40.33102  Tot: -0.00000 ]
	SubspaceRotationAdjust: set factor to 0.231
ElecMinimize: Iter: 105  F: -1992.598695987083374  |grad|_K:  3.059e-06  alpha:  2.352e-01  linmin:  1.136e-04  t[s]:   5776.26
	FillingsUpdate:  mu: +0.114800689  nElectrons: 346.000000  magneticMoment: [ Abs: 40.34415  Tot: -0.00000 ]
	SubspaceRotationAdjust: set factor to 0.224
ElecMinimize: Iter: 106  F: -1992.599004644536308  |grad|_K:  3.017e-06  alpha:  1.953e-01  linmin: -9.286e-06  t[s]:   5822.86
	FillingsUpdate:  mu: +0.114268509  nElectrons: 346.000000  magneticMoment: [ Abs: 40.33131  Tot: +0.00000 ]
	SubspaceRotationAdjust: set factor to 0.223
ElecMinimize: Iter: 107  F: -1992.599302657674343  |grad|_K:  2.709e-06  alpha:  1.876e-01  linmin:  1.687e-05  t[s]:   5869.36
	FillingsUpdate:  mu: +0.113568188  nElectrons: 346.000000  magneticMoment: [ Abs: 40.34105  Tot: -0.00000 ]
	SubspaceRotationAdjust: set factor to 0.227
ElecMinimize: Iter: 108  F: -1992.599574329368352  |grad|_K:  2.551e-06  alpha:  2.132e-01  linmin: -2.409e-05  t[s]:   5915.34
	FillingsUpdate:  mu: +0.114227657  nElectrons: 346.000000  magneticMoment: [ Abs: 40.32854  Tot: +0.00000 ]
	SubspaceRotationAdjust: set factor to 0.242
ElecMinimize: Iter: 109  F: -1992.599833995994459  |grad|_K:  2.464e-06  alpha:  2.283e-01  linmin:  2.930e-05  t[s]:   5960.69
	FillingsUpdate:  mu: +0.114901174  nElectrons: 346.000000  magneticMoment: [ Abs: 40.33418  Tot: +0.00000 ]
	SubspaceRotationAdjust: set factor to 0.238
ElecMinimize: Iter: 110  F: -1992.600054853769507  |grad|_K:  2.592e-06  alpha:  2.102e-01  linmin: -5.535e-06  t[s]:   6006.20
	FillingsUpdate:  mu: +0.114461382  nElectrons: 346.000000  magneticMoment: [ Abs: 40.31768  Tot: -0.00000 ]
	SubspaceRotationAdjust: set factor to 0.244
ElecMinimize: Iter: 111  F: -1992.600283041987495  |grad|_K:  2.550e-06  alpha:  1.949e-01  linmin: -7.745e-06  t[s]:   6051.60
	FillingsUpdate:  mu: +0.113445386  nElectrons: 346.000000  magneticMoment: [ Abs: 40.32306  Tot: -0.00000 ]
	SubspaceRotationAdjust: set factor to 0.239
ElecMinimize: Iter: 112  F: -1992.600528788794463  |grad|_K:  2.626e-06  alpha:  2.168e-01  linmin:  1.483e-05  t[s]:   6097.17
	FillingsUpdate:  mu: +0.113786901  nElectrons: 346.000000  magneticMoment: [ Abs: 40.30652  Tot: +0.00000 ]
	SubspaceRotationAdjust: set factor to 0.247
ElecMinimize: Iter: 113  F: -1992.600790782156082  |grad|_K:  2.588e-06  alpha:  2.188e-01  linmin: -2.872e-06  t[s]:   6142.79
	FillingsUpdate:  mu: +0.114436177  nElectrons: 346.000000  magneticMoment: [ Abs: 40.31062  Tot: -0.00000 ]
	SubspaceRotationAdjust: set factor to 0.238
ElecMinimize: Iter: 114  F: -1992.601034865017482  |grad|_K:  2.662e-06  alpha:  2.091e-01  linmin:  7.057e-06  t[s]:   6188.80
	FillingsUpdate:  mu: +0.114181505  nElectrons: 346.000000  magneticMoment: [ Abs: 40.29548  Tot: +0.00000 ]
	SubspaceRotationAdjust: set factor to 0.246
ElecMinimize: Iter: 115  F: -1992.601278542904993  |grad|_K:  2.523e-06  alpha:  1.980e-01  linmin: -2.471e-05  t[s]:   6235.06
	FillingsUpdate:  mu: +0.113270430  nElectrons: 346.000000  magneticMoment: [ Abs: 40.30249  Tot: +0.00000 ]
	SubspaceRotationAdjust: set factor to 0.239
ElecMinimize: Iter: 116  F: -1992.601506602592735  |grad|_K:  2.483e-06  alpha:  2.048e-01  linmin:  3.129e-05  t[s]:   6281.31
	FillingsUpdate:  mu: +0.113613566  nElectrons: 346.000000  magneticMoment: [ Abs: 40.28952  Tot: -0.00000 ]
	SubspaceRotationAdjust: set factor to 0.254
ElecMinimize: Iter: 117  F: -1992.601738327493649  |grad|_K:  2.422e-06  alpha:  2.172e-01  linmin: -2.745e-05  t[s]:   6327.44
	FillingsUpdate:  mu: +0.114357032  nElectrons: 346.000000  magneticMoment: [ Abs: 40.29509  Tot: -0.00000 ]
	SubspaceRotationAdjust: set factor to 0.256
ElecMinimize: Iter: 118  F: -1992.601960765550757  |grad|_K:  2.439e-06  alpha:  2.164e-01  linmin:  2.884e-05  t[s]:   6373.54
	FillingsUpdate:  mu: +0.114312125  nElectrons: 346.000000  magneticMoment: [ Abs: 40.28574  Tot: -0.00000 ]
	SubspaceRotationAdjust: set factor to 0.269
ElecMinimize: Iter: 119  F: -1992.602173636590578  |grad|_K:  2.487e-06  alpha:  2.070e-01  linmin: -2.762e-05  t[s]:   6419.43
	FillingsUpdate:  mu: +0.113530583  nElectrons: 346.000000  magneticMoment: [ Abs: 40.29998  Tot: +0.00000 ]
	SubspaceRotationAdjust: set factor to 0.261
ElecMinimize: Iter: 120  F: -1992.602383352602601  |grad|_K:  2.518e-06  alpha:  1.933e-01  linmin:  3.612e-05  t[s]:   6465.59
	FillingsUpdate:  mu: +0.113509007  nElectrons: 346.000000  magneticMoment: [ Abs: 40.29461  Tot: -0.00000 ]
	SubspaceRotationAdjust: set factor to 0.272
ElecMinimize: Iter: 121  F: -1992.602598371352087  |grad|_K:  2.408e-06  alpha:  1.963e-01  linmin: -5.007e-05  t[s]:   6511.44
	FillingsUpdate:  mu: +0.114011138  nElectrons: 346.000000  magneticMoment: [ Abs: 40.30820  Tot: -0.00000 ]
	SubspaceRotationAdjust: set factor to 0.276
ElecMinimize: Iter: 122  F: -1992.602818046895436  |grad|_K:  2.462e-06  alpha:  2.157e-01  linmin:  5.885e-05  t[s]:   6557.19
	FillingsUpdate:  mu: +0.114076402  nElectrons: 346.000000  magneticMoment: [ Abs: 40.30602  Tot: +0.00000 ]
	SubspaceRotationAdjust: set factor to 0.28
ElecMinimize: Iter: 123  F: -1992.603014919773386  |grad|_K:  2.503e-06  alpha:  1.894e-01  linmin: -2.503e-05  t[s]:   6603.40
	FillingsUpdate:  mu: +0.113649323  nElectrons: 346.000000  magneticMoment: [ Abs: 40.32850  Tot: +0.00000 ]
	SubspaceRotationAdjust: set factor to 0.275
ElecMinimize: Iter: 124  F: -1992.603209935381301  |grad|_K:  2.421e-06  alpha:  1.776e-01  linmin:  2.982e-05  t[s]:   6649.59
	FillingsUpdate:  mu: +0.113458983  nElectrons: 346.000000  magneticMoment: [ Abs: 40.33326  Tot: -0.00000 ]
	SubspaceRotationAdjust: set factor to 0.287
ElecMinimize: Iter: 125  F: -1992.603409232450758  |grad|_K:  2.329e-06  alpha:  1.962e-01  linmin: -6.412e-05  t[s]:   6695.66
	FillingsUpdate:  mu: +0.113782633  nElectrons: 346.000000  magneticMoment: [ Abs: 40.35461  Tot: -0.00000 ]
	SubspaceRotationAdjust: set factor to 0.293
ElecMinimize: Iter: 126  F: -1992.603607993618652  |grad|_K:  2.401e-06  alpha:  2.079e-01  linmin:  4.391e-05  t[s]:   6741.89
	FillingsUpdate:  mu: +0.113904329  nElectrons: 346.000000  magneticMoment: [ Abs: 40.35791  Tot: -0.00000 ]
	SubspaceRotationAdjust: set factor to 0.283
ElecMinimize: Iter: 127  F: -1992.603784319106353  |grad|_K:  2.479e-06  alpha:  1.779e-01  linmin: -1.992e-05  t[s]:   6788.21
	FillingsUpdate:  mu: +0.113872962  nElectrons: 346.000000  magneticMoment: [ Abs: 40.38662  Tot: +0.00000 ]
	SubspaceRotationAdjust: set factor to 0.281
ElecMinimize: Iter: 128  F: -1992.603974057464029  |grad|_K:  2.306e-06  alpha:  1.765e-01  linmin:  1.468e-05  t[s]:   6834.15
	FillingsUpdate:  mu: +0.113214490  nElectrons: 346.000000  magneticMoment: [ Abs: 40.39949  Tot: -0.00000 ]
	SubspaceRotationAdjust: set factor to 0.284
ElecMinimize: Iter: 129  F: -1992.604159816570700  |grad|_K:  2.281e-06  alpha:  2.010e-01  linmin: -3.992e-05  t[s]:   6879.81
	FillingsUpdate:  mu: +0.113238643  nElectrons: 346.000000  magneticMoment: [ Abs: 40.42799  Tot: +0.00000 ]
	SubspaceRotationAdjust: set factor to 0.283
ElecMinimize: Iter: 130  F: -1992.604345289459843  |grad|_K:  2.300e-06  alpha:  2.029e-01  linmin:  2.283e-05  t[s]:   6925.61
	FillingsUpdate:  mu: +0.113219977  nElectrons: 346.000000  magneticMoment: [ Abs: 40.43400  Tot: +0.00000 ]
	SubspaceRotationAdjust: set factor to 0.268
ElecMinimize: Iter: 131  F: -1992.604502302440324  |grad|_K:  2.241e-06  alpha:  1.716e-01  linmin: -5.809e-06  t[s]:   6971.79
	FillingsUpdate:  mu: +0.113256520  nElectrons: 346.000000  magneticMoment: [ Abs: 40.45951  Tot: +0.00000 ]
	SubspaceRotationAdjust: set factor to 0.28
ElecMinimize: Iter: 132  F: -1992.604672129886922  |grad|_K:  2.072e-06  alpha:  1.939e-01  linmin:  4.522e-06  t[s]:   7018.25
	FillingsUpdate:  mu: +0.112540076  nElectrons: 346.000000  magneticMoment: [ Abs: 40.46940  Tot: +0.00000 ]
	SubspaceRotationAdjust: set factor to 0.289
ElecMinimize: Iter: 133  F: -1992.604828601149165  |grad|_K:  2.008e-06  alpha:  2.095e-01  linmin: -2.721e-05  t[s]:   7064.07
	FillingsUpdate:  mu: +0.112800831  nElectrons: 346.000000  magneticMoment: [ Abs: 40.49093  Tot: +0.00000 ]
	SubspaceRotationAdjust: set factor to 0.296
ElecMinimize: Iter: 134  F: -1992.604972593788261  |grad|_K:  2.047e-06  alpha:  2.037e-01  linmin:  1.001e-05  t[s]:   7109.99
	FillingsUpdate:  mu: +0.112895432  nElectrons: 346.000000  magneticMoment: [ Abs: 40.49124  Tot: -0.00000 ]
	SubspaceRotationAdjust: set factor to 0.282
ElecMinimize: Iter: 135  F: -1992.605092625202133  |grad|_K:  1.993e-06  alpha:  1.649e-01  linmin: -1.103e-06  t[s]:   7155.95
	FillingsUpdate:  mu: +0.113099565  nElectrons: 346.000000  magneticMoment: [ Abs: 40.50572  Tot: +0.00000 ]
	SubspaceRotationAdjust: set factor to 0.304
ElecMinimize: Iter: 136  F: -1992.605227094748443  |grad|_K:  1.878e-06  alpha:  1.946e-01  linmin:  1.109e-05  t[s]:   7202.38
	FillingsUpdate:  mu: +0.112333517  nElectrons: 346.000000  magneticMoment: [ Abs: 40.50386  Tot: -0.00000 ]
	SubspaceRotationAdjust: set factor to 0.314
ElecMinimize: Iter: 137  F: -1992.605351951715875  |grad|_K:  1.885e-06  alpha:  2.038e-01  linmin: -2.180e-05  t[s]:   7248.20
	FillingsUpdate:  mu: +0.112512271  nElectrons: 346.000000  magneticMoment: [ Abs: 40.51464  Tot: +0.00000 ]
	SubspaceRotationAdjust: set factor to 0.293
ElecMinimize: Iter: 138  F: -1992.605472475403985  |grad|_K:  2.026e-06  alpha:  1.938e-01  linmin:  7.497e-06  t[s]:   7294.47
	FillingsUpdate:  mu: +0.112474652  nElectrons: 346.000000  magneticMoment: [ Abs: 40.50697  Tot: -0.00000 ]
	SubspaceRotationAdjust: set factor to 0.272
ElecMinimize: Iter: 139  F: -1992.605578210373551  |grad|_K:  1.880e-06  alpha:  1.482e-01  linmin: -1.120e-07  t[s]:   7340.33
	FillingsUpdate:  mu: +0.112770702  nElectrons: 346.000000  magneticMoment: [ Abs: 40.51233  Tot: +0.00000 ]
	SubspaceRotationAdjust: set factor to 0.295
ElecMinimize: Iter: 140  F: -1992.605710871737301  |grad|_K:  1.834e-06  alpha:  2.162e-01  linmin:  2.436e-05  t[s]:   7385.60
	FillingsUpdate:  mu: +0.112166426  nElectrons: 346.000000  magneticMoment: [ Abs: 40.50329  Tot: -0.00000 ]
	SubspaceRotationAdjust: set factor to 0.305
ElecMinimize: Iter: 141  F: -1992.605839239774241  |grad|_K:  1.814e-06  alpha:  2.207e-01  linmin: -2.755e-05  t[s]:   7430.90
	FillingsUpdate:  mu: +0.112477387  nElectrons: 346.000000  magneticMoment: [ Abs: 40.50684  Tot: +0.00000 ]
	SubspaceRotationAdjust: set factor to 0.297
ElecMinimize: Iter: 142  F: -1992.605958309001153  |grad|_K:  2.019e-06  alpha:  2.061e-01  linmin:  1.158e-05  t[s]:   7476.17
	FillingsUpdate:  mu: +0.112426226  nElectrons: 346.000000  magneticMoment: [ Abs: 40.49313  Tot: -0.00000 ]
	SubspaceRotationAdjust: set factor to 0.264
ElecMinimize: Iter: 143  F: -1992.606059687806919  |grad|_K:  1.845e-06  alpha:  1.435e-01  linmin: -1.973e-06  t[s]:   7521.63
	FillingsUpdate:  mu: +0.112628888  nElectrons: 346.000000  magneticMoment: [ Abs: 40.49280  Tot: -0.00000 ]
	SubspaceRotationAdjust: set factor to 0.287
ElecMinimize: Iter: 144  F: -1992.606185369106242  |grad|_K:  1.700e-06  alpha:  2.127e-01  linmin:  3.246e-05  t[s]:   7567.38
	FillingsUpdate:  mu: +0.112100758  nElectrons: 346.000000  magneticMoment: [ Abs: 40.48060  Tot: -0.00000 ]
	SubspaceRotationAdjust: set factor to 0.306
ElecMinimize: Iter: 145  F: -1992.606300666614970  |grad|_K:  1.654e-06  alpha:  2.308e-01  linmin: -3.700e-05  t[s]:   7612.81
	FillingsUpdate:  mu: +0.112406913  nElectrons: 346.000000  magneticMoment: [ Abs: 40.47980  Tot: +0.00000 ]
	SubspaceRotationAdjust: set factor to 0.295
ElecMinimize: Iter: 146  F: -1992.606405773753067  |grad|_K:  1.807e-06  alpha:  2.187e-01  linmin:  1.047e-05  t[s]:   7657.95
	FillingsUpdate:  mu: +0.112415030  nElectrons: 346.000000  magneticMoment: [ Abs: 40.46443  Tot: +0.00000 ]
	SubspaceRotationAdjust: set factor to 0.267
ElecMinimize: Iter: 147  F: -1992.606485106383388  |grad|_K:  1.712e-06  alpha:  1.402e-01  linmin: -1.733e-07  t[s]:   7703.44
	FillingsUpdate:  mu: +0.112532662  nElectrons: 346.000000  magneticMoment: [ Abs: 40.46332  Tot: +0.00000 ]
	SubspaceRotationAdjust: set factor to 0.302
ElecMinimize: Iter: 148  F: -1992.606590054737126  |grad|_K:  1.534e-06  alpha:  2.059e-01  linmin:  1.141e-05  t[s]:   7749.02
	FillingsUpdate:  mu: +0.112097795  nElectrons: 346.000000  magneticMoment: [ Abs: 40.45387  Tot: +0.00000 ]
	SubspaceRotationAdjust: set factor to 0.347
ElecMinimize: Iter: 149  F: -1992.606694025202387  |grad|_K:  1.529e-06  alpha:  2.540e-01  linmin: -2.252e-05  t[s]:   7794.41
	FillingsUpdate:  mu: +0.112413627  nElectrons: 346.000000  magneticMoment: [ Abs: 40.45263  Tot: -0.00000 ]
	SubspaceRotationAdjust: set factor to 0.366
ElecMinimize: Iter: 150  F: -1992.606797049115357  |grad|_K:  1.707e-06  alpha:  2.518e-01  linmin:  6.070e-06  t[s]:   7840.09
	FillingsUpdate:  mu: +0.112424381  nElectrons: 346.000000  magneticMoment: [ Abs: 40.43804  Tot: +0.00000 ]
	SubspaceRotationAdjust: set factor to 0.305
ElecMinimize: Iter: 151  F: -1992.606870193990517  |grad|_K:  1.995e-06  alpha:  1.447e-01  linmin:  1.932e-06  t[s]:   7885.50
	FillingsUpdate:  mu: +0.112253857  nElectrons: 346.000000  magneticMoment: [ Abs: 40.44113  Tot: -0.00000 ]
	SubspaceRotationAdjust: set factor to 0.306
ElecMinimize: Iter: 152  F: -1992.606968363761098  |grad|_K:  1.615e-06  alpha:  1.418e-01  linmin:  2.235e-06  t[s]:   7931.28
	FillingsUpdate:  mu: +0.111875089  nElectrons: 346.000000  magneticMoment: [ Abs: 40.43367  Tot: -0.00000 ]
	SubspaceRotationAdjust: set factor to 0.356
ElecMinimize: Iter: 153  F: -1992.607085927715616  |grad|_K:  1.578e-06  alpha:  2.582e-01  linmin: -2.013e-05  t[s]:   7976.81
	FillingsUpdate:  mu: +0.112180939  nElectrons: 346.000000  magneticMoment: [ Abs: 40.43453  Tot: -0.00000 ]
	SubspaceRotationAdjust: set factor to 0.404
ElecMinimize: Iter: 154  F: -1992.607200065528332  |grad|_K:  1.611e-06  alpha:  2.615e-01  linmin:  4.762e-06  t[s]:   8022.22
	FillingsUpdate:  mu: +0.112113350  nElectrons: 346.000000  magneticMoment: [ Abs: 40.42560  Tot: +0.00000 ]
	SubspaceRotationAdjust: set factor to 0.328
ElecMinimize: Iter: 155  F: -1992.607294369253623  |grad|_K:  2.077e-06  alpha:  2.093e-01  linmin: -5.226e-06  t[s]:   8068.13
	FillingsUpdate:  mu: +0.111937373  nElectrons: 346.000000  magneticMoment: [ Abs: 40.43582  Tot: -0.00000 ]
	SubspaceRotationAdjust: set factor to 0.269
ElecMinimize: Iter: 156  F: -1992.607363076065667  |grad|_K:  1.688e-06  alpha:  9.055e-02  linmin: -1.876e-05  t[s]:   8113.74
	FillingsUpdate:  mu: +0.111772529  nElectrons: 346.000000  magneticMoment: [ Abs: 40.43436  Tot: +0.00000 ]
	SubspaceRotationAdjust: set factor to 0.355
ElecMinimize: Iter: 157  F: -1992.607475271126987  |grad|_K:  1.453e-06  alpha:  2.248e-01  linmin: -7.203e-06  t[s]:   8159.64
	FillingsUpdate:  mu: +0.111983638  nElectrons: 346.000000  magneticMoment: [ Abs: 40.43081  Tot: -0.00000 ]
	SubspaceRotationAdjust: set factor to 0.31
ElecMinimize: Iter: 158  F: -1992.607565967859728  |grad|_K:  1.769e-06  alpha:  2.464e-01  linmin:  8.420e-06  t[s]:   8205.28
	FillingsUpdate:  mu: +0.111924829  nElectrons: 346.000000  magneticMoment: [ Abs: 40.44149  Tot: +0.00000 ]
	SubspaceRotationAdjust: set factor to 0.266
ElecMinimize: Iter: 159  F: -1992.607618486980755  |grad|_K:  1.546e-06  alpha:  9.586e-02  linmin: -2.082e-05  t[s]:   8250.62
	FillingsUpdate:  mu: +0.111627008  nElectrons: 346.000000  magneticMoment: [ Abs: 40.44225  Tot: +0.00000 ]
	SubspaceRotationAdjust: set factor to 0.365
ElecMinimize: Iter: 160  F: -1992.607707310675323  |grad|_K:  1.326e-06  alpha:  2.119e-01  linmin: -1.752e-05  t[s]:   8296.39
	FillingsUpdate:  mu: +0.111727039  nElectrons: 346.000000  magneticMoment: [ Abs: 40.43724  Tot: -0.00000 ]
	SubspaceRotationAdjust: set factor to 0.276
ElecMinimize: Iter: 161  F: -1992.607773678183548  |grad|_K:  1.731e-06  alpha:  2.159e-01  linmin:  2.227e-07  t[s]:   8342.15
	FillingsUpdate:  mu: +0.111710391  nElectrons: 346.000000  magneticMoment: [ Abs: 40.44592  Tot: -0.00000 ]
	SubspaceRotationAdjust: set factor to 0.252
ElecMinimize: Iter: 162  F: -1992.607819605588020  |grad|_K:  1.275e-06  alpha:  8.743e-02  linmin: -1.745e-05  t[s]:   8387.72
	FillingsUpdate:  mu: +0.111741250  nElectrons: 346.000000  magneticMoment: [ Abs: 40.44852  Tot: -0.00000 ]
	SubspaceRotationAdjust: set factor to 0.313
ElecMinimize: Iter: 163  F: -1992.607891356425853  |grad|_K:  1.270e-06  alpha:  2.520e-01  linmin: -2.979e-06  t[s]:   8433.33
	FillingsUpdate:  mu: +0.111724479  nElectrons: 346.000000  magneticMoment: [ Abs: 40.44219  Tot: +0.00000 ]
	SubspaceRotationAdjust: set factor to 0.273
ElecMinimize: Iter: 164  F: -1992.607930113244720  |grad|_K:  1.408e-06  alpha:  1.384e-01  linmin:  3.746e-06  t[s]:   8478.98
	FillingsUpdate:  mu: +0.111641897  nElectrons: 346.000000  magneticMoment: [ Abs: 40.44753  Tot: -0.00000 ]
	SubspaceRotationAdjust: set factor to 0.339
ElecMinimize: Iter: 165  F: -1992.607985364962360  |grad|_K:  1.101e-06  alpha:  1.602e-01  linmin: -1.379e-07  t[s]:   8524.66
	FillingsUpdate:  mu: +0.111862791  nElectrons: 346.000000  magneticMoment: [ Abs: 40.44873  Tot: +0.00000 ]
	SubspaceRotationAdjust: set factor to 0.345
ElecMinimize: Iter: 166  F: -1992.608043271683073  |grad|_K:  1.255e-06  alpha:  2.747e-01  linmin:  2.161e-06  t[s]:   8570.65
	FillingsUpdate:  mu: +0.111940517  nElectrons: 346.000000  magneticMoment: [ Abs: 40.44072  Tot: -0.00000 ]
	SubspaceRotationAdjust: set factor to 0.297
ElecMinimize: Iter: 167  F: -1992.608074653041513  |grad|_K:  1.367e-06  alpha:  1.150e-01  linmin:  9.171e-06  t[s]:   8616.27
	FillingsUpdate:  mu: +0.111830921  nElectrons: 346.000000  magneticMoment: [ Abs: 40.44258  Tot: +0.00000 ]
	SubspaceRotationAdjust: set factor to 0.368
ElecMinimize: Iter: 168  F: -1992.608127466532551  |grad|_K:  1.076e-06  alpha:  1.630e-01  linmin:  3.103e-06  t[s]:   8661.98
	FillingsUpdate:  mu: +0.111933601  nElectrons: 346.000000  magneticMoment: [ Abs: 40.44225  Tot: -0.00000 ]
	SubspaceRotationAdjust: set factor to 0.353
ElecMinimize: Iter: 169  F: -1992.608182874045269  |grad|_K:  1.297e-06  alpha:  2.752e-01  linmin:  5.536e-06  t[s]:   8707.97
	FillingsUpdate:  mu: +0.112025174  nElectrons: 346.000000  magneticMoment: [ Abs: 40.43316  Tot: +0.00000 ]
	SubspaceRotationAdjust: set factor to 0.299
ElecMinimize: Iter: 170  F: -1992.608211308481032  |grad|_K:  1.322e-06  alpha:  9.825e-02  linmin:  2.269e-05  t[s]:   8753.75
	FillingsUpdate:  mu: +0.112119421  nElectrons: 346.000000  magneticMoment: [ Abs: 40.43145  Tot: +0.00000 ]
	SubspaceRotationAdjust: set factor to 0.388
ElecMinimize: Iter: 171  F: -1992.608266194394218  |grad|_K:  1.080e-06  alpha:  1.822e-01  linmin:  2.081e-05  t[s]:   8799.71
	FillingsUpdate:  mu: +0.112065630  nElectrons: 346.000000  magneticMoment: [ Abs: 40.43149  Tot: -0.00000 ]
	SubspaceRotationAdjust: set factor to 0.32
ElecMinimize: Iter: 172  F: -1992.608314393237606  |grad|_K:  1.387e-06  alpha:  2.391e-01  linmin:  1.162e-05  t[s]:   8846.07
	FillingsUpdate:  mu: +0.112004749  nElectrons: 346.000000  magneticMoment: [ Abs: 40.42253  Tot: -0.00000 ]
	SubspaceRotationAdjust: set factor to 0.268
ElecMinimize: Iter: 173  F: -1992.608341909308137  |grad|_K:  1.196e-06  alpha:  8.397e-02  linmin:  4.978e-05  t[s]:   8891.64
	FillingsUpdate:  mu: +0.112207262  nElectrons: 346.000000  magneticMoment: [ Abs: 40.41970  Tot: +0.00000 ]
	SubspaceRotationAdjust: set factor to 0.381
ElecMinimize: Iter: 174  F: -1992.608395070566530  |grad|_K:  1.057e-06  alpha:  2.174e-01  linmin:  3.387e-05  t[s]:   8937.47
	FillingsUpdate:  mu: +0.112362495  nElectrons: 346.000000  magneticMoment: [ Abs: 40.42363  Tot: +0.00000 ]
	SubspaceRotationAdjust: set factor to 0.277
ElecMinimize: Iter: 175  F: -1992.608429035995869  |grad|_K:  1.452e-06  alpha:  1.756e-01  linmin:  1.327e-05  t[s]:   8983.28
	FillingsUpdate:  mu: +0.112219449  nElectrons: 346.000000  magneticMoment: [ Abs: 40.41614  Tot: -0.00000 ]
	SubspaceRotationAdjust: set factor to 0.287
ElecMinimize: Iter: 176  F: -1992.608463777734414  |grad|_K:  1.001e-06  alpha:  9.610e-02  linmin:  1.417e-05  t[s]:   9028.83
	FillingsUpdate:  mu: +0.112197174  nElectrons: 346.000000  magneticMoment: [ Abs: 40.41282  Tot: -0.00000 ]
	SubspaceRotationAdjust: set factor to 0.336
ElecMinimize: Iter: 177  F: -1992.608510583677344  |grad|_K:  1.052e-06  alpha:  2.686e-01  linmin: -1.665e-05  t[s]:   9074.79
	FillingsUpdate:  mu: +0.112323174  nElectrons: 346.000000  magneticMoment: [ Abs: 40.41796  Tot: -0.00000 ]
	SubspaceRotationAdjust: set factor to 0.279
ElecMinimize: Iter: 178  F: -1992.608536559602726  |grad|_K:  1.216e-06  alpha:  1.318e-01  linmin: -2.875e-05  t[s]:   9120.86
	FillingsUpdate:  mu: +0.112352799  nElectrons: 346.000000  magneticMoment: [ Abs: 40.41358  Tot: -0.00000 ]
	SubspaceRotationAdjust: set factor to 0.352
ElecMinimize: Iter: 179  F: -1992.608575573112830  |grad|_K:  9.448e-07  alpha:  1.500e-01  linmin: -1.684e-05  t[s]:   9167.10
	FillingsUpdate:  mu: +0.112199616  nElectrons: 346.000000  magneticMoment: [ Abs: 40.41237  Tot: -0.00000 ]
	SubspaceRotationAdjust: set factor to 0.355
ElecMinimize: Iter: 180  F: -1992.608616827468040  |grad|_K:  1.093e-06  alpha:  2.626e-01  linmin: -2.785e-05  t[s]:   9212.76
	FillingsUpdate:  mu: +0.112243260  nElectrons: 346.000000  magneticMoment: [ Abs: 40.41896  Tot: +0.00000 ]
	SubspaceRotationAdjust: set factor to 0.307
ElecMinimize: Iter: 181  F: -1992.608639785092464  |grad|_K:  1.190e-06  alpha:  1.070e-01  linmin: -3.856e-05  t[s]:   9257.76
	FillingsUpdate:  mu: +0.112329959  nElectrons: 346.000000  magneticMoment: [ Abs: 40.41701  Tot: +0.00000 ]
	SubspaceRotationAdjust: set factor to 0.419
ElecMinimize: Iter: 182  F: -1992.608680316825939  |grad|_K:  9.340e-07  alpha:  1.616e-01  linmin: -1.821e-05  t[s]:   9303.45
	FillingsUpdate:  mu: +0.112335563  nElectrons: 346.000000  magneticMoment: [ Abs: 40.41416  Tot: -0.00000 ]
	SubspaceRotationAdjust: set factor to 0.316
ElecMinimize: Iter: 183  F: -1992.608716290387747  |grad|_K:  1.302e-06  alpha:  2.342e-01  linmin: -3.502e-05  t[s]:   9349.23
	FillingsUpdate:  mu: +0.112303710  nElectrons: 346.000000  magneticMoment: [ Abs: 40.42084  Tot: +0.00000 ]
	SubspaceRotationAdjust: set factor to 0.27
ElecMinimize: Iter: 184  F: -1992.608737329860787  |grad|_K:  9.725e-07  alpha:  6.850e-02  linmin: -7.426e-05  t[s]:   9394.66
ElecMinimize: 	Predicted alpha/alphaT>3.000000, increasing alphaT to 2.055056e-01.
	FillingsUpdate:  mu: +0.112320626  nElectrons: 346.000000  magneticMoment: [ Abs: 40.42432  Tot: +0.00000 ]
	SubspaceRotationAdjust: set factor to 0.275
ElecMinimize: Iter: 185  F: -1992.608776916652687  |grad|_K:  1.069e-06  alpha:  2.350e-01  linmin:  7.753e-06  t[s]:   9453.52
	FillingsUpdate:  mu: +0.112330397  nElectrons: 346.000000  magneticMoment: [ Abs: 40.41943  Tot: -0.00000 ]
	SubspaceRotationAdjust: set factor to 0.239
ElecMinimize: Iter: 186  F: -1992.608797528169816  |grad|_K:  9.963e-07  alpha:  1.056e-01  linmin:  3.294e-05  t[s]:   9499.17
	FillingsUpdate:  mu: +0.112492069  nElectrons: 346.000000  magneticMoment: [ Abs: 40.42106  Tot: -0.00000 ]
	SubspaceRotationAdjust: set factor to 0.342
ElecMinimize: Iter: 187  F: -1992.608832453412106  |grad|_K:  8.808e-07  alpha:  2.047e-01  linmin:  2.255e-05  t[s]:   9544.97
	FillingsUpdate:  mu: +0.112502416  nElectrons: 346.000000  magneticMoment: [ Abs: 40.42625  Tot: +0.00000 ]
	SubspaceRotationAdjust: set factor to 0.266
ElecMinimize: Iter: 188  F: -1992.608853752385585  |grad|_K:  1.113e-06  alpha:  1.582e-01  linmin:  7.592e-06  t[s]:   9590.71
	FillingsUpdate:  mu: +0.112288262  nElectrons: 346.000000  magneticMoment: [ Abs: 40.42199  Tot: +0.00000 ]
	SubspaceRotationAdjust: set factor to 0.309
ElecMinimize: Iter: 189  F: -1992.608879180307895  |grad|_K:  8.145e-07  alpha:  1.187e-01  linmin: -8.563e-06  t[s]:   9636.82
	FillingsUpdate:  mu: +0.112418474  nElectrons: 346.000000  magneticMoment: [ Abs: 40.41879  Tot: +0.00000 ]
	SubspaceRotationAdjust: set factor to 0.315
ElecMinimize: Iter: 190  F: -1992.608909845215976  |grad|_K:  9.290e-07  alpha:  2.645e-01  linmin: -9.685e-06  t[s]:   9683.05
	FillingsUpdate:  mu: +0.112534741  nElectrons: 346.000000  magneticMoment: [ Abs: 40.42265  Tot: +0.00000 ]
	SubspaceRotationAdjust: set factor to 0.286
ElecMinimize: Iter: 191  F: -1992.608926804465227  |grad|_K:  9.515e-07  alpha:  1.108e-01  linmin: -3.337e-05  t[s]:   9728.56
	FillingsUpdate:  mu: +0.112528088  nElectrons: 346.000000  magneticMoment: [ Abs: 40.41816  Tot: +0.00000 ]
	SubspaceRotationAdjust: set factor to 0.413
ElecMinimize: Iter: 192  F: -1992.608956029657293  |grad|_K:  7.877e-07  alpha:  1.831e-01  linmin: -1.557e-05  t[s]:   9774.43
	FillingsUpdate:  mu: +0.112486367  nElectrons: 346.000000  magneticMoment: [ Abs: 40.41114  Tot: +0.00000 ]
	SubspaceRotationAdjust: set factor to 0.296
ElecMinimize: Iter: 193  F: -1992.608979009926998  |grad|_K:  1.129e-06  alpha:  2.112e-01  linmin: -2.152e-05  t[s]:   9820.15
	FillingsUpdate:  mu: +0.112548092  nElectrons: 346.000000  magneticMoment: [ Abs: 40.41304  Tot: +0.00000 ]
	SubspaceRotationAdjust: set factor to 0.276
[...]
	SubspaceRotationAdjust: set factor to 0.243
ElecMinimize: Iter:  15  F: -1992.662429758324151  |grad|_K:  7.208e-07  alpha:  3.455e-01  linmin: -9.048e-06  t[s]:  66346.62
	FillingsUpdate:  mu: +0.119746870  nElectrons: 346.000000  magneticMoment: [ Abs: 40.68486  Tot: +0.00000 ]
	SubspaceRotationAdjust: set factor to 0.212
ElecMinimize: Iter:  16  F: -1992.662456806631326  |grad|_K:  6.486e-07  alpha:  2.986e-01  linmin: -3.408e-08  t[s]:  66392.07
	FillingsUpdate:  mu: +0.119673151  nElectrons: 346.000000  magneticMoment: [ Abs: 40.68882  Tot: -0.00000 ]
	SubspaceRotationAdjust: set factor to 0.205
ElecMinimize: Iter:  17  F: -1992.662478989351484  |grad|_K:  4.418e-07  alpha:  3.029e-01  linmin: -7.244e-06  t[s]:  66437.66
	FillingsUpdate:  mu: +0.119732856  nElectrons: 346.000000  magneticMoment: [ Abs: 40.68907  Tot: -0.00000 ]
	SubspaceRotationAdjust: set factor to 0.236
ElecMinimize: Iter:  18  F: -1992.662490452193651  |grad|_K:  3.447e-07  alpha:  3.369e-01  linmin:  2.852e-06  t[s]:  66482.88
	FillingsUpdate:  mu: +0.119773918  nElectrons: 346.000000  magneticMoment: [ Abs: 40.68901  Tot: -0.00000 ]
	SubspaceRotationAdjust: set factor to 0.261
ElecMinimize: Iter:  19  F: -1992.662497218414273  |grad|_K:  2.782e-07  alpha:  3.271e-01  linmin:  2.090e-06  t[s]:  66528.34
	FillingsUpdate:  mu: +0.119681671  nElectrons: 346.000000  magneticMoment: [ Abs: 40.69119  Tot: -0.00000 ]
	SubspaceRotationAdjust: set factor to 0.259
ElecMinimize: Iter:  20  F: -1992.662501478105241  |grad|_K:  2.327e-07  alpha:  3.161e-01  linmin: -2.584e-06  t[s]:  66573.82
	FillingsUpdate:  mu: +0.119795236  nElectrons: 346.000000  magneticMoment: [ Abs: 40.69026  Tot: -0.00000 ]
	SubspaceRotationAdjust: set factor to 0.237
ElecMinimize: Iter:  21  F: -1992.662504317335788  |grad|_K:  2.212e-07  alpha:  3.010e-01  linmin: -2.758e-06  t[s]:  66619.20
	FillingsUpdate:  mu: +0.119746065  nElectrons: 346.000000  magneticMoment: [ Abs: 40.69238  Tot: +0.00000 ]
	SubspaceRotationAdjust: set factor to 0.244
ElecMinimize: Iter:  22  F: -1992.662507266119746  |grad|_K:  1.980e-07  alpha:  3.461e-01  linmin: -7.017e-06  t[s]:  66664.77
	FillingsUpdate:  mu: +0.119789863  nElectrons: 346.000000  magneticMoment: [ Abs: 40.69332  Tot: -0.00000 ]
	SubspaceRotationAdjust: set factor to 0.282
ElecMinimize: Iter:  23  F: -1992.662510205173021  |grad|_K:  1.907e-07  alpha:  4.303e-01  linmin:  1.928e-06  t[s]:  66710.74
	FillingsUpdate:  mu: +0.119832900  nElectrons: 346.000000  magneticMoment: [ Abs: 40.69440  Tot: -0.00000 ]
	SubspaceRotationAdjust: set factor to 0.319
ElecMinimize: Iter:  24  F: -1992.662512744677542  |grad|_K:  1.903e-07  alpha:  4.013e-01  linmin:  1.035e-06  t[s]:  66756.78
	FillingsUpdate:  mu: +0.119781330  nElectrons: 346.000000  magneticMoment: [ Abs: 40.69725  Tot: -0.00000 ]
	SubspaceRotationAdjust: set factor to 0.317
ElecMinimize: Iter:  25  F: -1992.662515306137038  |grad|_K:  2.123e-07  alpha:  4.061e-01  linmin: -1.004e-05  t[s]:  66802.17
	FillingsUpdate:  mu: +0.119889156  nElectrons: 346.000000  magneticMoment: [ Abs: 40.69705  Tot: -0.00000 ]
	SubspaceRotationAdjust: set factor to 0.254
ElecMinimize: Iter:  26  F: -1992.662517257565241  |grad|_K:  2.079e-07  alpha:  2.485e-01  linmin:  6.122e-07  t[s]:  66847.49
	FillingsUpdate:  mu: +0.119842296  nElectrons: 346.000000  magneticMoment: [ Abs: 40.69995  Tot: +0.00000 ]
	SubspaceRotationAdjust: set factor to 0.244
ElecMinimize: Iter:  27  F: -1992.662519467005040  |grad|_K:  1.718e-07  alpha:  2.934e-01  linmin: -1.135e-05  t[s]:  66892.67
	FillingsUpdate:  mu: +0.119872576  nElectrons: 346.000000  magneticMoment: [ Abs: 40.70152  Tot: -0.00000 ]
	SubspaceRotationAdjust: set factor to 0.285
ElecMinimize: Iter:  28  F: -1992.662521456230252  |grad|_K:  1.483e-07  alpha:  3.864e-01  linmin:  3.393e-06  t[s]:  66938.34
	FillingsUpdate:  mu: +0.119918802  nElectrons: 346.000000  magneticMoment: [ Abs: 40.70210  Tot: -0.00000 ]
	SubspaceRotationAdjust: set factor to 0.304
ElecMinimize: Iter:  29  F: -1992.662522760920865  |grad|_K:  1.340e-07  alpha:  3.407e-01  linmin:  2.328e-06  t[s]:  66984.26
	FillingsUpdate:  mu: +0.119867004  nElectrons: 346.000000  magneticMoment: [ Abs: 40.70380  Tot: -0.00000 ]
	SubspaceRotationAdjust: set factor to 0.265
ElecMinimize: Iter:  30  F: -1992.662523606084960  |grad|_K:  1.260e-07  alpha:  2.705e-01  linmin: -1.597e-06  t[s]:  67029.85
	FillingsUpdate:  mu: +0.119916729  nElectrons: 346.000000  magneticMoment: [ Abs: 40.70359  Tot: +0.00000 ]
	SubspaceRotationAdjust: set factor to 0.242
ElecMinimize: Iter:  31  F: -1992.662524355660480  |grad|_K:  1.097e-07  alpha:  2.709e-01  linmin:  6.103e-07  t[s]:  67075.56
	FillingsUpdate:  mu: +0.119909452  nElectrons: 346.000000  magneticMoment: [ Abs: 40.70448  Tot: +0.00000 ]
	SubspaceRotationAdjust: set factor to 0.288
ElecMinimize: Iter:  32  F: -1992.662525119540533  |grad|_K:  9.667e-08  alpha:  3.644e-01  linmin: -3.861e-06  t[s]:  67121.29
	FillingsUpdate:  mu: +0.119900740  nElectrons: 346.000000  magneticMoment: [ Abs: 40.70529  Tot: +0.00000 ]
	SubspaceRotationAdjust: set factor to 0.325
ElecMinimize: Iter:  33  F: -1992.662525793220766  |grad|_K:  1.006e-07  alpha:  4.140e-01  linmin: -5.502e-07  t[s]:  67167.12
	FillingsUpdate:  mu: +0.119940334  nElectrons: 346.000000  magneticMoment: [ Abs: 40.70491  Tot: -0.00000 ]
	SubspaceRotationAdjust: set factor to 0.305
ElecMinimize: Iter:  34  F: -1992.662526386343188  |grad|_K:  1.158e-07  alpha:  3.364e-01  linmin:  5.733e-06  t[s]:  67212.23
ElecMinimize: Converged (|Delta F|<1.000000e-06 for 5 iters).
Setting wave functions to eigenvectors of Hamiltonian
IonicMinimize: 	Wolfe criterion not satisfied: alpha: 0.59201  (E-E0)/|gdotd0|: 0.115642  gdotd/gdotd0: -1.86886 (taking cubic step)

-------- Electronic minimization -----------
	FillingsUpdate:  mu: +0.119204510  nElectrons: 346.000000  magneticMoment: [ Abs: 40.72478  Tot: -0.00000 ]
ElecMinimize: Iter:   0  F: -1992.566094732719876  |grad|_K:  5.319e-05  alpha:  1.000e+00
	FillingsUpdate:  mu: +0.116946083  nElectrons: 346.000000  magneticMoment: [ Abs: 40.68816  Tot: +0.00000 ]
	SubspaceRotationAdjust: set factor to 0.268
ElecMinimize: Iter:   1  F: -1992.657923604104553  |grad|_K:  9.403e-06  alpha:  1.914e-01  linmin:  1.107e-02  t[s]:  67308.86
	FillingsUpdate:  mu: +0.118536496  nElectrons: 346.000000  magneticMoment: [ Abs: 40.73868  Tot: +0.00000 ]
	SubspaceRotationAdjust: set factor to 0.169
ElecMinimize: Iter:   2  F: -1992.660546133319031  |grad|_K:  5.947e-06  alpha:  1.734e-01  linmin:  1.649e-03  t[s]:  67354.51
	FillingsUpdate:  mu: +0.119726277  nElectrons: 346.000000  magneticMoment: [ Abs: 40.69884  Tot: +0.00000 ]
	SubspaceRotationAdjust: set factor to 0.131
ElecMinimize: Iter:   3  F: -1992.661705324954710  |grad|_K:  3.042e-06  alpha:  1.928e-01  linmin: -7.747e-04  t[s]:  67399.86
	FillingsUpdate:  mu: +0.120006351  nElectrons: 346.000000  magneticMoment: [ Abs: 40.69744  Tot: -0.00000 ]
	SubspaceRotationAdjust: set factor to 0.153
ElecMinimize: Iter:   4  F: -1992.662102097289790  |grad|_K:  2.077e-06  alpha:  2.415e-01  linmin: -3.667e-07  t[s]:  67445.64
	FillingsUpdate:  mu: +0.120096847  nElectrons: 346.000000  magneticMoment: [ Abs: 40.70676  Tot: +0.00000 ]
	SubspaceRotationAdjust: set factor to 0.148
ElecMinimize: Iter:   5  F: -1992.662308407028377  |grad|_K:  1.361e-06  alpha:  2.749e-01  linmin:  6.306e-05  t[s]:  67491.64
	FillingsUpdate:  mu: +0.120288056  nElectrons: 346.000000  magneticMoment: [ Abs: 40.70441  Tot: +0.00000 ]
	SubspaceRotationAdjust: set factor to 0.173
ElecMinimize: Iter:   6  F: -1992.662409373441733  |grad|_K:  1.010e-06  alpha:  3.142e-01  linmin:  5.044e-07  t[s]:  67537.57
	FillingsUpdate:  mu: +0.120272476  nElectrons: 346.000000  magneticMoment: [ Abs: 40.70142  Tot: +0.00000 ]
	SubspaceRotationAdjust: set factor to 0.199
ElecMinimize: Iter:   7  F: -1992.662466010163371  |grad|_K:  8.509e-07  alpha:  3.187e-01  linmin:  1.362e-07  t[s]:  67583.92
	FillingsUpdate:  mu: +0.120117777  nElectrons: 346.000000  magneticMoment: [ Abs: 40.70342  Tot: +0.00000 ]
	SubspaceRotationAdjust: set factor to 0.23
ElecMinimize: Iter:   8  F: -1992.662505766335698  |grad|_K:  7.334e-07  alpha:  3.153e-01  linmin:  2.045e-07  t[s]:  67629.56
	FillingsUpdate:  mu: +0.120213057  nElectrons: 346.000000  magneticMoment: [ Abs: 40.70192  Tot: -0.00000 ]
	SubspaceRotationAdjust: set factor to 0.277
ElecMinimize: Iter:   9  F: -1992.662540901751299  |grad|_K:  6.694e-07  alpha:  3.752e-01  linmin:  1.703e-06  t[s]:  67674.74
	FillingsUpdate:  mu: +0.120236767  nElectrons: 346.000000  magneticMoment: [ Abs: 40.69909  Tot: +0.00000 ]
	SubspaceRotationAdjust: set factor to 0.313
ElecMinimize: Iter:  10  F: -1992.662568843243207  |grad|_K:  6.472e-07  alpha:  3.583e-01  linmin:  1.218e-06  t[s]:  67719.91
	FillingsUpdate:  mu: +0.120008243  nElectrons: 346.000000  magneticMoment: [ Abs: 40.70072  Tot: +0.00000 ]
	SubspaceRotationAdjust: set factor to 0.3
ElecMinimize: Iter:  11  F: -1992.662590247560274  |grad|_K:  5.823e-07  alpha:  2.936e-01  linmin: -4.357e-07  t[s]:  67766.04
	FillingsUpdate:  mu: +0.120207317  nElectrons: 346.000000  magneticMoment: [ Abs: 40.69616  Tot: +0.00000 ]
	SubspaceRotationAdjust: set factor to 0.245
ElecMinimize: Iter:  12  F: -1992.662604398009989  |grad|_K:  4.662e-07  alpha:  2.396e-01  linmin:  9.297e-07  t[s]:  67811.79
	FillingsUpdate:  mu: +0.120121564  nElectrons: 346.000000  magneticMoment: [ Abs: 40.69732  Tot: +0.00000 ]
	SubspaceRotationAdjust: set factor to 0.224
ElecMinimize: Iter:  13  F: -1992.662613652722257  |grad|_K:  3.476e-07  alpha:  2.446e-01  linmin:  8.471e-09  t[s]:  67856.84
	FillingsUpdate:  mu: +0.120112548  nElectrons: 346.000000  magneticMoment: [ Abs: 40.69612  Tot: -0.00000 ]
	SubspaceRotationAdjust: set factor to 0.243
ElecMinimize: Iter:  14  F: -1992.662619777504915  |grad|_K:  2.654e-07  alpha:  2.911e-01  linmin:  5.216e-07  t[s]:  67902.36
	FillingsUpdate:  mu: +0.120131730  nElectrons: 346.000000  magneticMoment: [ Abs: 40.69472  Tot: +0.00000 ]
	SubspaceRotationAdjust: set factor to 0.252
ElecMinimize: Iter:  15  F: -1992.662623387030862  |grad|_K:  2.076e-07  alpha:  2.944e-01  linmin:  8.713e-07  t[s]:  67947.92
	FillingsUpdate:  mu: +0.120082147  nElectrons: 346.000000  magneticMoment: [ Abs: 40.69537  Tot: +0.00000 ]
	SubspaceRotationAdjust: set factor to 0.246
ElecMinimize: Iter:  16  F: -1992.662625385799174  |grad|_K:  1.758e-07  alpha:  2.664e-01  linmin:  1.874e-06  t[s]:  67993.38
	FillingsUpdate:  mu: +0.120130591  nElectrons: 346.000000  magneticMoment: [ Abs: 40.69425  Tot: +0.00000 ]
	SubspaceRotationAdjust: set factor to 0.28
ElecMinimize: Iter:  17  F: -1992.662626964455740  |grad|_K:  1.435e-07  alpha:  2.935e-01  linmin:  2.863e-06  t[s]:  68038.76
	FillingsUpdate:  mu: +0.120117384  nElectrons: 346.000000  magneticMoment: [ Abs: 40.69377  Tot: -0.00000 ]
	SubspaceRotationAdjust: set factor to 0.343
ElecMinimize: Iter:  18  F: -1992.662628253530102  |grad|_K:  1.395e-07  alpha:  3.594e-01  linmin: -1.927e-06  t[s]:  68084.00
	FillingsUpdate:  mu: +0.120077542  nElectrons: 346.000000  magneticMoment: [ Abs: 40.69372  Tot: +0.00000 ]
	SubspaceRotationAdjust: set factor to 0.386
ElecMinimize: Iter:  19  F: -1992.662629403707342  |grad|_K:  1.450e-07  alpha:  3.395e-01  linmin: -7.705e-07  t[s]:  68129.22
	FillingsUpdate:  mu: +0.120127513  nElectrons: 346.000000  magneticMoment: [ Abs: 40.69221  Tot: -0.00000 ]
	SubspaceRotationAdjust: set factor to 0.352
ElecMinimize: Iter:  20  F: -1992.662630371271007  |grad|_K:  1.571e-07  alpha:  2.644e-01  linmin:  1.133e-06  t[s]:  68174.55
	FillingsUpdate:  mu: +0.120076503  nElectrons: 346.000000  magneticMoment: [ Abs: 40.69258  Tot: -0.00000 ]
	SubspaceRotationAdjust: set factor to 0.303
ElecMinimize: Iter:  21  F: -1992.662631312287658  |grad|_K:  1.391e-07  alpha:  2.191e-01  linmin:  8.757e-08  t[s]:  68220.66
	FillingsUpdate:  mu: +0.120087397  nElectrons: 346.000000  magneticMoment: [ Abs: 40.69140  Tot: -0.00000 ]
	SubspaceRotationAdjust: set factor to 0.311
ElecMinimize: Iter:  22  F: -1992.662632319402746  |grad|_K:  1.182e-07  alpha:  2.990e-01  linmin:  8.049e-07  t[s]:  68266.15
	FillingsUpdate:  mu: +0.120071146  nElectrons: 346.000000  magneticMoment: [ Abs: 40.69081  Tot: -0.00000 ]
	SubspaceRotationAdjust: set factor to 0.334
ElecMinimize: Iter:  23  F: -1992.662633148733448  |grad|_K:  1.100e-07  alpha:  3.410e-01  linmin: -7.436e-07  t[s]:  68311.56
	FillingsUpdate:  mu: +0.120049009  nElectrons: 346.000000  magneticMoment: [ Abs: 40.69052  Tot: -0.00000 ]
	SubspaceRotationAdjust: set factor to 0.355
ElecMinimize: Iter:  24  F: -1992.662633823495298  |grad|_K:  1.009e-07  alpha:  3.206e-01  linmin:  1.857e-06  t[s]:  68356.95
	FillingsUpdate:  mu: +0.120070494  nElectrons: 346.000000  magneticMoment: [ Abs: 40.68951  Tot: -0.00000 ]
	SubspaceRotationAdjust: set factor to 0.339
ElecMinimize: Iter:  25  F: -1992.662634318573510  |grad|_K:  1.005e-07  alpha:  2.796e-01  linmin:  5.476e-07  t[s]:  68402.70
	FillingsUpdate:  mu: +0.120026640  nElectrons: 346.000000  magneticMoment: [ Abs: 40.68979  Tot: +0.00000 ]
	SubspaceRotationAdjust: set factor to 0.299
ElecMinimize: Iter:  26  F: -1992.662634708065298  |grad|_K:  9.327e-08  alpha:  2.215e-01  linmin: -1.326e-06  t[s]:  68448.26
	FillingsUpdate:  mu: +0.120038725  nElectrons: 346.000000  magneticMoment: [ Abs: 40.68904  Tot: -0.00000 ]
	SubspaceRotationAdjust: set factor to 0.333
ElecMinimize: Iter:  27  F: -1992.662635137053712  |grad|_K:  8.002e-08  alpha:  2.832e-01  linmin: -7.749e-07  t[s]:  68493.68
ElecMinimize: Converged (|Delta F|<1.000000e-06 for 5 iters).
Setting wave functions to eigenvectors of Hamiltonian

# Ionic positions in lattice coordinates:
ion Ni  -0.016140034171475   0.001248884536402   0.166399514853535 1
ion Ni   0.000000000000000   0.000000000000000  -0.050000000000000 0
ion Ni  -0.250000000000000   0.250000000000000  -0.150000000000000 0
ion V   0.484720764289543  -0.002125542177397   0.164301530147004 1
ion V  -0.012494514663445   0.499143695483401   0.164220296335407 1
ion V   0.488227958619226   0.497706842710214   0.155423010779724 1
ion V   0.241631035435113   0.243439835307664   0.055686012395033 1
ion V   0.240809892584550   0.753655902833618   0.055588225799960 1
ion V  -0.245243996916604   0.240086270009246   0.055011702255715 1
ion V  -0.246421737858052   0.754856953024646   0.055339605741532 1
ion Co   0.500000000000000   0.000000000000000  -0.050000000000000 0
ion Co   0.000000000000000   0.500000000000000  -0.050000000000000 0
ion Co   0.250000000000000   0.250000000000000  -0.150000000000000 0
ion Co   0.250000000000000   0.750000000000000  -0.150000000000000 0
ion Co  -0.250000000000000   0.750000000000000  -0.150000000000000 0
ion Cr   0.500000000000000   0.500000000000000  -0.050000000000000 0
ion O   0.256555180504168   0.268205185995983   0.156115435066550 1
ion O   0.256391842629596   0.728263029852653   0.155862962452051 1
ion O  -0.277190091108258   0.260579923129498   0.154190330701175 1
ion O  -0.279140241374350   0.731906776467935   0.154110759308496 1
ion O  -0.007967225097083  -0.001543272539559   0.074376727745943 1
ion O   0.503098959081647  -0.002295920078700   0.058881767634737 1
ion O  -0.008723516451396   0.497840422944238   0.056654353563323 1
ion O   0.503395239492477   0.497672401185681   0.049089584968454 1
ion O   0.250000000000000   0.250000000000000  -0.050000000000000 0
ion O   0.250000000000000   0.750000000000000  -0.050000000000000 0
ion O  -0.250000000000000   0.250000000000000  -0.050000000000000 0
ion O  -0.250000000000000   0.750000000000000  -0.050000000000000 0
ion O   0.000000000000000   0.000000000000000  -0.150000000000000 0
ion O   0.500000000000000   0.000000000000000  -0.150000000000000 0
ion O   0.000000000000000   0.500000000000000  -0.150000000000000 0
ion O   0.500000000000000   0.500000000000000  -0.150000000000000 0
ion O  -0.012440219373738  -0.006616530245100   0.245628414937252 1

# Forces in Lattice coordinates:
force Ni  -0.007990069781994   0.001812335321692  -0.022296653763355 1
force Ni  -0.031511142303242   0.043994100392746  -0.373213745093549 0
force Ni   0.086669067969009  -0.085643630421590   0.010214903468647 0
force V  -0.000810181675187  -0.007576831527485  -0.008004712927882 1
force V   0.003994475946965  -0.003120920292765   0.020272694846997 1
force V   0.003949335189292  -0.000028343017979   0.013561612418513 1
force V  -0.001565321539571  -0.003491802463703  -0.008929441251204 1
force V  -0.001362116216817  -0.002047682760467   0.007057300762798 1
force V   0.000359406446310  -0.012733440121893  -0.008133635678502 1
force V   0.001893442691379   0.010419167081272   0.008204573678602 1
force Co   0.051212878506078   0.027519229229842  -0.482119174810499 0
force Co  -0.024515731517488  -0.028981992382836  -0.446562839416236 0
force Co  -0.060180263436026  -0.083492384950098  -0.381551673868154 0
force Co  -0.060201079551097   0.084836342731531  -0.323473087843681 0
force Co   0.100932891065945   0.062626319871061  -0.419871025486145 0
force Cr   0.038273265828178  -0.040811081339873  -0.645629619909511 0
force O   0.007818821202823   0.003879312919476  -0.011310873023878 1
force O   0.007202658661942  -0.010640837826210  -0.000723728741153 1
force O  -0.006312398870931   0.014513907814776  -0.011511366660520 1
force O  -0.015331113855407  -0.015898043618416  -0.025214385200991 1
force O  -0.008289755892521  -0.004361356827956   0.018182340910280 1
force O  -0.005149200609103  -0.000230984413501  -0.016059541002320 1
force O   0.019007474389732  -0.004322571307687   0.003455827721851 1
force O  -0.003096219244098  -0.003601617321285   0.018559804849583 1
force O   0.076869870098584   0.083955751484447   0.520709806268831 0
force O   0.078409952324401  -0.089250316670270   0.529365748255895 0
force O  -0.077398797169489   0.053859319039945   0.727275819625645 0
force O  -0.077624843679358  -0.042521864114279   0.572299286788215 0
force O   0.001371913551701  -0.010441023111197  -0.226576199335629 0
force O  -0.041099473975966  -0.021526601621078   0.115094870562611 0
force O   0.024809330170369   0.021517654531469   0.129187817609687 0
force O  -0.024291618843285   0.018540254662398   0.671839576495472 0
force O  -0.001089066951311   0.004024832075978  -0.015444571123940 1

# Energy components:
   Eewald =     5170.6542439443355761
       EH =     6964.4223772921941418
     Eloc =   -14290.6886556278041098
      Enl =     -514.5349031434723202
   Epulay =       -0.0004807980462104
      Exc =     -244.8434249355324255
       KE =      921.2808830070882777
        U =        1.0480003939014912
-------------------------------------
     Etot =    -1992.6619598673348719
       TS =        0.0006752697188992
-------------------------------------
        F =    -1992.6626351370537122

IonicMinimize: Iter:  18  F: -1992.662635137053712  |grad|_K:  5.777e-04  alpha:  2.802e-01  linmin:  8.561e-03  t[s]:  68509.59
IonicMinimize: Converged (|Delta F|<1.000000e-04 for 3 iters).

#--- Lowdin population analysis ---
# oxidation-state Ni +3.492 +3.334 +3.598
# magnetic-moments Ni -0.313 +0.691 +0.831
# oxidation-state V +1.146 +1.137 +1.312 +1.001 +1.000 +1.076 +1.074
# magnetic-moments V -2.909 +2.939 -2.074 +2.898 +2.901 -2.662 -2.676
# oxidation-state Co +1.197 +1.199 +1.248 +1.230 +1.245
# magnetic-moments Co +2.665 -2.655 -2.701 -2.675 +2.702
# oxidation-state Cr +2.964
# magnetic-moments Cr +3.442
# oxidation-state O -0.882 -0.877 -0.870 -0.875 -0.807 -0.934 -0.938 -0.894 -0.925 -0.927 -0.865 -0.930 -0.941 -1.004 -1.004 -0.918 -0.463
# magnetic-moments O +0.016 +0.004 +0.010 +0.043 +0.015 +0.054 -0.023 -0.010 -0.068 -0.068 +0.078 +0.037 +0.039 +0.093 -0.049 -0.086 -0.805


Dumping 'run.ionpos' ... done
Dumping 'run.lattice' ... done
Dumping 'run.Ecomponents' ... done
End date and time: Sat May 17 12:20:30 2025  (Duration: 0-19:01:53.85)
Done!
