/var/spool/slurmd/job44076/slurm_script: line 9: module: command not found
/var/spool/slurmd/job44076/slurm_script: line 10: module: command not found

*************** JDFTx 1.7.0  ***************

Start date and time: Tue May  6 18:37:30 2025
Executable /data2/jt577/jdftx_eat_withLibXC/build/jdftx with command-line: -i /data2/jt577/May_2025/Relax_Mag/rel1+1_6/O/runs/calc_/run.in
Running on hosts (process indices):  node3302 (0-8)
Divided in process groups (process indices):  0 (0)  1 (1)  2 (2)  3 (3)  4 (4)  5 (5)  6 (6)  7 (7)  8 (8)
Resource initialization completed at t[s]:      0.00
Run totals: 9 processes, 63 threads, 0 GPUs


Input parsed successfully to the following command list (including defaults):

add-mix 
add-U 	Ni d 0.22 \
	V d 0.12 \
	Co d 0.2 \
	Cr d 0.16
basis kpoint-dependent
coords-type Lattice
core-overlap-check vector
coulomb-interaction Periodic
davidson-band-ratio 1.1
dump End IonicPositions Lattice Ecomponents
dump-name run.$VAR
elec-cutoff 30
elec-eigen-algo Davidson
elec-ex-corr gga-x-rpbe gga-c-pbe
elec-smearing Fermi 0.001
electronic-minimize  \
	dirUpdateScheme      FletcherReeves \
	linminMethod         DirUpdateRecommended \
	nIterations          1000 \
	history              15 \
	knormThreshold       0 \
	energyDiffThreshold  1e-06 \
	nEnergyDiff          5 \
	alphaTstart          1 \
	alphaTmin            1e-10 \
	updateTestStepSize   yes \
	alphaTreduceFactor   0.1 \
	alphaTincreaseFactor 3 \
	nAlphaAdjustMax      3 \
	wolfeEnergy          0.0001 \
	wolfeGradient        0.9 \
	fdTest               no
exchange-regularization WignerSeitzTruncated
fluid None
fluid-ex-corr (null) lda-PZ
fluid-gummel-loop 10 1.000000e-05
fluid-minimize  \
	dirUpdateScheme      PolakRibiere \
	linminMethod         DirUpdateRecommended \
	nIterations          100 \
	history              15 \
	knormThreshold       0 \
	energyDiffThreshold  0 \
	nEnergyDiff          2 \
	alphaTstart          1 \
	alphaTmin            1e-10 \
	updateTestStepSize   yes \
	alphaTreduceFactor   0.1 \
	alphaTincreaseFactor 3 \
	nAlphaAdjustMax      3 \
	wolfeEnergy          0.0001 \
	wolfeGradient        0.9 \
	fdTest               no
fluid-solvent H2O 55.338 ScalarEOS \
	epsBulk 78.4 \
	pMol 0.92466 \
	epsInf 1.77 \
	Pvap 1.06736e-10 \
	sigmaBulk 4.62e-05 \
	Rvdw 2.61727 \
	Res 1.42 \
	tauNuc 343133 \
	poleEl 15 7 1
forces-output-coords Positions
initial-magnetic-moments  \
	Ni 1 -1 1 \
	V -1 1 -1 1 1 -1 -1 \
	Co 1 -1 -1 -1 1 \
	Cr 1
initial-state run.$VAR
ion Ni  0.000000000000000   0.000000000000000   0.150000000000000 1
ion Ni  0.000000000000000   0.000000000000000  -0.050000000000000 0
ion Ni -0.250000000000000   0.250000000000000  -0.150000000000000 0
ion V  0.500000000000000   0.000000000000000   0.150000000000000 1
ion V  0.000000000000000   0.500000000000000   0.150000000000000 1
ion V  0.500000000000000   0.500000000000000   0.150000000000000 1
ion V  0.250000000000000   0.250000000000000   0.050000000000000 1
ion V  0.250000000000000   0.750000000000000   0.050000000000000 1
ion V -0.250000000000000   0.250000000000000   0.050000000000000 1
ion V -0.250000000000000   0.750000000000000   0.050000000000000 1
ion Co  0.500000000000000   0.000000000000000  -0.050000000000000 0
ion Co  0.000000000000000   0.500000000000000  -0.050000000000000 0
ion Co  0.250000000000000   0.250000000000000  -0.150000000000000 0
ion Co  0.250000000000000   0.750000000000000  -0.150000000000000 0
ion Co -0.250000000000000   0.750000000000000  -0.150000000000000 0
ion Cr  0.500000000000000   0.500000000000000  -0.050000000000000 0
ion O  0.250000000000000   0.250000000000000   0.150000000000000 1
ion O  0.250000000000000   0.750000000000000   0.150000000000000 1
ion O -0.250000000000000   0.250000000000000   0.150000000000000 1
ion O -0.250000000000000   0.750000000000000   0.150000000000000 1
ion O  0.000000000000000   0.000000000000000   0.050000000000000 1
ion O  0.500000000000000   0.000000000000000   0.050000000000000 1
ion O  0.000000000000000   0.500000000000000   0.050000000000000 1
ion O  0.500000000000000   0.500000000000000   0.050000000000000 1
ion O  0.250000000000000   0.250000000000000  -0.050000000000000 0
ion O  0.250000000000000   0.750000000000000  -0.050000000000000 0
ion O -0.250000000000000   0.250000000000000  -0.050000000000000 0
ion O -0.250000000000000   0.750000000000000  -0.050000000000000 0
ion O  0.000000000000000   0.000000000000000  -0.150000000000000 0
ion O  0.500000000000000   0.000000000000000  -0.150000000000000 0
ion O  0.000000000000000   0.500000000000000  -0.150000000000000 0
ion O  0.500000000000000   0.500000000000000  -0.150000000000000 0
ion O -0.000095572322686   0.000198307128402   0.224876729873325 1
ion-species SG15/$ID_ONCV_PBE.upf
ion-width 0
ionic-minimize  \
	dirUpdateScheme      L-BFGS \
	linminMethod         DirUpdateRecommended \
	nIterations          1000 \
	history              15 \
	knormThreshold       0.0001 \
	energyDiffThreshold  0.0001 \
	nEnergyDiff          3 \
	alphaTstart          1 \
	alphaTmin            1e-10 \
	updateTestStepSize   yes \
	alphaTreduceFactor   0.1 \
	alphaTincreaseFactor 3 \
	nAlphaAdjustMax      3 \
	wolfeEnergy          0.0001 \
	wolfeGradient        0.9 \
	fdTest               no
kpoint   0.500000000000   0.500000000000   0.500000000000  1.00000000000000
kpoint-folding 3 3 1 
latt-move-scale 1 1 1
latt-scale 1 1 1 
lattice  \
	   8.140000000000001    8.140000000000001    0.000000000000000  \
	   8.140000000000001   -8.140000000000001    0.000000000000000  \
	   0.000000000000000    0.000000000000000   40.700000000000003 
lattice-minimize  \
	dirUpdateScheme      L-BFGS \
	linminMethod         DirUpdateRecommended \
	nIterations          0 \
	history              15 \
	knormThreshold       0 \
	energyDiffThreshold  1e-06 \
	nEnergyDiff          2 \
	alphaTstart          1 \
	alphaTmin            1e-10 \
	updateTestStepSize   yes \
	alphaTreduceFactor   0.1 \
	alphaTincreaseFactor 3 \
	nAlphaAdjustMax      3 \
	wolfeEnergy          0.0001 \
	wolfeGradient        0.9 \
	fdTest               no
lcao-params -1 1e-06 0.001
pcm-variant GLSSA13
spintype z-spin
subspace-rotation-factor 1 yes
symmetries none
symmetry-threshold 0.0001


Applied RMS atom displacement 0 bohrs to make symmetries exact.

---------- Initializing the Grid ----------
R = 
[         8.14         8.14            0  ]
[         8.14        -8.14            0  ]
[            0            0         40.7  ]
unit cell volume = 5393.53
G =
[   0.385945   0.385945         -0  ]
[   0.385945  -0.385945         -0  ]
[         -0         -0   0.154378  ]
Minimum fftbox size, Smin = [  60  60  204  ]
Chosen fftbox size, S = [  60  60  210  ]

---------- Exchange Correlation functional ----------
Initialized LibXC exchange functional 'Hammer, Hansen, and Norskov'
Initialized LibXC correlation functional 'Perdew, Burke & Ernzerhof'

---------- Setting up pseudopotentials ----------
Width of ionic core gaussian charges (only for fluid interactions / plotting) set to 0

Reading pseudopotential file '/data2/jt577/jdftx_eat_withLibXC/build/pseudopotentials/SG15/Ni_ONCV_PBE.upf':
  'Ni' pseudopotential, 'PBE' functional
  Generated using ONCVPSP code by D. R. Hamann
  Author: Martin Schlipf and Francois Gygi  Date: 150915.
  18 valence electrons, 4 orbitals, 6 projectors, 1292 radial grid points, with lMax = 2
  Transforming local potential to a uniform radial grid of dG=0.02 with 1419 points.
  Transforming nonlocal projectors to a uniform radial grid of dG=0.02 with 528 points.
    3S    l: 0   occupation:  2.0   eigenvalue: -4.081355
    3P    l: 1   occupation:  6.0   eigenvalue: -2.623460
    4S    l: 0   occupation:  2.0   eigenvalue: -0.207378
    3D    l: 2   occupation:  8.0   eigenvalue: -0.326118
  Transforming atomic orbitals to a uniform radial grid of dG=0.02 with 528 points.
  WARNING: large normalization error in atomic orbital 1s (integral: 0.000006).
  Core radius for overlap checks: 1.99 bohrs.
  Reading pulay file /data2/jt577/jdftx_eat_withLibXC/build/pseudopotentials/SG15/Ni_ONCV_PBE.pulay ... using dE_dnG = -7.250568e-04 computed for Ecut = 30.

Reading pseudopotential file '/data2/jt577/jdftx_eat_withLibXC/build/pseudopotentials/SG15/V_ONCV_PBE.upf':
  'V' pseudopotential, 'PBE' functional
  Generated using ONCVPSP code by D. R. Hamann
  Author: Martin Schlipf and Francois Gygi  Date: 150915.
  13 valence electrons, 4 orbitals, 6 projectors, 1536 radial grid points, with lMax = 2
  Transforming local potential to a uniform radial grid of dG=0.02 with 1419 points.
  Transforming nonlocal projectors to a uniform radial grid of dG=0.02 with 528 points.
    3S    l: 0   occupation:  2.0   eigenvalue: -2.581105
    3P    l: 1   occupation:  6.0   eigenvalue: -1.618486
    4S    l: 0   occupation:  2.0   eigenvalue: -0.172804
    3D    l: 2   occupation:  3.0   eigenvalue: -0.189795
  Transforming atomic orbitals to a uniform radial grid of dG=0.02 with 528 points.
  Core radius for overlap checks: 1.80 bohrs.
  Reading pulay file /data2/jt577/jdftx_eat_withLibXC/build/pseudopotentials/SG15/V_ONCV_PBE.pulay ... using dE_dnG = -1.698632e-04 computed for Ecut = 30.

Reading pseudopotential file '/data2/jt577/jdftx_eat_withLibXC/build/pseudopotentials/SG15/Co_ONCV_PBE.upf':
  'Co' pseudopotential, 'PBE' functional
  Generated using ONCVPSP code by D. R. Hamann
  Author: Martin Schlipf and Francois Gygi  Date: 150915.
  17 valence electrons, 4 orbitals, 6 projectors, 1388 radial grid points, with lMax = 2
  Transforming local potential to a uniform radial grid of dG=0.02 with 1419 points.
  Transforming nonlocal projectors to a uniform radial grid of dG=0.02 with 528 points.
    3S    l: 0   occupation:  2.0   eigenvalue: -3.763303
    3P    l: 1   occupation:  6.0   eigenvalue: -2.412101
    4S    l: 0   occupation:  2.0   eigenvalue: -0.201022
    3D    l: 2   occupation:  7.0   eigenvalue: -0.301498
  Transforming atomic orbitals to a uniform radial grid of dG=0.02 with 528 points.
  Core radius for overlap checks: 1.94 bohrs.
  Reading pulay file /data2/jt577/jdftx_eat_withLibXC/build/pseudopotentials/SG15/Co_ONCV_PBE.pulay ... using dE_dnG = -9.787391e-05 computed for Ecut = 30.

Reading pseudopotential file '/data2/jt577/jdftx_eat_withLibXC/build/pseudopotentials/SG15/Cr_ONCV_PBE.upf':
  'Cr' pseudopotential, 'PBE' functional
  Generated using ONCVPSP code by D. R. Hamann
  Author: Martin Schlipf and Francois Gygi  Date: 150915.
  14 valence electrons, 4 orbitals, 6 projectors, 1160 radial grid points, with lMax = 2
  Transforming local potential to a uniform radial grid of dG=0.02 with 1419 points.
  Transforming nonlocal projectors to a uniform radial grid of dG=0.02 with 528 points.
    3S    l: 0   occupation:  2.0   eigenvalue: -2.865131
    3P    l: 1   occupation:  6.0   eigenvalue: -1.810600
    4S    l: 0   occupation:  2.0   eigenvalue: -0.180525
    3D    l: 2   occupation:  4.0   eigenvalue: -0.220312
  Transforming atomic orbitals to a uniform radial grid of dG=0.02 with 528 points.
  WARNING: large normalization error in atomic orbital 1s (integral: 0.000001).
  Core radius for overlap checks: 2.10 bohrs.
  Reading pulay file /data2/jt577/jdftx_eat_withLibXC/build/pseudopotentials/SG15/Cr_ONCV_PBE.pulay ... using dE_dnG = -9.817895e-06 computed for Ecut = 30.

Reading pseudopotential file '/data2/jt577/jdftx_eat_withLibXC/build/pseudopotentials/SG15/O_ONCV_PBE.upf':
  'O' pseudopotential, 'PBE' functional
  Generated using ONCVPSP code by D. R. Hamann
  Author: Martin Schlipf and Francois Gygi  Date: 150915.
  6 valence electrons, 2 orbitals, 4 projectors, 936 radial grid points, with lMax = 1
  Transforming local potential to a uniform radial grid of dG=0.02 with 1419 points.
  Transforming nonlocal projectors to a uniform radial grid of dG=0.02 with 528 points.
    2S    l: 0   occupation:  2.0   eigenvalue: -0.880572
    2P    l: 1   occupation:  4.0   eigenvalue: -0.331869
  Transforming atomic orbitals to a uniform radial grid of dG=0.02 with 528 points.
  Core radius for overlap checks: 1.29 bohrs.
  Reading pulay file /data2/jt577/jdftx_eat_withLibXC/build/pseudopotentials/SG15/O_ONCV_PBE.pulay ... using dE_dnG = -8.209514e-03 computed for Ecut = 30.

Initialized 5 species with 33 total atoms.

Folded 1 k-points by 3x3x1 to 9 k-points.

---------- Setting up k-points, bands, fillings ----------
No reducable k-points. 
Computing the number of bands and number of electrons
Calculating initial fillings.
nElectrons: 346.000000   nBands: 228   nStates: 18

----- Setting up reduced wavefunction bases (one per k-point) -----
average nbasis = 42312.000 , ideal nbasis = 42330.081

---------- Setting up ewald sum ----------
Optimum gaussian width for ewald sums = 3.906449 bohr.
Real space sum over 605 unit cells with max indices [  5  5  2  ]
Reciprocal space sum over 5915 terms with max indices [  6  6  17  ]

---------- Allocating electronic variables ----------
Initializing wave functions:  linear combination of atomic orbitals
Ni (M=1) pseudo-atom majority spin occupations:   s ( 1 0.5 )  p ( 3 )  d ( 5 )
Ni (M=1) pseudo-atom minority spin occupations:   s ( 1 0 )  p ( 3 )  d ( 4.5 )
V (M=1) pseudo-atom majority spin occupations:   s ( 1 0 )  p ( 3 )  d ( 3 )
V (M=1) pseudo-atom minority spin occupations:   s ( 1 0 )  p ( 3 )  d ( 2 )
Co (M=1) pseudo-atom majority spin occupations:   s ( 1 0 )  p ( 3 )  d ( 5 )
Co (M=1) pseudo-atom minority spin occupations:   s ( 1 0 )  p ( 3 )  d ( 4 )
Cr (M=1) pseudo-atom majority spin occupations:   s ( 1 0 )  p ( 3 )  d ( 3.5 )
Cr (M=1) pseudo-atom minority spin occupations:   s ( 1 0 )  p ( 3 )  d ( 2.5 )
O pseudo-atom occupations:   s ( 2 )  p ( 4 )
	FillingsUpdate:  mu: +2.108148423  nElectrons: 346.000000  magneticMoment: [ Abs: 6.25021  Tot: -0.00000 ]
LCAOMinimize: Iter:   0  F: -1838.5621104704891877  |grad|_K:  8.320e-02  alpha:  1.000e+00
LCAOMinimize: 	Step increased F by 3.492107e+02, reducing alpha to 4.590761e-02.
LCAOMinimize: 	Step increased F by 3.736690e+00, reducing alpha to 4.590761e-03.
	FillingsUpdate:  mu: +1.300512909  nElectrons: 346.000000  magneticMoment: [ Abs: 8.49991  Tot: -0.00000 ]
LCAOMinimize: Iter:   1  F: -1871.6175141328571954  |grad|_K:  6.960e-02  alpha:  4.591e-03  linmin: -1.398e-01  cgtest:  8.475e-01  t[s]:     94.51
LCAOMinimize: Encountered beta<0, resetting CG.
LCAOMinimize: 	Predicted alpha/alphaT>3.000000, increasing alphaT to 1.377228e-02.
	FillingsUpdate:  mu: -0.070964794  nElectrons: 346.000000  magneticMoment: [ Abs: 11.66686  Tot: +0.00000 ]
LCAOMinimize: Iter:   2  F: -1903.9103560231449137  |grad|_K:  2.064e-02  alpha:  1.410e-02  linmin: -1.437e-02  cgtest:  5.616e-02  t[s]:    121.92
	FillingsUpdate:  mu: +0.171039190  nElectrons: 346.000000  magneticMoment: [ Abs: 13.28910  Tot: -0.00000 ]
LCAOMinimize: Iter:   3  F: -1908.8040367147052621  |grad|_K:  1.821e-02  alpha:  2.650e-02  linmin:  3.815e-02  cgtest: -2.834e-01  t[s]:    143.35
	FillingsUpdate:  mu: +0.438613672  nElectrons: 346.000000  magneticMoment: [ Abs: 13.79430  Tot: +0.00000 ]
LCAOMinimize: Iter:   4  F: -1908.9612810372220792  |grad|_K:  1.881e-02  alpha:  1.168e-02  linmin: -6.336e-04  cgtest:  1.110e+00  t[s]:    164.95
LCAOMinimize: Encountered beta<0, resetting CG.
LCAOMinimize: 	Predicted alpha/alphaT>3.000000, increasing alphaT to 3.503326e-02.
	FillingsUpdate:  mu: -0.055249193  nElectrons: 346.000000  magneticMoment: [ Abs: 15.69313  Tot: -0.00000 ]
LCAOMinimize: Iter:   5  F: -1913.2233093894012654  |grad|_K:  1.526e-02  alpha:  2.526e-02  linmin:  7.605e-03  cgtest: -2.252e-01  t[s]:    192.38
	FillingsUpdate:  mu: +0.009276778  nElectrons: 346.000000  magneticMoment: [ Abs: 17.41688  Tot: -0.00000 ]
LCAOMinimize: Iter:   6  F: -1915.0218978387074458  |grad|_K:  2.140e-02  alpha:  1.835e-02  linmin:  1.056e-03  cgtest:  5.309e-01  t[s]:    213.75
LCAOMinimize: 	Predicted alpha/alphaT>3.000000, increasing alphaT to 5.505299e-02.
	FillingsUpdate:  mu: +0.429897853  nElectrons: 346.000000  magneticMoment: [ Abs: 22.51806  Tot: +0.00000 ]
LCAOMinimize: Iter:   7  F: -1927.4550854392568908  |grad|_K:  3.819e-02  alpha:  4.545e-02  linmin:  2.029e-03  cgtest:  7.486e-01  t[s]:    241.07
	FillingsUpdate:  mu: +0.374919077  nElectrons: 346.000000  magneticMoment: [ Abs: 20.90560  Tot: +0.00000 ]
LCAOMinimize: Iter:   8  F: -1931.9674154501958583  |grad|_K:  3.846e-02  alpha:  4.826e-03  linmin: -1.510e-02  cgtest:  9.458e-01  t[s]:    262.24
	FillingsUpdate:  mu: +0.019919536  nElectrons: 346.000000  magneticMoment: [ Abs: 17.76606  Tot: -0.00000 ]
LCAOMinimize: Iter:   9  F: -1938.2637467244448999  |grad|_K:  1.016e-02  alpha:  8.955e-03  linmin: -5.888e-04  cgtest: -1.912e-01  t[s]:    283.27
LCAOMinimize: 	Predicted alpha/alphaT>3.000000, increasing alphaT to 2.686499e-02.
LCAOMinimize: 	Step increased F by 5.401826e-01, reducing alpha to 5.252522e-03.
	FillingsUpdate:  mu: +0.020865942  nElectrons: 346.000000  magneticMoment: [ Abs: 17.79578  Tot: -0.00000 ]
LCAOMinimize: Iter:  10  F: -1938.7542802535258488  |grad|_K:  9.130e-03  alpha:  5.253e-03  linmin: -1.011e-01  cgtest:  9.645e-01  t[s]:    326.43
LCAOMinimize: Encountered beta<0, resetting CG.
LCAOMinimize: 	Predicted alpha/alphaT>3.000000, increasing alphaT to 1.575756e-02.
	FillingsUpdate:  mu: +0.153911064  nElectrons: 346.000000  magneticMoment: [ Abs: 19.57497  Tot: -0.00000 ]
LCAOMinimize: Iter:  11  F: -1939.7633651895728235  |grad|_K:  1.246e-02  alpha:  2.644e-02  linmin:  2.524e-03  cgtest: -1.032e-01  t[s]:    353.95
	FillingsUpdate:  mu: +0.290665815  nElectrons: 346.000000  magneticMoment: [ Abs: 19.89763  Tot: +0.00000 ]
LCAOMinimize: Iter:  12  F: -1940.2135553666730630  |grad|_K:  1.180e-02  alpha:  8.380e-03  linmin:  8.613e-02  cgtest:  7.874e-02  t[s]:    375.78
LCAOMinimize: 	Bad step direction: g.d > 0.
LCAOMinimize: 	Undoing step.
LCAOMinimize: 	Step failed: resetting search direction.
	FillingsUpdate:  mu: +0.290665815  nElectrons: 346.000000  magneticMoment: [ Abs: 19.89763  Tot: +0.00000 ]
LCAOMinimize: Iter:  13  F: -1940.2135553666730630  |grad|_K:  1.180e-02  alpha:  0.000e+00
	FillingsUpdate:  mu: +0.129206487  nElectrons: 346.000000  magneticMoment: [ Abs: 19.76508  Tot: -0.00000 ]
LCAOMinimize: Iter:  14  F: -1940.9204694664169892  |grad|_K:  7.140e-03  alpha:  1.161e-02  linmin:  2.940e-02  cgtest: -2.740e-01  t[s]:    414.20
	FillingsUpdate:  mu: +0.030334895  nElectrons: 346.000000  magneticMoment: [ Abs: 18.90286  Tot: +0.00000 ]
LCAOMinimize: Iter:  15  F: -1941.1777881768309726  |grad|_K:  5.095e-03  alpha:  1.275e-02  linmin: -5.236e-05  cgtest:  4.615e-01  t[s]:    436.69
	FillingsUpdate:  mu: +0.175787651  nElectrons: 346.000000  magneticMoment: [ Abs: 19.72958  Tot: -0.00000 ]
LCAOMinimize: Iter:  16  F: -1941.3452302265934577  |grad|_K:  9.226e-03  alpha:  2.558e-02  linmin:  2.800e-02  cgtest: -2.059e-01  t[s]:    458.91
	FillingsUpdate:  mu: +0.188091362  nElectrons: 346.000000  magneticMoment: [ Abs: 19.81828  Tot: +0.00000 ]
LCAOMinimize: Iter:  17  F: -1941.3461802437636834  |grad|_K:  9.582e-03  alpha:  6.441e-04  linmin:  4.447e-04  cgtest:  1.000e+00  t[s]:    480.63
LCAOMinimize: 	Predicted alpha/alphaT>3.000000, increasing alphaT to 1.932253e-03.
LCAOMinimize: 	Predicted alpha/alphaT>3.000000, increasing alphaT to 5.796758e-03.
	FillingsUpdate:  mu: +0.108033497  nElectrons: 346.000000  magneticMoment: [ Abs: 20.12170  Tot: -0.00000 ]
LCAOMinimize: Iter:  18  F: -1941.6321786232133491  |grad|_K:  2.774e-03  alpha:  6.545e-03  linmin: -3.382e-02  cgtest:  1.445e-01  t[s]:    514.27
LCAOMinimize: 	Predicted alpha/alphaT>3.000000, increasing alphaT to 1.963433e-02.
	FillingsUpdate:  mu: +0.059682989  nElectrons: 346.000000  magneticMoment: [ Abs: 20.09495  Tot: -0.00000 ]
LCAOMinimize: Iter:  19  F: -1941.8409888927319571  |grad|_K:  4.232e-03  alpha:  5.281e-02  linmin: -3.793e-03  cgtest: -1.053e-02  t[s]:    541.69
	FillingsUpdate:  mu: +0.103759550  nElectrons: 346.000000  magneticMoment: [ Abs: 21.63568  Tot: -0.00000 ]
LCAOMinimize: Iter:  20  F: -1942.1686055641439452  |grad|_K:  3.105e-03  alpha:  2.932e-02  linmin: -2.455e-03  cgtest: -2.237e-01  t[s]:    563.44
	FillingsUpdate:  mu: +0.136855663  nElectrons: 346.000000  magneticMoment: [ Abs: 22.48767  Tot: -0.00000 ]
LCAOMinimize: Iter:  21  F: -1942.2436858987130108  |grad|_K:  2.129e-03  alpha:  1.613e-02  linmin:  1.206e-03  cgtest:  2.397e-01  t[s]:    585.39
	FillingsUpdate:  mu: +0.115548533  nElectrons: 346.000000  magneticMoment: [ Abs: 23.03412  Tot: +0.00000 ]
LCAOMinimize: Iter:  22  F: -1942.3167162636113972  |grad|_K:  1.844e-03  alpha:  3.294e-02  linmin: -4.635e-03  cgtest:  2.652e-01  t[s]:    606.63
	FillingsUpdate:  mu: +0.118750929  nElectrons: 346.000000  magneticMoment: [ Abs: 23.75370  Tot: +0.00000 ]
LCAOMinimize: Iter:  23  F: -1942.3586234616468573  |grad|_K:  1.876e-03  alpha:  2.461e-02  linmin: -3.763e-04  cgtest: -1.158e-01  t[s]:    628.03
	FillingsUpdate:  mu: +0.136638218  nElectrons: 346.000000  magneticMoment: [ Abs: 25.77762  Tot: +0.00000 ]
LCAOMinimize: Iter:  24  F: -1942.4377534766410918  |grad|_K:  1.282e-03  alpha:  4.487e-02  linmin: -4.072e-03  cgtest:  8.537e-02  t[s]:    649.96
	FillingsUpdate:  mu: +0.117755157  nElectrons: 346.000000  magneticMoment: [ Abs: 26.54151  Tot: -0.00000 ]
LCAOMinimize: Iter:  25  F: -1942.4836932020957647  |grad|_K:  1.396e-03  alpha:  5.258e-02  linmin: -2.928e-03  cgtest: -3.728e-02  t[s]:    671.83
	FillingsUpdate:  mu: +0.130583641  nElectrons: 346.000000  magneticMoment: [ Abs: 28.38001  Tot: +0.00000 ]
LCAOMinimize: Iter:  26  F: -1942.5440994718076126  |grad|_K:  2.021e-03  alpha:  5.822e-02  linmin:  8.280e-04  cgtest: -2.260e-01  t[s]:    693.81
	FillingsUpdate:  mu: +0.152800098  nElectrons: 346.000000  magneticMoment: [ Abs: 30.56715  Tot: +0.00000 ]
LCAOMinimize: Iter:  27  F: -1942.6023031249626456  |grad|_K:  1.611e-03  alpha:  3.949e-02  linmin: -5.408e-04  cgtest:  7.703e-01  t[s]:    716.19
	FillingsUpdate:  mu: +0.142653248  nElectrons: 346.000000  magneticMoment: [ Abs: 30.32968  Tot: +0.00000 ]
LCAOMinimize: Iter:  28  F: -1942.6321730112199475  |grad|_K:  9.257e-04  alpha:  2.540e-02  linmin:  2.245e-03  cgtest: -2.530e-02  t[s]:    738.34
	FillingsUpdate:  mu: +0.114669166  nElectrons: 346.000000  magneticMoment: [ Abs: 30.30396  Tot: +0.00000 ]
LCAOMinimize: Iter:  29  F: -1942.6470291740390621  |grad|_K:  8.872e-04  alpha:  3.960e-02  linmin:  1.272e-02  cgtest: -6.029e-02  t[s]:    760.52
	FillingsUpdate:  mu: +0.124705758  nElectrons: 346.000000  magneticMoment: [ Abs: 30.79299  Tot: +0.00000 ]
LCAOMinimize: Iter:  30  F: -1942.6661151225941921  |grad|_K:  5.897e-04  alpha:  5.988e-02  linmin: -2.298e-03  cgtest:  6.057e-01  t[s]:    782.98
LCAOMinimize: None of the convergence criteria satisfied after 30 iterations.


---- Citations for features of the code used in this run ----

   Software package:
      R. Sundararaman, K. Letchworth-Weaver, K.A. Schwarz, D. Gunceler, Y. Ozhabes and T.A. Arias, 'JDFTx: software for joint density-functional theory', SoftwareX 6, 278 (2017)

   Simplified rotationally-invariant DFT+U:
      S. L. Dudarev et al., Phys. Rev. B 57, 1505 (1998)

   LibXC library of exchange-correlation functions:
      M. A. L. Marques, M. J. T. Oliveira and T. Burnus, Comput. Phys. Commun. 183, 2272 (2012)

   Hammer, Hansen, and Norskov exchange functional:
      B. Hammer, L. B. Hansen, and J. K. Nørskov, Phys. Rev. B 59, 7413 (1999)

   Perdew, Burke & Ernzerhof correlation functional:
      J. P. Perdew, K. Burke, and M. Ernzerhof, Phys. Rev. Lett. 77, 3865 (1996)

   Pseudopotentials:
      M Schlipf and F Gygi, Comput. Phys. Commun. 196, 36 (2015)

   Total energy minimization with Auxiliary Hamiltonian:
      C. Freysoldt, S. Boeck, and J. Neugebauer, Phys. Rev. B 79, 241103(R) (2009)

This list may not be complete. Please suggest additional citations or
report any other bugs at https://github.com/shankar1729/jdftx/issues

Initialization completed successfully at t[s]:    790.37


-------- Electronic minimization -----------
	FillingsUpdate:  mu: +0.124705769  nElectrons: 346.000000  magneticMoment: [ Abs: 30.79299  Tot: +0.00000 ]
ElecMinimize: Iter:   0  F: -1942.666115122599649  |grad|_K:  7.615e-04  alpha:  1.000e+00
	FillingsUpdate:  mu: +0.296115434  nElectrons: 346.000000  magneticMoment: [ Abs: 31.47343  Tot: +0.00000 ]
	SubspaceRotationAdjust: set factor to 0.994
ElecMinimize: Iter:   1  F: -1968.839261458034343  |grad|_K:  8.858e-04  alpha:  4.727e-01  linmin:  6.563e-03  t[s]:    859.84
	FillingsUpdate:  mu: +0.461015975  nElectrons: 346.000000  magneticMoment: [ Abs: 32.82540  Tot: -0.00000 ]
	SubspaceRotationAdjust: set factor to 0.714
ElecMinimize: Iter:   2  F: -1971.751265857960107  |grad|_K:  9.955e-04  alpha:  5.748e-02  linmin:  2.665e-03  t[s]:    906.57
	FillingsUpdate:  mu: +0.151537142  nElectrons: 346.000000  magneticMoment: [ Abs: 33.98198  Tot: -0.00000 ]
	SubspaceRotationAdjust: set factor to 0.871
ElecMinimize: Iter:   3  F: -1978.666238082852260  |grad|_K:  5.118e-04  alpha:  5.475e-02  linmin: -8.024e-04  t[s]:    952.96
	FillingsUpdate:  mu: +0.737802550  nElectrons: 346.000000  magneticMoment: [ Abs: 32.94999  Tot: +0.00000 ]
	SubspaceRotationAdjust: set factor to 0.483
ElecMinimize: Iter:   4  F: -1982.994141876717094  |grad|_K:  9.793e-04  alpha:  1.282e-01  linmin:  2.299e-03  t[s]:    999.21
	FillingsUpdate:  mu: +0.627588807  nElectrons: 346.000000  magneticMoment: [ Abs: 33.78089  Tot: +0.00000 ]
	SubspaceRotationAdjust: set factor to 0.303
ElecMinimize: Iter:   5  F: -1984.399741022386252  |grad|_K:  6.578e-04  alpha:  8.120e-03  linmin: -2.017e-03  t[s]:   1044.94
	FillingsUpdate:  mu: +0.447420780  nElectrons: 346.000000  magneticMoment: [ Abs: 34.61377  Tot: +0.00000 ]
	SubspaceRotationAdjust: set factor to 0.274
ElecMinimize: Iter:   6  F: -1985.953431613104385  |grad|_K:  4.289e-04  alpha:  1.123e-02  linmin: -3.918e-03  t[s]:   1091.81
ElecMinimize: 	Predicted alpha/alphaT>3.000000, increasing alphaT to 3.368496e-02.
	FillingsUpdate:  mu: +0.276349415  nElectrons: 346.000000  magneticMoment: [ Abs: 36.99721  Tot: -0.00000 ]
	SubspaceRotationAdjust: set factor to 0.265
ElecMinimize: Iter:   7  F: -1988.243007140796635  |grad|_K:  3.018e-04  alpha:  3.760e-02  linmin: -1.325e-04  t[s]:   1150.87
	FillingsUpdate:  mu: +0.357710763  nElectrons: 346.000000  magneticMoment: [ Abs: 37.49782  Tot: -0.00000 ]
	SubspaceRotationAdjust: set factor to 0.269
ElecMinimize: Iter:   8  F: -1988.824421354783226  |grad|_K:  3.237e-04  alpha:  3.555e-02  linmin: -1.714e-05  t[s]:   1197.23
	FillingsUpdate:  mu: +0.353408804  nElectrons: 346.000000  magneticMoment: [ Abs: 37.59026  Tot: -0.00000 ]
	SubspaceRotationAdjust: set factor to 0.199
ElecMinimize: Iter:   9  F: -1989.259783376838413  |grad|_K:  3.414e-04  alpha:  2.304e-02  linmin: -2.574e-05  t[s]:   1243.99
	FillingsUpdate:  mu: +0.320477898  nElectrons: 346.000000  magneticMoment: [ Abs: 37.32050  Tot: +0.00000 ]
	SubspaceRotationAdjust: set factor to 0.156
ElecMinimize: Iter:  10  F: -1989.602629480817541  |grad|_K:  2.761e-04  alpha:  1.432e-02  linmin: -1.346e-05  t[s]:   1290.53
	FillingsUpdate:  mu: +0.290363843  nElectrons: 346.000000  magneticMoment: [ Abs: 37.00285  Tot: +0.00000 ]
	SubspaceRotationAdjust: set factor to 0.14
ElecMinimize: Iter:  11  F: -1989.748109347222680  |grad|_K:  2.277e-04  alpha:  1.108e-02  linmin: -6.476e-05  t[s]:   1337.67
	FillingsUpdate:  mu: +0.259684367  nElectrons: 346.000000  magneticMoment: [ Abs: 36.76823  Tot: +0.00000 ]
	SubspaceRotationAdjust: set factor to 0.122
	SubspaceRotationAdjust: resetting CG because factor has changed by 0.121932
ElecMinimize: 	State modified externally: resetting search direction.
ElecMinimize: Iter:  12  F: -1989.881024877008485  |grad|_K:  2.004e-04  alpha:  1.441e-02
ElecMinimize: 	Predicted alpha/alphaT>3.000000, increasing alphaT to 4.322138e-02.
ElecMinimize: 	Predicted alpha/alphaT>3.000000, increasing alphaT to 1.296641e-01.
	FillingsUpdate:  mu: +0.135889831  nElectrons: 346.000000  magneticMoment: [ Abs: 37.73376  Tot: -0.00000 ]
	SubspaceRotationAdjust: set factor to 0.158
ElecMinimize: Iter:  13  F: -1991.471041393827818  |grad|_K:  6.943e-05  alpha:  2.216e-01  linmin: -6.094e-03  t[s]:   1480.02
	FillingsUpdate:  mu: +0.208383574  nElectrons: 346.000000  magneticMoment: [ Abs: 37.68039  Tot: +0.00000 ]
	SubspaceRotationAdjust: set factor to 0.122
ElecMinimize: Iter:  14  F: -1991.744929166635529  |grad|_K:  7.315e-05  alpha:  3.311e-01  linmin:  2.172e-03  t[s]:   1526.63
	FillingsUpdate:  mu: +0.175649534  nElectrons: 346.000000  magneticMoment: [ Abs: 37.28014  Tot: -0.00000 ]
	SubspaceRotationAdjust: set factor to 0.193
ElecMinimize: Iter:  15  F: -1991.886518607746211  |grad|_K:  5.517e-05  alpha:  1.822e-01  linmin: -5.709e-05  t[s]:   1572.32
	FillingsUpdate:  mu: +0.144668075  nElectrons: 346.000000  magneticMoment: [ Abs: 36.99939  Tot: -0.00000 ]
	SubspaceRotationAdjust: set factor to 0.176
ElecMinimize: Iter:  16  F: -1991.973849960833832  |grad|_K:  5.507e-05  alpha:  1.620e-01  linmin:  8.833e-05  t[s]:   1618.00
	FillingsUpdate:  mu: +0.136120520  nElectrons: 346.000000  magneticMoment: [ Abs: 37.10359  Tot: -0.00000 ]
	SubspaceRotationAdjust: set factor to 0.265
ElecMinimize: Iter:  17  F: -1992.068878060302723  |grad|_K:  4.297e-05  alpha:  1.840e-01  linmin: -1.581e-06  t[s]:   1663.83
	FillingsUpdate:  mu: +0.157117081  nElectrons: 346.000000  magneticMoment: [ Abs: 37.44288  Tot: +0.00000 ]
	SubspaceRotationAdjust: set factor to 0.208
ElecMinimize: Iter:  18  F: -1992.124337238038152  |grad|_K:  5.183e-05  alpha:  1.725e-01  linmin: -6.138e-06  t[s]:   1709.69
	FillingsUpdate:  mu: +0.130571741  nElectrons: 346.000000  magneticMoment: [ Abs: 37.91003  Tot: -0.00000 ]
	SubspaceRotationAdjust: set factor to 0.235
ElecMinimize: Iter:  19  F: -1992.177226708671924  |grad|_K:  3.535e-05  alpha:  1.179e-01  linmin: -7.043e-06  t[s]:   1755.88
	FillingsUpdate:  mu: +0.120461133  nElectrons: 346.000000  magneticMoment: [ Abs: 37.93898  Tot: +0.00000 ]
	SubspaceRotationAdjust: set factor to 0.246
ElecMinimize: Iter:  20  F: -1992.232641127840907  |grad|_K:  3.603e-05  alpha:  2.797e-01  linmin:  1.999e-04  t[s]:   1802.16
	FillingsUpdate:  mu: +0.138036357  nElectrons: 346.000000  magneticMoment: [ Abs: 38.03559  Tot: +0.00000 ]
	SubspaceRotationAdjust: set factor to 0.202
ElecMinimize: Iter:  21  F: -1992.258998770524386  |grad|_K:  4.421e-05  alpha:  1.416e-01  linmin:  7.445e-06  t[s]:   1848.39
	FillingsUpdate:  mu: +0.120515342  nElectrons: 346.000000  magneticMoment: [ Abs: 38.68615  Tot: -0.00000 ]
	SubspaceRotationAdjust: set factor to 0.187
ElecMinimize: Iter:  22  F: -1992.311725350688903  |grad|_K:  3.361e-05  alpha:  1.606e-01  linmin:  1.124e-04  t[s]:   1894.37
	FillingsUpdate:  mu: +0.150559169  nElectrons: 346.000000  magneticMoment: [ Abs: 39.17685  Tot: +0.00000 ]
	SubspaceRotationAdjust: set factor to 0.212
ElecMinimize: Iter:  23  F: -1992.347644117282471  |grad|_K:  3.959e-05  alpha:  2.189e-01  linmin:  6.540e-05  t[s]:   1940.11
	FillingsUpdate:  mu: +0.149750716  nElectrons: 346.000000  magneticMoment: [ Abs: 39.18172  Tot: +0.00000 ]
	SubspaceRotationAdjust: set factor to 0.228
ElecMinimize: Iter:  24  F: -1992.348006275068883  |grad|_K:  4.019e-05  alpha:  3.670e-03  linmin: -7.249e-04  t[s]:   1985.83
ElecMinimize: 	Predicted alpha/alphaT>3.000000, increasing alphaT to 1.100879e-02.
ElecMinimize: 	Predicted alpha/alphaT>3.000000, increasing alphaT to 3.302636e-02.
	FillingsUpdate:  mu: +0.138881881  nElectrons: 346.000000  magneticMoment: [ Abs: 39.13096  Tot: +0.00000 ]
	SubspaceRotationAdjust: set factor to 0.166
ElecMinimize: Iter:  25  F: -1992.390319977202580  |grad|_K:  3.845e-05  alpha:  9.512e-02  linmin:  9.157e-04  t[s]:   2057.24
	FillingsUpdate:  mu: +0.138994649  nElectrons: 346.000000  magneticMoment: [ Abs: 39.13092  Tot: +0.00000 ]
	SubspaceRotationAdjust: set factor to 0.141
ElecMinimize: Iter:  26  F: -1992.390417203272136  |grad|_K:  3.483e-05  alpha:  4.043e-05  linmin: -6.618e-05  t[s]:   2103.03
ElecMinimize: 	Predicted alpha/alphaT>3.000000, increasing alphaT to 1.212898e-04.
ElecMinimize: 	Predicted alpha/alphaT>3.000000, increasing alphaT to 3.638695e-04.
ElecMinimize: 	Predicted alpha/alphaT>3.000000, increasing alphaT to 1.091609e-03.
	FillingsUpdate:  mu: +0.123733172  nElectrons: 346.000000  magneticMoment: [ Abs: 39.14550  Tot: -0.00000 ]
	SubspaceRotationAdjust: set factor to 0.177
ElecMinimize: Iter:  27  F: -1992.393354685609893  |grad|_K:  2.710e-05  alpha:  1.619e-02  linmin:  3.758e-04  t[s]:   2175.00
	FillingsUpdate:  mu: +0.119860033  nElectrons: 346.000000  magneticMoment: [ Abs: 39.15174  Tot: -0.00000 ]
	SubspaceRotationAdjust: set factor to 0.228
ElecMinimize: Iter:  28  F: -1992.393911719366088  |grad|_K:  2.596e-05  alpha:  6.255e-03  linmin: -3.776e-05  t[s]:   2220.99
	FillingsUpdate:  mu: +0.114247133  nElectrons: 346.000000  magneticMoment: [ Abs: 39.16415  Tot: -0.00000 ]
	SubspaceRotationAdjust: set factor to 0.314
ElecMinimize: Iter:  29  F: -1992.394850566267905  |grad|_K:  2.348e-05  alpha:  7.796e-03  linmin:  3.290e-05  t[s]:   2267.10
	FillingsUpdate:  mu: +0.109837792  nElectrons: 346.000000  magneticMoment: [ Abs: 39.17738  Tot: -0.00000 ]
	SubspaceRotationAdjust: set factor to 0.412
ElecMinimize: Iter:  30  F: -1992.395445513072445  |grad|_K:  2.231e-05  alpha:  6.341e-03  linmin:  5.923e-06  t[s]:   2312.71
	FillingsUpdate:  mu: +0.112151299  nElectrons: 346.000000  magneticMoment: [ Abs: 39.19393  Tot: -0.00000 ]
	SubspaceRotationAdjust: set factor to 0.492
ElecMinimize: Iter:  31  F: -1992.395953033305886  |grad|_K:  2.236e-05  alpha:  5.875e-03  linmin:  6.480e-06  t[s]:   2358.37
	FillingsUpdate:  mu: +0.114494321  nElectrons: 346.000000  magneticMoment: [ Abs: 39.21488  Tot: +0.00000 ]
	SubspaceRotationAdjust: set factor to 0.45
ElecMinimize: Iter:  32  F: -1992.396434780473783  |grad|_K:  2.367e-05  alpha:  5.557e-03  linmin:  8.122e-06  t[s]:   2404.00
	FillingsUpdate:  mu: +0.115795512  nElectrons: 346.000000  magneticMoment: [ Abs: 39.24019  Tot: -0.00000 ]
	SubspaceRotationAdjust: set factor to 0.366
ElecMinimize: Iter:  33  F: -1992.396933707876997  |grad|_K:  2.380e-05  alpha:  5.131e-03  linmin:  1.283e-05  t[s]:   2449.99
	FillingsUpdate:  mu: +0.117022858  nElectrons: 346.000000  magneticMoment: [ Abs: 39.26654  Tot: -0.00000 ]
	SubspaceRotationAdjust: set factor to 0.294
ElecMinimize: Iter:  34  F: -1992.397424558223975  |grad|_K:  2.222e-05  alpha:  5.011e-03  linmin:  1.943e-05  t[s]:   2496.03
	FillingsUpdate:  mu: +0.117085166  nElectrons: 346.000000  magneticMoment: [ Abs: 39.29034  Tot: -0.00000 ]
	SubspaceRotationAdjust: set factor to 0.248
ElecMinimize: Iter:  35  F: -1992.397865553755764  |grad|_K:  1.985e-05  alpha:  5.182e-03  linmin:  2.085e-05  t[s]:   2541.82
	FillingsUpdate:  mu: +0.115442551  nElectrons: 346.000000  magneticMoment: [ Abs: 39.31036  Tot: -0.00000 ]
	SubspaceRotationAdjust: set factor to 0.226
ElecMinimize: Iter:  36  F: -1992.398243900345278  |grad|_K:  1.771e-05  alpha:  5.571e-03  linmin:  1.752e-05  t[s]:   2587.65
	FillingsUpdate:  mu: +0.113132993  nElectrons: 346.000000  magneticMoment: [ Abs: 39.32729  Tot: +0.00000 ]
	SubspaceRotationAdjust: set factor to 0.217
ElecMinimize: Iter:  37  F: -1992.398569753665697  |grad|_K:  1.625e-05  alpha:  6.015e-03  linmin:  1.233e-05  t[s]:   2633.74
	FillingsUpdate:  mu: +0.110804208  nElectrons: 346.000000  magneticMoment: [ Abs: 39.34255  Tot: -0.00000 ]
	SubspaceRotationAdjust: set factor to 0.211
ElecMinimize: Iter:  38  F: -1992.398862611818686  |grad|_K:  1.553e-05  alpha:  6.398e-03  linmin:  7.092e-06  t[s]:   2679.49
	FillingsUpdate:  mu: +0.109977525  nElectrons: 346.000000  magneticMoment: [ Abs: 39.35777  Tot: -0.00000 ]
	SubspaceRotationAdjust: set factor to 0.195
ElecMinimize: Iter:  39  F: -1992.399144593154460  |grad|_K:  1.537e-05  alpha:  6.733e-03  linmin:  2.118e-06  t[s]:   2725.34
	FillingsUpdate:  mu: +0.109064945  nElectrons: 346.000000  magneticMoment: [ Abs: 39.37465  Tot: -0.00000 ]
	SubspaceRotationAdjust: set factor to 0.17
ElecMinimize: Iter:  40  F: -1992.399437252664711  |grad|_K:  1.549e-05  alpha:  7.119e-03  linmin: -2.759e-06  t[s]:   2771.20
	FillingsUpdate:  mu: +0.109183968  nElectrons: 346.000000  magneticMoment: [ Abs: 39.39470  Tot: -0.00000 ]
	SubspaceRotationAdjust: set factor to 0.143
ElecMinimize: Iter:  41  F: -1992.399756956429201  |grad|_K:  1.556e-05  alpha:  7.643e-03  linmin: -7.063e-06  t[s]:   2816.85
	FillingsUpdate:  mu: +0.111253632  nElectrons: 346.000000  magneticMoment: [ Abs: 39.41859  Tot: -0.00000 ]
	SubspaceRotationAdjust: set factor to 0.119
ElecMinimize: Iter:  42  F: -1992.400108703745900  |grad|_K:  1.536e-05  alpha:  8.326e-03  linmin: -9.962e-06  t[s]:   2862.59
	FillingsUpdate:  mu: +0.113098613  nElectrons: 346.000000  magneticMoment: [ Abs: 39.44583  Tot: -0.00000 ]
	SubspaceRotationAdjust: set factor to 0.103
ElecMinimize: Iter:  43  F: -1992.400483702134579  |grad|_K:  1.487e-05  alpha:  9.109e-03  linmin: -1.237e-05  t[s]:   2907.98
	FillingsUpdate:  mu: +0.113773813  nElectrons: 346.000000  magneticMoment: [ Abs: 39.47513  Tot: +0.00000 ]
	SubspaceRotationAdjust: set factor to 0.0933
ElecMinimize: Iter:  44  F: -1992.400865725502399  |grad|_K:  1.426e-05  alpha:  9.887e-03  linmin: -1.677e-05  t[s]:   2954.08
	FillingsUpdate:  mu: +0.113610078  nElectrons: 346.000000  magneticMoment: [ Abs: 39.50523  Tot: +0.00000 ]
	SubspaceRotationAdjust: set factor to 0.0896
ElecMinimize: Iter:  45  F: -1992.401241095737078  |grad|_K:  1.367e-05  alpha:  1.056e-02  linmin: -2.377e-05  t[s]:   2999.90
	FillingsUpdate:  mu: +0.113600133  nElectrons: 346.000000  magneticMoment: [ Abs: 39.53532  Tot: +0.00000 ]
	SubspaceRotationAdjust: set factor to 0.0897
ElecMinimize: Iter:  46  F: -1992.401603025836494  |grad|_K:  1.318e-05  alpha:  1.106e-02  linmin: -3.143e-05  t[s]:   3045.37
	FillingsUpdate:  mu: +0.114669340  nElectrons: 346.000000  magneticMoment: [ Abs: 39.56511  Tot: +0.00000 ]
	SubspaceRotationAdjust: set factor to 0.0913
ElecMinimize: Iter:  47  F: -1992.401950738908454  |grad|_K:  1.284e-05  alpha:  1.140e-02  linmin: -3.763e-05  t[s]:   3091.60
	FillingsUpdate:  mu: +0.115310843  nElectrons: 346.000000  magneticMoment: [ Abs: 39.59470  Tot: +0.00000 ]
	SubspaceRotationAdjust: set factor to 0.0922
ElecMinimize: Iter:  48  F: -1992.402287827344480  |grad|_K:  1.264e-05  alpha:  1.164e-02  linmin: -4.143e-05  t[s]:   3137.58
	FillingsUpdate:  mu: +0.116153669  nElectrons: 346.000000  magneticMoment: [ Abs: 39.62450  Tot: +0.00000 ]
	SubspaceRotationAdjust: set factor to 0.091
ElecMinimize: Iter:  49  F: -1992.402620918611319  |grad|_K:  1.257e-05  alpha:  1.187e-02  linmin: -4.289e-05  t[s]:   3183.69
	FillingsUpdate:  mu: +0.118495419  nElectrons: 346.000000  magneticMoment: [ Abs: 39.65508  Tot: +0.00000 ]
	SubspaceRotationAdjust: set factor to 0.0877
ElecMinimize: Iter:  50  F: -1992.402957939095359  |grad|_K:  1.261e-05  alpha:  1.213e-02  linmin: -4.246e-05  t[s]:   3229.29
	FillingsUpdate:  mu: +0.120526200  nElectrons: 346.000000  magneticMoment: [ Abs: 39.68685  Tot: +0.00000 ]
	SubspaceRotationAdjust: set factor to 0.0835
ElecMinimize: Iter:  51  F: -1992.403305814749729  |grad|_K:  1.271e-05  alpha:  1.246e-02  linmin: -4.074e-05  t[s]:   3274.79
	FillingsUpdate:  mu: +0.121749724  nElectrons: 346.000000  magneticMoment: [ Abs: 39.71990  Tot: +0.00000 ]
	SubspaceRotationAdjust: set factor to 0.08
ElecMinimize: Iter:  52  F: -1992.403668329342509  |grad|_K:  1.283e-05  alpha:  1.279e-02  linmin: -3.827e-05  t[s]:   3320.84
	FillingsUpdate:  mu: +0.122776914  nElectrons: 346.000000  magneticMoment: [ Abs: 39.75410  Tot: -0.00000 ]
	SubspaceRotationAdjust: set factor to 0.0787
ElecMinimize: Iter:  53  F: -1992.404044958236682  |grad|_K:  1.299e-05  alpha:  1.302e-02  linmin: -3.552e-05  t[s]:   3366.42
	FillingsUpdate:  mu: +0.123117940  nElectrons: 346.000000  magneticMoment: [ Abs: 39.78887  Tot: +0.00000 ]
	SubspaceRotationAdjust: set factor to 0.0805
ElecMinimize: Iter:  54  F: -1992.404431101200316  |grad|_K:  1.319e-05  alpha:  1.304e-02  linmin: -3.306e-05  t[s]:   3411.72
	FillingsUpdate:  mu: +0.122417694  nElectrons: 346.000000  magneticMoment: [ Abs: 39.82368  Tot: -0.00000 ]
	SubspaceRotationAdjust: set factor to 0.0857
ElecMinimize: Iter:  55  F: -1992.404819753518495  |grad|_K:  1.344e-05  alpha:  1.274e-02  linmin: -3.182e-05  t[s]:   3457.69
	FillingsUpdate:  mu: +0.121075498  nElectrons: 346.000000  magneticMoment: [ Abs: 39.85806  Tot: +0.00000 ]
	SubspaceRotationAdjust: set factor to 0.094
ElecMinimize: Iter:  56  F: -1992.405204304777953  |grad|_K:  1.376e-05  alpha:  1.213e-02  linmin: -3.260e-05  t[s]:   3503.44
	FillingsUpdate:  mu: +0.119050831  nElectrons: 346.000000  magneticMoment: [ Abs: 39.89186  Tot: +0.00000 ]
	SubspaceRotationAdjust: set factor to 0.104
ElecMinimize: Iter:  57  F: -1992.405581247509872  |grad|_K:  1.415e-05  alpha:  1.134e-02  linmin: -3.540e-05  t[s]:   3549.28
	FillingsUpdate:  mu: +0.118287665  nElectrons: 346.000000  magneticMoment: [ Abs: 39.92538  Tot: -0.00000 ]
	SubspaceRotationAdjust: set factor to 0.115
ElecMinimize: Iter:  58  F: -1992.405951336380440  |grad|_K:  1.463e-05  alpha:  1.051e-02  linmin: -3.941e-05  t[s]:   3594.66
	FillingsUpdate:  mu: +0.119059972  nElectrons: 346.000000  magneticMoment: [ Abs: 39.95939  Tot: -0.00000 ]
	SubspaceRotationAdjust: set factor to 0.124
ElecMinimize: Iter:  59  F: -1992.406318854197025  |grad|_K:  1.520e-05  alpha:  9.750e-03  linmin: -4.364e-05  t[s]:   3640.79
	FillingsUpdate:  mu: +0.119669712  nElectrons: 346.000000  magneticMoment: [ Abs: 39.99465  Tot: -0.00000 ]
	SubspaceRotationAdjust: set factor to 0.129
ElecMinimize: Iter:  60  F: -1992.406689697712181  |grad|_K:  1.582e-05  alpha:  9.107e-03  linmin: -4.734e-05  t[s]:   3686.72
	FillingsUpdate:  mu: +0.119494257  nElectrons: 346.000000  magneticMoment: [ Abs: 40.03193  Tot: -0.00000 ]
	SubspaceRotationAdjust: set factor to 0.132
ElecMinimize: Iter:  61  F: -1992.407069247153686  |grad|_K:  1.644e-05  alpha:  8.592e-03  linmin: -5.049e-05  t[s]:   3732.17
	FillingsUpdate:  mu: +0.118825052  nElectrons: 346.000000  magneticMoment: [ Abs: 40.07191  Tot: +0.00000 ]
	SubspaceRotationAdjust: set factor to 0.132
ElecMinimize: Iter:  62  F: -1992.407461123940720  |grad|_K:  1.702e-05  alpha:  8.198e-03  linmin: -5.390e-05  t[s]:   3777.64
	FillingsUpdate:  mu: +0.117165251  nElectrons: 346.000000  magneticMoment: [ Abs: 40.11486  Tot: +0.00000 ]
	SubspaceRotationAdjust: set factor to 0.133
ElecMinimize: Iter:  63  F: -1992.407867381213464  |grad|_K:  1.750e-05  alpha:  7.924e-03  linmin: -5.858e-05  t[s]:   3823.30
	FillingsUpdate:  mu: +0.115941724  nElectrons: 346.000000  magneticMoment: [ Abs: 40.16116  Tot: -0.00000 ]
	SubspaceRotationAdjust: set factor to 0.135
ElecMinimize: Iter:  64  F: -1992.408289217917854  |grad|_K:  1.787e-05  alpha:  7.763e-03  linmin: -6.454e-05  t[s]:   3869.05
	FillingsUpdate:  mu: +0.115684957  nElectrons: 346.000000  magneticMoment: [ Abs: 40.21082  Tot: -0.00000 ]
	SubspaceRotationAdjust: set factor to 0.141
ElecMinimize: Iter:  65  F: -1992.408726629424564  |grad|_K:  1.815e-05  alpha:  7.692e-03  linmin: -7.029e-05  t[s]:   3914.98
	FillingsUpdate:  mu: +0.116340435  nElectrons: 346.000000  magneticMoment: [ Abs: 40.26322  Tot: -0.00000 ]
	SubspaceRotationAdjust: set factor to 0.153
ElecMinimize: Iter:  66  F: -1992.409176709487838  |grad|_K:  1.833e-05  alpha:  7.657e-03  linmin: -7.338e-05  t[s]:   3960.26
	FillingsUpdate:  mu: +0.117422675  nElectrons: 346.000000  magneticMoment: [ Abs: 40.31739  Tot: -0.00000 ]
	SubspaceRotationAdjust: set factor to 0.172
ElecMinimize: Iter:  67  F: -1992.409632139155519  |grad|_K:  1.846e-05  alpha:  7.580e-03  linmin: -7.186e-05  t[s]:   4005.70
	FillingsUpdate:  mu: +0.117769054  nElectrons: 346.000000  magneticMoment: [ Abs: 40.37153  Tot: +0.00000 ]
	SubspaceRotationAdjust: set factor to 0.2
ElecMinimize: Iter:  68  F: -1992.410082288464764  |grad|_K:  1.860e-05  alpha:  7.388e-03  linmin: -6.578e-05  t[s]:   4051.41
	FillingsUpdate:  mu: +0.117248359  nElectrons: 346.000000  magneticMoment: [ Abs: 40.42400  Tot: -0.00000 ]
	SubspaceRotationAdjust: set factor to 0.237
ElecMinimize: Iter:  69  F: -1992.410517917682910  |grad|_K:  1.885e-05  alpha:  7.053e-03  linmin: -5.744e-05  t[s]:   4097.23
	FillingsUpdate:  mu: +0.117847051  nElectrons: 346.000000  magneticMoment: [ Abs: 40.47364  Tot: +0.00000 ]
	SubspaceRotationAdjust: set factor to 0.277
ElecMinimize: Iter:  70  F: -1992.410936902498179  |grad|_K:  1.933e-05  alpha:  6.617e-03  linmin: -4.980e-05  t[s]:   4142.79
	FillingsUpdate:  mu: +0.120758123  nElectrons: 346.000000  magneticMoment: [ Abs: 40.52034  Tot: +0.00000 ]
	SubspaceRotationAdjust: set factor to 0.306
ElecMinimize: Iter:  71  F: -1992.411346686533989  |grad|_K:  2.008e-05  alpha:  6.169e-03  linmin: -4.479e-05  t[s]:   4188.11
	FillingsUpdate:  mu: +0.123352300  nElectrons: 346.000000  magneticMoment: [ Abs: 40.56452  Tot: -0.00000 ]
	SubspaceRotationAdjust: set factor to 0.32
ElecMinimize: Iter:  72  F: -1992.411761633097512  |grad|_K:  2.099e-05  alpha:  5.798e-03  linmin: -4.296e-05  t[s]:   4233.71
	FillingsUpdate:  mu: +0.123734525  nElectrons: 346.000000  magneticMoment: [ Abs: 40.60645  Tot: +0.00000 ]
	SubspaceRotationAdjust: set factor to 0.322
ElecMinimize: Iter:  73  F: -1992.412196835569603  |grad|_K:  2.183e-05  alpha:  5.564e-03  linmin: -4.392e-05  t[s]:   4279.27
	FillingsUpdate:  mu: +0.122685886  nElectrons: 346.000000  magneticMoment: [ Abs: 40.64575  Tot: +0.00000 ]
	SubspaceRotationAdjust: set factor to 0.325
ElecMinimize: Iter:  74  F: -1992.412661494111262  |grad|_K:  2.237e-05  alpha:  5.484e-03  linmin: -4.629e-05  t[s]:   4324.69
	FillingsUpdate:  mu: +0.122244048  nElectrons: 346.000000  magneticMoment: [ Abs: 40.68128  Tot: -0.00000 ]
	SubspaceRotationAdjust: set factor to 0.342
ElecMinimize: Iter:  75  F: -1992.413154210975563  |grad|_K:  2.252e-05  alpha:  5.524e-03  linmin: -4.776e-05  t[s]:   4370.64
	FillingsUpdate:  mu: +0.121756839  nElectrons: 346.000000  magneticMoment: [ Abs: 40.71168  Tot: -0.00000 ]
	SubspaceRotationAdjust: set factor to 0.392
ElecMinimize: Iter:  76  F: -1992.413661418824404  |grad|_K:  2.235e-05  alpha:  5.600e-03  linmin: -4.593e-05  t[s]:   4416.37
	FillingsUpdate:  mu: +0.121758364  nElectrons: 346.000000  magneticMoment: [ Abs: 40.73619  Tot: +0.00000 ]
	SubspaceRotationAdjust: set factor to 0.504
ElecMinimize: Iter:  77  F: -1992.414160997211866  |grad|_K:  2.206e-05  alpha:  5.599e-03  linmin: -3.995e-05  t[s]:   4462.74
	FillingsUpdate:  mu: +0.120431768  nElectrons: 346.000000  magneticMoment: [ Abs: 40.75546  Tot: -0.00000 ]
	SubspaceRotationAdjust: set factor to 0.679
ElecMinimize: Iter:  78  F: -1992.414632659146264  |grad|_K:  2.195e-05  alpha:  5.441e-03  linmin: -3.145e-05  t[s]:   4508.86
	FillingsUpdate:  mu: +0.117606948  nElectrons: 346.000000  magneticMoment: [ Abs: 40.77211  Tot: +0.00000 ]
	SubspaceRotationAdjust: set factor to 0.88
ElecMinimize: Iter:  79  F: -1992.415072166042364  |grad|_K:  2.233e-05  alpha:  5.141e-03  linmin: -2.328e-05  t[s]:   4554.89
	FillingsUpdate:  mu: +0.114878245  nElectrons: 346.000000  magneticMoment: [ Abs: 40.79106  Tot: -0.00000 ]
	SubspaceRotationAdjust: set factor to 1.09
	SubspaceRotationAdjust: resetting CG because factor has changed by 8.93325
ElecMinimize: 	State modified externally: resetting search direction.
ElecMinimize: Iter:  80  F: -1992.415503972240231  |grad|_K:  2.484e-05  alpha:  4.901e-03
ElecMinimize: 	Predicted alpha/alphaT>3.000000, increasing alphaT to 1.470198e-02.
ElecMinimize: 	Predicted alpha/alphaT>3.000000, increasing alphaT to 4.410594e-02.
	FillingsUpdate:  mu: +0.134104777  nElectrons: 346.000000  magneticMoment: [ Abs: 40.91776  Tot: +0.00000 ]
	SubspaceRotationAdjust: set factor to 0.657
ElecMinimize: Iter:  81  F: -1992.422551475313185  |grad|_K:  3.800e-05  alpha:  6.331e-02  linmin: -1.753e-03  t[s]:   4693.92
	FillingsUpdate:  mu: +0.130295848  nElectrons: 346.000000  magneticMoment: [ Abs: 40.81802  Tot: -0.00000 ]
	SubspaceRotationAdjust: set factor to 0.37
ElecMinimize: Iter:  82  F: -1992.438019697618529  |grad|_K:  3.949e-05  alpha:  5.539e-02  linmin:  3.456e-04  t[s]:   4739.27
	FillingsUpdate:  mu: +0.123902265  nElectrons: 346.000000  magneticMoment: [ Abs: 40.72260  Tot: +0.00000 ]
	SubspaceRotationAdjust: set factor to 0.63
ElecMinimize: Iter:  83  F: -1992.456868955805248  |grad|_K:  1.831e-05  alpha:  6.964e-02  linmin: -7.763e-04  t[s]:   4785.01
	FillingsUpdate:  mu: +0.130692876  nElectrons: 346.000000  magneticMoment: [ Abs: 40.82181  Tot: -0.00000 ]
	SubspaceRotationAdjust: set factor to 0.36
ElecMinimize: Iter:  84  F: -1992.464686201314635  |grad|_K:  3.327e-05  alpha:  1.260e-01  linmin:  1.202e-04  t[s]:   4830.55
	FillingsUpdate:  mu: +0.115084515  nElectrons: 346.000000  magneticMoment: [ Abs: 40.72883  Tot: +0.00000 ]
	SubspaceRotationAdjust: set factor to 0.386
ElecMinimize: Iter:  85  F: -1992.477087347345787  |grad|_K:  1.283e-05  alpha:  6.378e-02  linmin: -8.644e-05  t[s]:   4876.32
	FillingsUpdate:  mu: +0.118152481  nElectrons: 346.000000  magneticMoment: [ Abs: 40.72097  Tot: -0.00000 ]
	SubspaceRotationAdjust: set factor to 0.278
ElecMinimize: Iter:  86  F: -1992.482433205376083  |grad|_K:  1.333e-05  alpha:  1.844e-01  linmin: -2.820e-04  t[s]:   4922.49
	FillingsUpdate:  mu: +0.123594643  nElectrons: 346.000000  magneticMoment: [ Abs: 40.71907  Tot: +0.00000 ]
	SubspaceRotationAdjust: set factor to 0.25
ElecMinimize: Iter:  87  F: -1992.485840334459681  |grad|_K:  9.507e-06  alpha:  1.142e-01  linmin:  1.519e-04  t[s]:   4968.32
	FillingsUpdate:  mu: +0.114504902  nElectrons: 346.000000  magneticMoment: [ Abs: 40.66569  Tot: +0.00000 ]
	SubspaceRotationAdjust: set factor to 0.162
ElecMinimize: Iter:  88  F: -1992.487260231631808  |grad|_K:  7.012e-06  alpha:  9.043e-02  linmin:  1.203e-04  t[s]:   5014.26
	FillingsUpdate:  mu: +0.114305624  nElectrons: 346.000000  magneticMoment: [ Abs: 40.69390  Tot: +0.00000 ]
	SubspaceRotationAdjust: set factor to 0.245
ElecMinimize: Iter:  89  F: -1992.489293474810893  |grad|_K:  4.170e-06  alpha:  2.387e-01  linmin:  5.698e-05  t[s]:   5060.17
	FillingsUpdate:  mu: +0.117359549  nElectrons: 346.000000  magneticMoment: [ Abs: 40.72329  Tot: +0.00000 ]
	SubspaceRotationAdjust: set factor to 0.179
ElecMinimize: Iter:  90  F: -1992.489831970655814  |grad|_K:  4.200e-06  alpha:  1.784e-01  linmin: -2.008e-05  t[s]:   5105.84
	FillingsUpdate:  mu: +0.117437364  nElectrons: 346.000000  magneticMoment: [ Abs: 40.69719  Tot: -0.00000 ]
	SubspaceRotationAdjust: set factor to 0.147
	SubspaceRotationAdjust: resetting CG because factor has changed by 0.134614
ElecMinimize: 	State modified externally: resetting search direction.
ElecMinimize: Iter:  91  F: -1992.490275663149305  |grad|_K:  2.984e-06  alpha:  1.447e-01
	FillingsUpdate:  mu: +0.116370903  nElectrons: 346.000000  magneticMoment: [ Abs: 40.70936  Tot: +0.00000 ]
	SubspaceRotationAdjust: set factor to 0.114
ElecMinimize: Iter:  92  F: -1992.490546805363692  |grad|_K:  2.036e-06  alpha:  1.749e-01  linmin: -7.426e-05  t[s]:   5219.56
	FillingsUpdate:  mu: +0.115167784  nElectrons: 346.000000  magneticMoment: [ Abs: 40.69112  Tot: +0.00000 ]
	SubspaceRotationAdjust: set factor to 0.102
ElecMinimize: Iter:  93  F: -1992.490754503800417  |grad|_K:  2.175e-06  alpha:  2.877e-01  linmin:  1.695e-05  t[s]:   5266.17
	FillingsUpdate:  mu: +0.117012897  nElectrons: 346.000000  magneticMoment: [ Abs: 40.69733  Tot: -0.00000 ]
	SubspaceRotationAdjust: set factor to 0.121
ElecMinimize: Iter:  94  F: -1992.491110470863077  |grad|_K:  1.987e-06  alpha:  4.325e-01  linmin: -1.022e-05  t[s]:   5313.33
	FillingsUpdate:  mu: +0.117369880  nElectrons: 346.000000  magneticMoment: [ Abs: 40.70738  Tot: +0.00000 ]
	SubspaceRotationAdjust: set factor to 0.131
ElecMinimize: Iter:  95  F: -1992.491418561621913  |grad|_K:  2.295e-06  alpha:  4.477e-01  linmin: -1.505e-05  t[s]:   5360.03
	FillingsUpdate:  mu: +0.116463636  nElectrons: 346.000000  magneticMoment: [ Abs: 40.69162  Tot: -0.00000 ]
	SubspaceRotationAdjust: set factor to 0.11
ElecMinimize: Iter:  96  F: -1992.491701269073246  |grad|_K:  2.391e-06  alpha:  3.081e-01  linmin:  3.454e-07  t[s]:   5406.63
	FillingsUpdate:  mu: +0.117121585  nElectrons: 346.000000  magneticMoment: [ Abs: 40.70806  Tot: -0.00000 ]
	SubspaceRotationAdjust: set factor to 0.103
ElecMinimize: Iter:  97  F: -1992.492055563742042  |grad|_K:  2.295e-06  alpha:  3.557e-01  linmin: -2.495e-05  t[s]:   5452.93
	FillingsUpdate:  mu: +0.117645516  nElectrons: 346.000000  magneticMoment: [ Abs: 40.70822  Tot: -0.00000 ]
	SubspaceRotationAdjust: set factor to 0.116
ElecMinimize: Iter:  98  F: -1992.492397213841741  |grad|_K:  2.318e-06  alpha:  3.713e-01  linmin:  4.105e-06  t[s]:   5499.42
	FillingsUpdate:  mu: +0.117857936  nElectrons: 346.000000  magneticMoment: [ Abs: 40.69204  Tot: -0.00000 ]
	SubspaceRotationAdjust: set factor to 0.116
ElecMinimize: Iter:  99  F: -1992.492909245838518  |grad|_K:  3.118e-06  alpha:  5.492e-01  linmin:  3.268e-05  t[s]:   5545.77
	FillingsUpdate:  mu: +0.116709619  nElectrons: 346.000000  magneticMoment: [ Abs: 40.70784  Tot: +0.00000 ]
	SubspaceRotationAdjust: set factor to 0.109
ElecMinimize: Iter: 100  F: -1992.493472327912514  |grad|_K:  2.809e-06  alpha:  3.394e-01  linmin: -1.001e-05  t[s]:   5592.30
	FillingsUpdate:  mu: +0.116838640  nElectrons: 346.000000  magneticMoment: [ Abs: 40.69091  Tot: -0.00000 ]
	SubspaceRotationAdjust: set factor to 0.122
ElecMinimize: Iter: 101  F: -1992.494002375151467  |grad|_K:  2.818e-06  alpha:  3.858e-01  linmin:  7.970e-06  t[s]:   5638.05
	FillingsUpdate:  mu: +0.117145220  nElectrons: 346.000000  magneticMoment: [ Abs: 40.68289  Tot: -0.00000 ]
	SubspaceRotationAdjust: set factor to 0.146
ElecMinimize: Iter: 102  F: -1992.494491312646687  |grad|_K:  2.681e-06  alpha:  3.542e-01  linmin: -6.984e-05  t[s]:   5684.28
	FillingsUpdate:  mu: +0.117543396  nElectrons: 346.000000  magneticMoment: [ Abs: 40.69732  Tot: +0.00000 ]
	SubspaceRotationAdjust: set factor to 0.148
ElecMinimize: Iter: 103  F: -1992.494974667883525  |grad|_K:  2.714e-06  alpha:  3.810e-01  linmin: -2.387e-04  t[s]:   5730.86
	FillingsUpdate:  mu: +0.116821662  nElectrons: 346.000000  magneticMoment: [ Abs: 40.68197  Tot: +0.00000 ]
	SubspaceRotationAdjust: set factor to 0.145
ElecMinimize: Iter: 104  F: -1992.495519649630751  |grad|_K:  3.180e-06  alpha:  4.125e-01  linmin: -1.792e-05  t[s]:   5777.60
	FillingsUpdate:  mu: +0.117159651  nElectrons: 346.000000  magneticMoment: [ Abs: 40.70250  Tot: +0.00000 ]
	SubspaceRotationAdjust: set factor to 0.164
ElecMinimize: Iter: 105  F: -1992.496180482433601  |grad|_K:  3.060e-06  alpha:  3.744e-01  linmin: -1.072e-04  t[s]:   5824.03
	FillingsUpdate:  mu: +0.116973074  nElectrons: 346.000000  magneticMoment: [ Abs: 40.71879  Tot: +0.00000 ]
	SubspaceRotationAdjust: set factor to 0.191
ElecMinimize: Iter: 106  F: -1992.496910714336309  |grad|_K:  3.284e-06  alpha:  4.421e-01  linmin: -7.052e-05  t[s]:   5870.70
	FillingsUpdate:  mu: +0.116726875  nElectrons: 346.000000  magneticMoment: [ Abs: 40.71048  Tot: -0.00000 ]
	SubspaceRotationAdjust: set factor to 0.191
ElecMinimize: Iter: 107  F: -1992.497638700796415  |grad|_K:  3.666e-06  alpha:  3.851e-01  linmin: -1.350e-04  t[s]:   5916.74
	FillingsUpdate:  mu: +0.117065618  nElectrons: 346.000000  magneticMoment: [ Abs: 40.74209  Tot: +0.00000 ]
	SubspaceRotationAdjust: set factor to 0.168
ElecMinimize: Iter: 108  F: -1992.498277025799780  |grad|_K:  3.431e-06  alpha:  2.684e-01  linmin: -6.281e-05  t[s]:   5963.75
	FillingsUpdate:  mu: +0.117064769  nElectrons: 346.000000  magneticMoment: [ Abs: 40.73481  Tot: +0.00000 ]
	SubspaceRotationAdjust: set factor to 0.185
ElecMinimize: Iter: 109  F: -1992.499019972109636  |grad|_K:  3.156e-06  alpha:  3.579e-01  linmin: -9.617e-05  t[s]:   6010.40
	FillingsUpdate:  mu: +0.115784573  nElectrons: 346.000000  magneticMoment: [ Abs: 40.73629  Tot: -0.00000 ]
	SubspaceRotationAdjust: set factor to 0.212
ElecMinimize: Iter: 110  F: -1992.499724162364600  |grad|_K:  2.960e-06  alpha:  3.992e-01  linmin: -1.781e-05  t[s]:   6056.74
	FillingsUpdate:  mu: +0.114953082  nElectrons: 346.000000  magneticMoment: [ Abs: 40.75119  Tot: +0.00000 ]
	SubspaceRotationAdjust: set factor to 0.222
ElecMinimize: Iter: 111  F: -1992.500273178018460  |grad|_K:  3.144e-06  alpha:  3.583e-01  linmin:  1.726e-05  t[s]:   6103.08
	FillingsUpdate:  mu: +0.114421270  nElectrons: 346.000000  magneticMoment: [ Abs: 40.72913  Tot: -0.00000 ]
	SubspaceRotationAdjust: set factor to 0.189
ElecMinimize: Iter: 112  F: -1992.500715768547934  |grad|_K:  3.059e-06  alpha:  2.597e-01  linmin: -3.962e-06  t[s]:   6149.40
	FillingsUpdate:  mu: +0.115173799  nElectrons: 346.000000  magneticMoment: [ Abs: 40.74142  Tot: +0.00000 ]
	SubspaceRotationAdjust: set factor to 0.186
ElecMinimize: Iter: 113  F: -1992.501162960205420  |grad|_K:  2.611e-06  alpha:  2.744e-01  linmin:  1.664e-05  t[s]:   6196.17
	FillingsUpdate:  mu: +0.115467015  nElectrons: 346.000000  magneticMoment: [ Abs: 40.73139  Tot: -0.00000 ]
	SubspaceRotationAdjust: set factor to 0.225
ElecMinimize: Iter: 114  F: -1992.501578864129215  |grad|_K:  2.335e-06  alpha:  3.517e-01  linmin: -5.063e-06  t[s]:   6243.08
	FillingsUpdate:  mu: +0.115346800  nElectrons: 346.000000  magneticMoment: [ Abs: 40.72457  Tot: -0.00000 ]
	SubspaceRotationAdjust: set factor to 0.271
ElecMinimize: Iter: 115  F: -1992.501975912229909  |grad|_K:  2.330e-06  alpha:  4.178e-01  linmin:  1.677e-06  t[s]:   6289.69
	FillingsUpdate:  mu: +0.115658095  nElectrons: 346.000000  magneticMoment: [ Abs: 40.74077  Tot: +0.00000 ]
	SubspaceRotationAdjust: set factor to 0.231
ElecMinimize: Iter: 116  F: -1992.502319587676993  |grad|_K:  2.998e-06  alpha:  3.637e-01  linmin: -4.334e-06  t[s]:   6336.44
	FillingsUpdate:  mu: +0.115223462  nElectrons: 346.000000  magneticMoment: [ Abs: 40.72147  Tot: +0.00000 ]
	SubspaceRotationAdjust: set factor to 0.189
ElecMinimize: Iter: 117  F: -1992.502622657298843  |grad|_K:  2.718e-06  alpha:  1.919e-01  linmin: -2.915e-05  t[s]:   6383.16
	FillingsUpdate:  mu: +0.116281633  nElectrons: 346.000000  magneticMoment: [ Abs: 40.73443  Tot: +0.00000 ]
	SubspaceRotationAdjust: set factor to 0.225
ElecMinimize: Iter: 118  F: -1992.503101647004996  |grad|_K:  2.719e-06  alpha:  3.710e-01  linmin:  2.196e-05  t[s]:   6429.46
	FillingsUpdate:  mu: +0.117487447  nElectrons: 346.000000  magneticMoment: [ Abs: 40.74498  Tot: +0.00000 ]
	SubspaceRotationAdjust: set factor to 0.261
ElecMinimize: Iter: 119  F: -1992.503499140427266  |grad|_K:  2.437e-06  alpha:  2.751e-01  linmin: -6.204e-05  t[s]:   6475.63
	FillingsUpdate:  mu: +0.117822217  nElectrons: 346.000000  magneticMoment: [ Abs: 40.73909  Tot: -0.00000 ]
	SubspaceRotationAdjust: set factor to 0.203
ElecMinimize: Iter: 120  F: -1992.503708606463761  |grad|_K:  3.094e-06  alpha:  1.742e-01  linmin: -2.489e-04  t[s]:   6521.80
	FillingsUpdate:  mu: +0.117602253  nElectrons: 346.000000  magneticMoment: [ Abs: 40.74531  Tot: -0.00000 ]
	SubspaceRotationAdjust: set factor to 0.173
ElecMinimize: Iter: 121  F: -1992.503962787339788  |grad|_K:  3.284e-06  alpha:  1.448e-01  linmin:  8.381e-05  t[s]:   6568.42
	FillingsUpdate:  mu: +0.115990080  nElectrons: 346.000000  magneticMoment: [ Abs: 40.76366  Tot: -0.00000 ]
	SubspaceRotationAdjust: set factor to 0.194
ElecMinimize: Iter: 122  F: -1992.504182406396239  |grad|_K:  3.182e-06  alpha:  1.179e-01  linmin:  3.564e-05  t[s]:   6614.78
	FillingsUpdate:  mu: +0.115592205  nElectrons: 346.000000  magneticMoment: [ Abs: 40.77921  Tot: +0.00000 ]
	SubspaceRotationAdjust: set factor to 0.157
ElecMinimize: Iter: 123  F: -1992.504443514558943  |grad|_K:  3.863e-06  alpha:  1.505e-01  linmin:  9.060e-05  t[s]:   6661.30
	FillingsUpdate:  mu: +0.114905463  nElectrons: 346.000000  magneticMoment: [ Abs: 40.77844  Tot: +0.00000 ]
	SubspaceRotationAdjust: set factor to 0.217
ElecMinimize: Iter: 124  F: -1992.504724671575104  |grad|_K:  3.429e-06  alpha:  1.113e-01  linmin: -5.404e-06  t[s]:   6707.55
	FillingsUpdate:  mu: +0.115247335  nElectrons: 346.000000  magneticMoment: [ Abs: 40.77506  Tot: +0.00000 ]
	SubspaceRotationAdjust: set factor to 0.22
ElecMinimize: Iter: 125  F: -1992.505005271422306  |grad|_K:  3.826e-06  alpha:  1.364e-01  linmin: -3.276e-05  t[s]:   6754.01
	FillingsUpdate:  mu: +0.117317515  nElectrons: 346.000000  magneticMoment: [ Abs: 40.79483  Tot: +0.00000 ]
	SubspaceRotationAdjust: set factor to 0.271
ElecMinimize: Iter: 126  F: -1992.505292221426771  |grad|_K:  3.190e-06  alpha:  1.114e-01  linmin: -2.982e-06  t[s]:   6800.51
	FillingsUpdate:  mu: +0.118392256  nElectrons: 346.000000  magneticMoment: [ Abs: 40.82153  Tot: +0.00000 ]
	SubspaceRotationAdjust: set factor to 0.245
ElecMinimize: Iter: 127  F: -1992.505544061978526  |grad|_K:  4.227e-06  alpha:  1.427e-01  linmin:  4.544e-05  t[s]:   6847.06
	FillingsUpdate:  mu: +0.117052332  nElectrons: 346.000000  magneticMoment: [ Abs: 40.82922  Tot: +0.00000 ]
	SubspaceRotationAdjust: set factor to 0.346
ElecMinimize: Iter: 128  F: -1992.505864619320846  |grad|_K:  3.503e-06  alpha:  1.039e-01  linmin:  1.990e-06  t[s]:   6893.31
	FillingsUpdate:  mu: +0.115512679  nElectrons: 346.000000  magneticMoment: [ Abs: 40.82590  Tot: -0.00000 ]
	SubspaceRotationAdjust: set factor to 0.302
ElecMinimize: Iter: 129  F: -1992.506100828634544  |grad|_K:  4.441e-06  alpha:  1.106e-01  linmin: -5.526e-06  t[s]:   6939.93
	FillingsUpdate:  mu: +0.115785612  nElectrons: 346.000000  magneticMoment: [ Abs: 40.85341  Tot: +0.00000 ]
	SubspaceRotationAdjust: set factor to 0.411
ElecMinimize: Iter: 130  F: -1992.506452177271967  |grad|_K:  3.778e-06  alpha:  1.018e-01  linmin:  2.167e-05  t[s]:   6986.89
	FillingsUpdate:  mu: +0.117631636  nElectrons: 346.000000  magneticMoment: [ Abs: 40.87513  Tot: -0.00000 ]
	SubspaceRotationAdjust: set factor to 0.373
ElecMinimize: Iter: 131  F: -1992.506737852090055  |grad|_K:  4.507e-06  alpha:  1.159e-01  linmin: -1.011e-06  t[s]:   7033.14
	FillingsUpdate:  mu: +0.117955371  nElectrons: 346.000000  magneticMoment: [ Abs: 40.86741  Tot: -0.00000 ]
	SubspaceRotationAdjust: set factor to 0.391
ElecMinimize: Iter: 132  F: -1992.506986913337641  |grad|_K:  4.025e-06  alpha:  7.095e-02  linmin: -5.089e-06  t[s]:   7079.67
	FillingsUpdate:  mu: +0.116859080  nElectrons: 346.000000  magneticMoment: [ Abs: 40.87591  Tot: +0.00000 ]
	SubspaceRotationAdjust: set factor to 0.504
ElecMinimize: Iter: 133  F: -1992.507358400575868  |grad|_K:  4.039e-06  alpha:  1.315e-01  linmin: -1.548e-05  t[s]:   7125.44
	FillingsUpdate:  mu: +0.116506038  nElectrons: 346.000000  magneticMoment: [ Abs: 40.90063  Tot: +0.00000 ]
	SubspaceRotationAdjust: set factor to 0.439
ElecMinimize: Iter: 134  F: -1992.507579053292829  |grad|_K:  4.735e-06  alpha:  7.671e-02  linmin: -1.456e-05  t[s]:   7171.44
	FillingsUpdate:  mu: +0.115956785  nElectrons: 346.000000  magneticMoment: [ Abs: 40.91069  Tot: +0.00000 ]
	SubspaceRotationAdjust: set factor to 0.656
ElecMinimize: Iter: 135  F: -1992.507976150473496  |grad|_K:  3.903e-06  alpha:  1.009e-01  linmin: -4.363e-05  t[s]:   7217.91
	FillingsUpdate:  mu: +0.116820142  nElectrons: 346.000000  magneticMoment: [ Abs: 40.90825  Tot: +0.00000 ]
	SubspaceRotationAdjust: set factor to 0.522
ElecMinimize: Iter: 136  F: -1992.508266983036265  |grad|_K:  5.061e-06  alpha:  1.080e-01  linmin: -2.926e-05  t[s]:   7263.85
	FillingsUpdate:  mu: +0.117501514  nElectrons: 346.000000  magneticMoment: [ Abs: 40.93024  Tot: +0.00000 ]
	SubspaceRotationAdjust: set factor to 0.501
ElecMinimize: Iter: 137  F: -1992.508504554078399  |grad|_K:  4.475e-06  alpha:  5.270e-02  linmin: -7.416e-06  t[s]:   7309.78
	FillingsUpdate:  mu: +0.115887811  nElectrons: 346.000000  magneticMoment: [ Abs: 40.93497  Tot: -0.00000 ]
	SubspaceRotationAdjust: set factor to 0.658
ElecMinimize: Iter: 138  F: -1992.508856956085310  |grad|_K:  3.874e-06  alpha:  1.002e-01  linmin: -3.179e-05  t[s]:   7355.36
	FillingsUpdate:  mu: +0.115325779  nElectrons: 346.000000  magneticMoment: [ Abs: 40.92487  Tot: +0.00000 ]
	SubspaceRotationAdjust: set factor to 0.48
ElecMinimize: Iter: 139  F: -1992.509113791816844  |grad|_K:  5.259e-06  alpha:  9.705e-02  linmin: -2.178e-05  t[s]:   7400.77
	FillingsUpdate:  mu: +0.116182009  nElectrons: 346.000000  magneticMoment: [ Abs: 40.94294  Tot: -0.00000 ]
	SubspaceRotationAdjust: set factor to 0.499
ElecMinimize: Iter: 140  F: -1992.509350252787726  |grad|_K:  3.334e-06  alpha:  4.837e-02  linmin: -8.651e-06  t[s]:   7446.38
ElecMinimize: 	Predicted alpha/alphaT>3.000000, increasing alphaT to 1.450978e-01.
	FillingsUpdate:  mu: +0.117085552  nElectrons: 346.000000  magneticMoment: [ Abs: 40.95593  Tot: +0.00000 ]
	SubspaceRotationAdjust: set factor to 0.471
ElecMinimize: Iter: 141  F: -1992.509645234782511  |grad|_K:  3.893e-06  alpha:  1.519e-01  linmin:  4.666e-06  t[s]:   7505.16
	FillingsUpdate:  mu: +0.116112176  nElectrons: 346.000000  magneticMoment: [ Abs: 40.94669  Tot: -0.00000 ]
	SubspaceRotationAdjust: set factor to 0.434
ElecMinimize: Iter: 142  F: -1992.509811913455906  |grad|_K:  3.681e-06  alpha:  6.525e-02  linmin:  3.817e-05  t[s]:   7550.91
	FillingsUpdate:  mu: +0.115148821  nElectrons: 346.000000  magneticMoment: [ Abs: 40.95519  Tot: -0.00000 ]
	SubspaceRotationAdjust: set factor to 0.54
ElecMinimize: Iter: 143  F: -1992.510046278054915  |grad|_K:  3.131e-06  alpha:  1.011e-01  linmin: -4.205e-06  t[s]:   7596.45
	FillingsUpdate:  mu: +0.116345149  nElectrons: 346.000000  magneticMoment: [ Abs: 40.95718  Tot: +0.00000 ]
	SubspaceRotationAdjust: set factor to 0.457
ElecMinimize: Iter: 144  F: -1992.510256143680863  |grad|_K:  3.713e-06  alpha:  1.231e-01  linmin:  2.548e-05  t[s]:   7642.58
	FillingsUpdate:  mu: +0.116178412  nElectrons: 346.000000  magneticMoment: [ Abs: 40.94074  Tot: -0.00000 ]
	SubspaceRotationAdjust: set factor to 0.442
ElecMinimize: Iter: 145  F: -1992.510394268347227  |grad|_K:  3.309e-06  alpha:  5.855e-02  linmin:  7.203e-06  t[s]:   7688.67
	FillingsUpdate:  mu: +0.115637757  nElectrons: 346.000000  magneticMoment: [ Abs: 40.93686  Tot: +0.00000 ]
	SubspaceRotationAdjust: set factor to 0.587
ElecMinimize: Iter: 146  F: -1992.510652270247647  |grad|_K:  3.102e-06  alpha:  1.356e-01  linmin: -5.328e-06  t[s]:   7734.92
	FillingsUpdate:  mu: +0.115566319  nElectrons: 346.000000  magneticMoment: [ Abs: 40.94761  Tot: +0.00000 ]
	SubspaceRotationAdjust: set factor to 0.465
ElecMinimize: Iter: 147  F: -1992.510786860779262  |grad|_K:  3.854e-06  alpha:  7.892e-02  linmin: -1.297e-05  t[s]:   7781.29
	FillingsUpdate:  mu: +0.115153670  nElectrons: 346.000000  magneticMoment: [ Abs: 40.93514  Tot: +0.00000 ]
	SubspaceRotationAdjust: set factor to 0.65
ElecMinimize: Iter: 148  F: -1992.510998917565303  |grad|_K:  2.898e-06  alpha:  8.151e-02  linmin: -2.811e-05  t[s]:   7827.41
	FillingsUpdate:  mu: +0.116144701  nElectrons: 346.000000  magneticMoment: [ Abs: 40.91640  Tot: -0.00000 ]
	SubspaceRotationAdjust: set factor to 0.523
ElecMinimize: Iter: 149  F: -1992.511207421142672  |grad|_K:  3.775e-06  alpha:  1.406e-01  linmin: -2.140e-05  t[s]:   7873.68
	FillingsUpdate:  mu: +0.116228414  nElectrons: 346.000000  magneticMoment: [ Abs: 40.92062  Tot: -0.00000 ]
	SubspaceRotationAdjust: set factor to 0.501
ElecMinimize: Iter: 150  F: -1992.511325950615856  |grad|_K:  3.249e-06  alpha:  4.497e-02  linmin: -1.168e-04  t[s]:   7920.04
	FillingsUpdate:  mu: +0.115240615  nElectrons: 346.000000  magneticMoment: [ Abs: 40.90596  Tot: -0.00000 ]
	SubspaceRotationAdjust: set factor to 0.511
ElecMinimize: Iter: 151  F: -1992.511535638637952  |grad|_K:  3.253e-06  alpha:  1.088e-01  linmin: -2.752e-05  t[s]:   7966.33
	FillingsUpdate:  mu: +0.115001660  nElectrons: 346.000000  magneticMoment: [ Abs: 40.88577  Tot: +0.00000 ]
	SubspaceRotationAdjust: set factor to 0.445
ElecMinimize: Iter: 152  F: -1992.511657139394401  |grad|_K:  3.591e-06  alpha:  6.599e-02  linmin:  5.826e-06  t[s]:   8012.15
	FillingsUpdate:  mu: +0.115721722  nElectrons: 346.000000  magneticMoment: [ Abs: 40.88325  Tot: +0.00000 ]
	SubspaceRotationAdjust: set factor to 0.577
ElecMinimize: Iter: 153  F: -1992.511855038751492  |grad|_K:  2.861e-06  alpha:  8.907e-02  linmin:  5.144e-05  t[s]:   8058.34
	FillingsUpdate:  mu: +0.116006761  nElectrons: 346.000000  magneticMoment: [ Abs: 40.88870  Tot: +0.00000 ]
	SubspaceRotationAdjust: set factor to 0.424
ElecMinimize: Iter: 154  F: -1992.512009460600666  |grad|_K:  4.155e-06  alpha:  1.115e-01  linmin:  3.839e-05  t[s]:   8104.27
	FillingsUpdate:  mu: +0.115026473  nElectrons: 346.000000  magneticMoment: [ Abs: 40.87165  Tot: -0.00000 ]
	SubspaceRotationAdjust: set factor to 0.479
ElecMinimize: Iter: 155  F: -1992.512155134390923  |grad|_K:  2.864e-06  alpha:  5.038e-02  linmin:  2.040e-05  t[s]:   8149.79
	FillingsUpdate:  mu: +0.114701947  nElectrons: 346.000000  magneticMoment: [ Abs: 40.85234  Tot: -0.00000 ]
	SubspaceRotationAdjust: set factor to 0.394
ElecMinimize: Iter: 156  F: -1992.512360977360231  |grad|_K:  3.827e-06  alpha:  1.440e-01  linmin: -3.719e-05  t[s]:   8195.70
	FillingsUpdate:  mu: +0.115088857  nElectrons: 346.000000  magneticMoment: [ Abs: 40.85834  Tot: -0.00000 ]
	SubspaceRotationAdjust: set factor to 0.385
ElecMinimize: Iter: 157  F: -1992.512491070045826  |grad|_K:  2.812e-06  alpha:  4.757e-02  linmin: -7.444e-05  t[s]:   8241.68
	FillingsUpdate:  mu: +0.116344764  nElectrons: 346.000000  magneticMoment: [ Abs: 40.85750  Tot: +0.00000 ]
	SubspaceRotationAdjust: set factor to 0.315
ElecMinimize: Iter: 158  F: -1992.512670427918010  |grad|_K:  3.514e-06  alpha:  1.270e-01  linmin:  4.654e-05  t[s]:   8287.21
	FillingsUpdate:  mu: +0.115755127  nElectrons: 346.000000  magneticMoment: [ Abs: 40.84379  Tot: -0.00000 ]
	SubspaceRotationAdjust: set factor to 0.367
ElecMinimize: Iter: 159  F: -1992.512785539867991  |grad|_K:  2.663e-06  alpha:  5.591e-02  linmin:  2.284e-05  t[s]:   8332.84
	FillingsUpdate:  mu: +0.115160442  nElectrons: 346.000000  magneticMoment: [ Abs: 40.83502  Tot: -0.00000 ]
	SubspaceRotationAdjust: set factor to 0.292
ElecMinimize: Iter: 160  F: -1992.512928720687341  |grad|_K:  3.362e-06  alpha:  1.165e-01  linmin: -3.204e-05  t[s]:   8378.66
	FillingsUpdate:  mu: +0.114859424  nElectrons: 346.000000  magneticMoment: [ Abs: 40.84461  Tot: +0.00000 ]
	SubspaceRotationAdjust: set factor to 0.364
ElecMinimize: Iter: 161  F: -1992.513048446163111  |grad|_K:  2.450e-06  alpha:  5.911e-02  linmin: -1.889e-05  t[s]:   8423.88
	FillingsUpdate:  mu: +0.115336868  nElectrons: 346.000000  magneticMoment: [ Abs: 40.85327  Tot: +0.00000 ]
	SubspaceRotationAdjust: set factor to 0.272
ElecMinimize: Iter: 162  F: -1992.513173433674410  |grad|_K:  3.415e-06  alpha:  1.200e-01  linmin:  5.244e-05  t[s]:   8469.43
	FillingsUpdate:  mu: +0.115483278  nElectrons: 346.000000  magneticMoment: [ Abs: 40.84576  Tot: -0.00000 ]
	SubspaceRotationAdjust: set factor to 0.416
ElecMinimize: Iter: 163  F: -1992.513294984343020  |grad|_K:  2.476e-06  alpha:  6.218e-02  linmin:  1.471e-05  t[s]:   8515.57
	FillingsUpdate:  mu: +0.115879029  nElectrons: 346.000000  magneticMoment: [ Abs: 40.83566  Tot: +0.00000 ]
	SubspaceRotationAdjust: set factor to 0.326
ElecMinimize: Iter: 164  F: -1992.513398740941284  |grad|_K:  3.274e-06  alpha:  9.696e-02  linmin: -5.761e-05  t[s]:   8560.89
	FillingsUpdate:  mu: +0.115643186  nElectrons: 346.000000  magneticMoment: [ Abs: 40.84289  Tot: -0.00000 ]
	SubspaceRotationAdjust: set factor to 0.514
ElecMinimize: Iter: 165  F: -1992.513546142197356  |grad|_K:  2.357e-06  alpha:  7.715e-02  linmin:  1.009e-06  t[s]:   8606.55
	FillingsUpdate:  mu: +0.115675447  nElectrons: 346.000000  magneticMoment: [ Abs: 40.85446  Tot: -0.00000 ]
	SubspaceRotationAdjust: set factor to 0.381
ElecMinimize: Iter: 166  F: -1992.513653971951044  |grad|_K:  3.395e-06  alpha:  1.117e-01  linmin:  1.072e-05  t[s]:   8652.05
	FillingsUpdate:  mu: +0.115346713  nElectrons: 346.000000  magneticMoment: [ Abs: 40.85002  Tot: +0.00000 ]
	SubspaceRotationAdjust: set factor to 0.516
ElecMinimize: Iter: 167  F: -1992.513779777501668  |grad|_K:  2.490e-06  alpha:  6.386e-02  linmin:  7.098e-06  t[s]:   8697.48
	FillingsUpdate:  mu: +0.115957516  nElectrons: 346.000000  magneticMoment: [ Abs: 40.85024  Tot: -0.00000 ]
	SubspaceRotationAdjust: set factor to 0.444
ElecMinimize: Iter: 168  F: -1992.513915042638473  |grad|_K:  3.084e-06  alpha:  1.249e-01  linmin: -3.370e-05  t[s]:   8743.03
	FillingsUpdate:  mu: +0.116106004  nElectrons: 346.000000  magneticMoment: [ Abs: 40.86452  Tot: -0.00000 ]
	SubspaceRotationAdjust: set factor to 0.443
ElecMinimize: Iter: 169  F: -1992.514001883060928  |grad|_K:  2.587e-06  alpha:  5.015e-02  linmin: -6.013e-05  t[s]:   8789.30
	FillingsUpdate:  mu: +0.116076181  nElectrons: 346.000000  magneticMoment: [ Abs: 40.87340  Tot: -0.00000 ]
	SubspaceRotationAdjust: set factor to 0.409
ElecMinimize: Iter: 170  F: -1992.514147280246334  |grad|_K:  2.965e-06  alpha:  1.217e-01  linmin: -8.274e-06  t[s]:   8836.05
	FillingsUpdate:  mu: +0.115969582  nElectrons: 346.000000  magneticMoment: [ Abs: 40.86528  Tot: -0.00000 ]
	SubspaceRotationAdjust: set factor to 0.378
ElecMinimize: Iter: 171  F: -1992.514227308118734  |grad|_K:  2.488e-06  alpha:  5.282e-02  linmin:  1.522e-05  t[s]:   8882.57
	FillingsUpdate:  mu: +0.116052772  nElectrons: 346.000000  magneticMoment: [ Abs: 40.86718  Tot: -0.00000 ]
	SubspaceRotationAdjust: set factor to 0.386
ElecMinimize: Iter: 172  F: -1992.514365255809935  |grad|_K:  2.707e-06  alpha:  1.280e-01  linmin: -2.720e-05  t[s]:   8929.35
	FillingsUpdate:  mu: +0.116431351  nElectrons: 346.000000  magneticMoment: [ Abs: 40.88114  Tot: +0.00000 ]
	SubspaceRotationAdjust: set factor to 0.357
ElecMinimize: Iter: 173  F: -1992.514441109815380  |grad|_K:  2.304e-06  alpha:  5.745e-02  linmin: -2.696e-05  t[s]:   8975.99
	FillingsUpdate:  mu: +0.116952018  nElectrons: 346.000000  magneticMoment: [ Abs: 40.89084  Tot: +0.00000 ]
	SubspaceRotationAdjust: set factor to 0.332
ElecMinimize: Iter: 174  F: -1992.514563980587809  |grad|_K:  2.649e-06  alpha:  1.319e-01  linmin:  1.754e-05  t[s]:   9021.99
	FillingsUpdate:  mu: +0.117121893  nElectrons: 346.000000  magneticMoment: [ Abs: 40.88439  Tot: +0.00000 ]
	SubspaceRotationAdjust: set factor to 0.33
ElecMinimize: Iter: 175  F: -1992.514637459302094  |grad|_K:  2.200e-06  alpha:  6.081e-02  linmin:  2.412e-06  t[s]:   9068.29
	FillingsUpdate:  mu: +0.116803065  nElectrons: 346.000000  magneticMoment: [ Abs: 40.88595  Tot: +0.00000 ]
	SubspaceRotationAdjust: set factor to 0.316
ElecMinimize: Iter: 176  F: -1992.514746760023172  |grad|_K:  2.512e-06  alpha:  1.294e-01  linmin: -1.362e-05  t[s]:   9114.54
	FillingsUpdate:  mu: +0.116821584  nElectrons: 346.000000  magneticMoment: [ Abs: 40.89940  Tot: -0.00000 ]
	SubspaceRotationAdjust: set factor to 0.315
ElecMinimize: Iter: 177  F: -1992.514817312516470  |grad|_K:  2.099e-06  alpha:  6.312e-02  linmin: -1.309e-05  t[s]:   9160.67
	FillingsUpdate:  mu: +0.117199770  nElectrons: 346.000000  magneticMoment: [ Abs: 40.90885  Tot: -0.00000 ]
	SubspaceRotationAdjust: set factor to 0.278
ElecMinimize: Iter: 178  F: -1992.514921726603689  |grad|_K:  2.579e-06  alpha:  1.357e-01  linmin:  1.231e-05  t[s]:   9206.50
	FillingsUpdate:  mu: +0.117414642  nElectrons: 346.000000  magneticMoment: [ Abs: 40.90181  Tot: +0.00000 ]
	SubspaceRotationAdjust: set factor to 0.298
ElecMinimize: Iter: 179  F: -1992.514993424347722  |grad|_K:  1.987e-06  alpha:  6.191e-02  linmin: -7.573e-06  t[s]:   9252.88
	FillingsUpdate:  mu: +0.117380991  nElectrons: 346.000000  magneticMoment: [ Abs: 40.89793  Tot: -0.00000 ]
	SubspaceRotationAdjust: set factor to 0.235
ElecMinimize: Iter: 180  F: -1992.515082478217664  |grad|_K:  2.601e-06  alpha:  1.293e-01  linmin:  5.609e-06  t[s]:   9299.28
	FillingsUpdate:  mu: +0.117262917  nElectrons: 346.000000  magneticMoment: [ Abs: 40.90982  Tot: -0.00000 ]
	SubspaceRotationAdjust: set factor to 0.313
ElecMinimize: Iter: 181  F: -1992.515158357166911  |grad|_K:  1.815e-06  alpha:  6.423e-02  linmin: -8.364e-06  t[s]:   9345.38
	FillingsUpdate:  mu: +0.117199430  nElectrons: 346.000000  magneticMoment: [ Abs: 40.92190  Tot: -0.00000 ]
	SubspaceRotationAdjust: set factor to 0.245
ElecMinimize: Iter: 182  F: -1992.515224910568577  |grad|_K:  2.501e-06  alpha:  1.160e-01  linmin:  1.245e-05  t[s]:   9391.41
	FillingsUpdate:  mu: +0.117146320  nElectrons: 346.000000  magneticMoment: [ Abs: 40.91947  Tot: +0.00000 ]
	SubspaceRotationAdjust: set factor to 0.39
ElecMinimize: Iter: 183  F: -1992.515308179500153  |grad|_K:  1.797e-06  alpha:  7.657e-02  linmin: -1.099e-06  t[s]:   9438.02
	FillingsUpdate:  mu: +0.117226654  nElectrons: 346.000000  magneticMoment: [ Abs: 40.91256  Tot: -0.00000 ]
	SubspaceRotationAdjust: set factor to 0.316
ElecMinimize: Iter: 184  F: -1992.515363468417945  |grad|_K:  2.363e-06  alpha:  9.842e-02  linmin:  1.276e-05  t[s]:   9484.09
	FillingsUpdate:  mu: +0.117443029  nElectrons: 346.000000  magneticMoment: [ Abs: 40.92054  Tot: +0.00000 ]
	SubspaceRotationAdjust: set factor to 0.469
ElecMinimize: Iter: 185  F: -1992.515441227013298  |grad|_K:  1.797e-06  alpha:  8.033e-02  linmin: -6.610e-07  t[s]:   9529.56
	FillingsUpdate:  mu: +0.117237120  nElectrons: 346.000000  magneticMoment: [ Abs: 40.93067  Tot: +0.00000 ]
	SubspaceRotationAdjust: set factor to 0.345
ElecMinimize: Iter: 186  F: -1992.515505247275087  |grad|_K:  2.611e-06  alpha:  1.139e-01  linmin:  7.229e-07  t[s]:   9575.80
	FillingsUpdate:  mu: +0.116897952  nElectrons: 346.000000  magneticMoment: [ Abs: 40.92423  Tot: -0.00000 ]
	SubspaceRotationAdjust: set factor to 0.422
ElecMinimize: Iter: 187  F: -1992.515573762605072  |grad|_K:  1.816e-06  alpha:  5.789e-02  linmin:  2.029e-06  t[s]:   9622.51
	FillingsUpdate:  mu: +0.116616871  nElectrons: 346.000000  magneticMoment: [ Abs: 40.91965  Tot: +0.00000 ]
	SubspaceRotationAdjust: set factor to 0.345
ElecMinimize: Iter: 188  F: -1992.515654004555245  |grad|_K:  2.456e-06  alpha:  1.398e-01  linmin: -3.110e-06  t[s]:   9668.93
	FillingsUpdate:  mu: +0.116749497  nElectrons: 346.000000  magneticMoment: [ Abs: 40.92967  Tot: -0.00000 ]
	SubspaceRotationAdjust: set factor to 0.345
ElecMinimize: Iter: 189  F: -1992.515708303575821  |grad|_K:  1.821e-06  alpha:  5.095e-02  linmin: -1.963e-05  t[s]:   9715.12
	FillingsUpdate:  mu: +0.116829480  nElectrons: 346.000000  magneticMoment: [ Abs: 40.93680  Tot: +0.00000 ]
	SubspaceRotationAdjust: set factor to 0.294
ElecMinimize: Iter: 190  F: -1992.515788411876201  |grad|_K:  2.394e-06  alpha:  1.386e-01  linmin:  3.175e-05  t[s]:   9761.04
	FillingsUpdate:  mu: +0.116705439  nElectrons: 346.000000  magneticMoment: [ Abs: 40.92995  Tot: -0.00000 ]
	SubspaceRotationAdjust: set factor to 0.324
ElecMinimize: Iter: 191  F: -1992.515843539006255  |grad|_K:  1.773e-06  alpha:  5.763e-02  linmin:  2.501e-05  t[s]:   9807.30
	FillingsUpdate:  mu: +0.116242783  nElectrons: 346.000000  magneticMoment: [ Abs: 40.92631  Tot: -0.00000 ]
	SubspaceRotationAdjust: set factor to 0.294
ElecMinimize: Iter: 192  F: -1992.515908203945855  |grad|_K:  2.152e-06  alpha:  1.184e-01  linmin: -4.240e-05  t[s]:   9853.59
	FillingsUpdate:  mu: +0.116161177  nElectrons: 346.000000  magneticMoment: [ Abs: 40.93575  Tot: -0.00000 ]
	SubspaceRotationAdjust: set factor to 0.313
ElecMinimize: Iter: 193  F: -1992.515961262952032  |grad|_K:  1.634e-06  alpha:  6.324e-02  linmin: -1.363e-05  t[s]:   9899.61
[...]
ion O   0.000000000000000   0.000000000000000  -0.150000000000000 0
ion O   0.500000000000000   0.000000000000000  -0.150000000000000 0
ion O   0.000000000000000   0.500000000000000  -0.150000000000000 0
ion O   0.500000000000000   0.500000000000000  -0.150000000000000 0
ion O  -0.011162619002217  -0.009143781584407   0.246173357623119 1

# Forces in Lattice coordinates:
force Ni  -0.021866617429092  -0.014236519499080   0.023556341517693 1
force Ni  -0.032134910632318   0.044558612291317  -0.268412593513555 0
force Ni   0.088210508154819  -0.084621575799669   0.075674047883520 0
force V   0.002215037192897  -0.002741158400368   0.025303024465344 1
force V  -0.002591820069178   0.004059721235045   0.009328586633044 1
force V  -0.004756056041546  -0.000115228829408   0.005087818358758 1
force V   0.004935601191351  -0.000240809834985  -0.012841293650088 1
force V   0.005460956927943   0.000169036099015  -0.009081710265683 1
force V   0.000079600851172  -0.003261418076521  -0.056129041449038 1
force V   0.000067584111493   0.003860435218197  -0.040063383013009 1
force Co   0.026796196231146   0.030423032146108  -0.285165655102382 0
force Co  -0.035559699411575  -0.029678824535568  -0.292443743395168 0
force Co  -0.063083973068534  -0.081884889871167  -0.473679816684164 0
force Co  -0.062873087486308   0.082182537586446  -0.413781317243552 0
force Co   0.109625577409528   0.091901997644524  -0.461336212560624 0
force Cr   0.035747564533088  -0.033790698050073  -0.449148239478522 0
force O   0.003043047309061  -0.001651559313803   0.009433287083121 1
force O   0.008402244436336   0.001070652531677   0.003642634683500 1
force O  -0.003197120867889   0.004036095958840  -0.042435957557536 1
force O  -0.002829781240086  -0.002337281809808  -0.014962391809872 1
force O   0.010076854467611   0.001761996633104   0.010416479408851 1
force O  -0.007316135343480   0.000133861455247  -0.009386921788844 1
force O   0.006570779398820  -0.000093958821480   0.015078763131845 1
force O  -0.008482353862488   0.001503009811856   0.008823014336741 1
force O   0.053695273157557   0.064877908117819   0.628403777028114 0
force O   0.059657835967837  -0.068775998370935   0.612354043939155 0
force O  -0.052257710443067   0.036143555661222   0.595372748674411 0
force O  -0.064046157059993  -0.039213270104796   0.582258774740866 0
force O  -0.017030061257284   0.007077707721309  -0.332122614632623 0
force O  -0.004464806368038  -0.002937523882737  -0.036123972822266 0
force O   0.009916230351338  -0.000178231640937   0.008892910167281 0
force O  -0.007313015720879  -0.004158898901250   0.602683916458412 0
force O  -0.011579847045516   0.001981381771310  -0.021819606644911 1

# Energy components:
   Eewald =     5143.0333324556013395
       EH =     6936.7575837473423235
     Eloc =   -14235.4237487124210020
      Enl =     -514.5684261169517413
   Epulay =       -0.0004807980462104
      Exc =     -244.8828846574337490
       KE =      921.4061309956380228
        U =        1.1057833374183756
-------------------------------------
     Etot =    -1992.5727097488536401
       TS =        0.0009479135754338
-------------------------------------
        F =    -1992.5736576624290137

IonicMinimize: Iter:  19  F: -1992.573657662429014  |grad|_K:  5.587e-04  alpha:  1.000e+00  linmin: -2.603e-02  t[s]:  72521.15

#--- Lowdin population analysis ---
# oxidation-state Ni +3.526 +3.330 +3.665
# magnetic-moments Ni -0.280 +0.662 +0.886
# oxidation-state V +1.146 +1.138 +1.321 +1.006 +1.006 +1.064 +1.060
# magnetic-moments V -2.919 +2.946 -2.073 +2.905 +2.901 -2.720 -2.726
# oxidation-state Co +1.255 +1.256 +1.295 +1.277 +1.292
# magnetic-moments Co +2.749 -2.738 -2.776 -2.749 +2.776
# oxidation-state Cr +2.961
# magnetic-moments Cr +3.543
# oxidation-state O -0.881 -0.885 -0.880 -0.870 -0.811 -0.946 -0.946 -0.900 -0.950 -0.952 -0.882 -0.954 -0.971 -1.042 -1.040 -0.944 -0.462
# magnetic-moments O +0.007 +0.019 +0.049 +0.005 +0.009 +0.046 -0.018 -0.022 -0.069 -0.067 +0.076 +0.018 +0.035 +0.088 -0.010 -0.078 -0.797


-------- Electronic minimization -----------
	FillingsUpdate:  mu: +0.153198770  nElectrons: 346.000000  magneticMoment: [ Abs: 41.28002  Tot: +0.00000 ]
ElecMinimize: Iter:   0  F: -1991.449704812489699  |grad|_K:  1.770e-04  alpha:  1.000e+00
	FillingsUpdate:  mu: +0.115532416  nElectrons: 346.000000  magneticMoment: [ Abs: 41.30434  Tot: -0.00000 ]
	SubspaceRotationAdjust: set factor to 0.198
ElecMinimize: Iter:   1  F: -1992.464652447619528  |grad|_K:  5.040e-05  alpha:  2.288e-01  linmin:  5.954e-02  t[s]:  72600.24
	FillingsUpdate:  mu: +0.119552436  nElectrons: 346.000000  magneticMoment: [ Abs: 41.32049  Tot: +0.00000 ]
	SubspaceRotationAdjust: set factor to 0.209
ElecMinimize: Iter:   2  F: -1992.549843980118567  |grad|_K:  1.389e-05  alpha:  2.354e-01  linmin: -7.621e-04  t[s]:  72646.25
	FillingsUpdate:  mu: +0.117051852  nElectrons: 346.000000  magneticMoment: [ Abs: 41.24982  Tot: +0.00000 ]
	SubspaceRotationAdjust: set factor to 0.218
ElecMinimize: Iter:   3  F: -1992.558527005243377  |grad|_K:  8.979e-06  alpha:  2.575e-01  linmin: -1.146e-04  t[s]:  72691.57
	FillingsUpdate:  mu: +0.122404315  nElectrons: 346.000000  magneticMoment: [ Abs: 41.34083  Tot: -0.00000 ]
	SubspaceRotationAdjust: set factor to 0.164
ElecMinimize: Iter:   4  F: -1992.562015096115601  |grad|_K:  9.063e-06  alpha:  2.475e-01  linmin:  1.949e-04  t[s]:  72737.45
	FillingsUpdate:  mu: +0.122198647  nElectrons: 346.000000  magneticMoment: [ Abs: 41.27132  Tot: +0.00000 ]
	SubspaceRotationAdjust: set factor to 0.169
ElecMinimize: Iter:   5  F: -1992.565466206862993  |grad|_K:  5.602e-06  alpha:  2.447e-01  linmin: -1.413e-05  t[s]:  72783.11
	FillingsUpdate:  mu: +0.123190366  nElectrons: 346.000000  magneticMoment: [ Abs: 41.28021  Tot: +0.00000 ]
	SubspaceRotationAdjust: set factor to 0.206
ElecMinimize: Iter:   6  F: -1992.568288312745381  |grad|_K:  5.319e-06  alpha:  5.140e-01  linmin: -3.515e-05  t[s]:  72828.50
	FillingsUpdate:  mu: +0.122122810  nElectrons: 346.000000  magneticMoment: [ Abs: 41.31110  Tot: +0.00000 ]
	SubspaceRotationAdjust: set factor to 0.219
ElecMinimize: Iter:   7  F: -1992.570455291732515  |grad|_K:  5.282e-06  alpha:  4.376e-01  linmin: -1.034e-05  t[s]:  72874.12
	FillingsUpdate:  mu: +0.119638844  nElectrons: 346.000000  magneticMoment: [ Abs: 41.26201  Tot: -0.00000 ]
	SubspaceRotationAdjust: set factor to 0.172
ElecMinimize: Iter:   8  F: -1992.571724970474634  |grad|_K:  4.883e-06  alpha:  2.614e-01  linmin:  6.446e-06  t[s]:  72919.76
	FillingsUpdate:  mu: +0.122308215  nElectrons: 346.000000  magneticMoment: [ Abs: 41.30245  Tot: -0.00000 ]
	SubspaceRotationAdjust: set factor to 0.13
ElecMinimize: Iter:   9  F: -1992.572571514565425  |grad|_K:  3.203e-06  alpha:  2.039e-01  linmin:  4.801e-06  t[s]:  72965.87
	FillingsUpdate:  mu: +0.122607374  nElectrons: 346.000000  magneticMoment: [ Abs: 41.29802  Tot: +0.00000 ]
	SubspaceRotationAdjust: set factor to 0.15
ElecMinimize: Iter:  10  F: -1992.573217089201535  |grad|_K:  2.286e-06  alpha:  3.619e-01  linmin:  1.732e-06  t[s]:  73011.88
	FillingsUpdate:  mu: +0.122565838  nElectrons: 346.000000  magneticMoment: [ Abs: 41.28730  Tot: -0.00000 ]
	SubspaceRotationAdjust: set factor to 0.139
ElecMinimize: Iter:  11  F: -1992.573466190312274  |grad|_K:  1.537e-06  alpha:  2.737e-01  linmin:  1.966e-06  t[s]:  73057.96
	FillingsUpdate:  mu: +0.122870994  nElectrons: 346.000000  magneticMoment: [ Abs: 41.29979  Tot: -0.00000 ]
	SubspaceRotationAdjust: set factor to 0.11
ElecMinimize: Iter:  12  F: -1992.573582925083201  |grad|_K:  1.123e-06  alpha:  2.839e-01  linmin:  1.007e-05  t[s]:  73104.27
	FillingsUpdate:  mu: +0.123000022  nElectrons: 346.000000  magneticMoment: [ Abs: 41.29364  Tot: +0.00000 ]
	SubspaceRotationAdjust: set factor to 0.105
ElecMinimize: Iter:  13  F: -1992.573647928657920  |grad|_K:  7.610e-07  alpha:  2.963e-01  linmin: -5.857e-07  t[s]:  73150.47
	FillingsUpdate:  mu: +0.122960914  nElectrons: 346.000000  magneticMoment: [ Abs: 41.29350  Tot: +0.00000 ]
	SubspaceRotationAdjust: set factor to 0.121
ElecMinimize: Iter:  14  F: -1992.573677480577771  |grad|_K:  5.393e-07  alpha:  2.931e-01  linmin:  1.474e-07  t[s]:  73196.27
	FillingsUpdate:  mu: +0.122938117  nElectrons: 346.000000  magneticMoment: [ Abs: 41.29672  Tot: -0.00000 ]
	SubspaceRotationAdjust: set factor to 0.12
ElecMinimize: Iter:  15  F: -1992.573694942092288  |grad|_K:  4.302e-07  alpha:  3.448e-01  linmin:  9.727e-07  t[s]:  73242.54
	FillingsUpdate:  mu: +0.122906282  nElectrons: 346.000000  magneticMoment: [ Abs: 41.29441  Tot: -0.00000 ]
	SubspaceRotationAdjust: set factor to 0.128
ElecMinimize: Iter:  16  F: -1992.573704907603087  |grad|_K:  3.229e-07  alpha:  3.093e-01  linmin: -4.448e-07  t[s]:  73288.69
	FillingsUpdate:  mu: +0.122915912  nElectrons: 346.000000  magneticMoment: [ Abs: 41.29502  Tot: -0.00000 ]
	SubspaceRotationAdjust: set factor to 0.154
ElecMinimize: Iter:  17  F: -1992.573712382202984  |grad|_K:  2.943e-07  alpha:  4.117e-01  linmin: -7.823e-07  t[s]:  73334.92
	FillingsUpdate:  mu: +0.122949252  nElectrons: 346.000000  magneticMoment: [ Abs: 41.29679  Tot: -0.00000 ]
	SubspaceRotationAdjust: set factor to 0.169
ElecMinimize: Iter:  18  F: -1992.573717879010246  |grad|_K:  2.823e-07  alpha:  3.645e-01  linmin: -3.694e-07  t[s]:  73381.64
	FillingsUpdate:  mu: +0.122947244  nElectrons: 346.000000  magneticMoment: [ Abs: 41.29531  Tot: +0.00000 ]
	SubspaceRotationAdjust: set factor to 0.165
ElecMinimize: Iter:  19  F: -1992.573722783981339  |grad|_K:  2.611e-07  alpha:  3.535e-01  linmin:  1.028e-06  t[s]:  73427.96
	FillingsUpdate:  mu: +0.122965074  nElectrons: 346.000000  magneticMoment: [ Abs: 41.29790  Tot: -0.00000 ]
	SubspaceRotationAdjust: set factor to 0.156
ElecMinimize: Iter:  20  F: -1992.573726904594423  |grad|_K:  2.484e-07  alpha:  3.471e-01  linmin: -2.858e-07  t[s]:  73474.32
	FillingsUpdate:  mu: +0.122948090  nElectrons: 346.000000  magneticMoment: [ Abs: 41.29762  Tot: +0.00000 ]
	SubspaceRotationAdjust: set factor to 0.164
ElecMinimize: Iter:  21  F: -1992.573730625796770  |grad|_K:  2.033e-07  alpha:  3.464e-01  linmin:  7.377e-07  t[s]:  73520.08
	FillingsUpdate:  mu: +0.122957440  nElectrons: 346.000000  magneticMoment: [ Abs: 41.29841  Tot: -0.00000 ]
	SubspaceRotationAdjust: set factor to 0.182
ElecMinimize: Iter:  22  F: -1992.573733397808837  |grad|_K:  1.755e-07  alpha:  3.852e-01  linmin:  5.647e-07  t[s]:  73565.20
	FillingsUpdate:  mu: +0.122981223  nElectrons: 346.000000  magneticMoment: [ Abs: 41.29988  Tot: -0.00000 ]
	SubspaceRotationAdjust: set factor to 0.193
ElecMinimize: Iter:  23  F: -1992.573735352988251  |grad|_K:  1.629e-07  alpha:  3.647e-01  linmin: -6.665e-08  t[s]:  73611.01
	FillingsUpdate:  mu: +0.122981250  nElectrons: 346.000000  magneticMoment: [ Abs: 41.29941  Tot: -0.00000 ]
	SubspaceRotationAdjust: set factor to 0.184
ElecMinimize: Iter:  24  F: -1992.573736794553270  |grad|_K:  1.476e-07  alpha:  3.121e-01  linmin: -1.260e-06  t[s]:  73656.56
	FillingsUpdate:  mu: +0.123005578  nElectrons: 346.000000  magneticMoment: [ Abs: 41.30145  Tot: -0.00000 ]
	SubspaceRotationAdjust: set factor to 0.166
ElecMinimize: Iter:  25  F: -1992.573737922478358  |grad|_K:  1.442e-07  alpha:  2.972e-01  linmin:  2.985e-06  t[s]:  73702.68
	FillingsUpdate:  mu: +0.123007579  nElectrons: 346.000000  magneticMoment: [ Abs: 41.30158  Tot: +0.00000 ]
	SubspaceRotationAdjust: set factor to 0.177
ElecMinimize: Iter:  26  F: -1992.573739179023960  |grad|_K:  1.271e-07  alpha:  3.472e-01  linmin: -5.709e-06  t[s]:  73748.76
	FillingsUpdate:  mu: +0.123022013  nElectrons: 346.000000  magneticMoment: [ Abs: 41.30276  Tot: +0.00000 ]
	SubspaceRotationAdjust: set factor to 0.207
ElecMinimize: Iter:  27  F: -1992.573740364747437  |grad|_K:  1.247e-07  alpha:  4.214e-01  linmin: -1.642e-06  t[s]:  73794.94
	FillingsUpdate:  mu: +0.123046521  nElectrons: 346.000000  magneticMoment: [ Abs: 41.30451  Tot: -0.00000 ]
	SubspaceRotationAdjust: set factor to 0.223
ElecMinimize: Iter:  28  F: -1992.573741466906768  |grad|_K:  1.322e-07  alpha:  4.067e-01  linmin:  1.961e-06  t[s]:  73840.75
	FillingsUpdate:  mu: +0.123048147  nElectrons: 346.000000  magneticMoment: [ Abs: 41.30445  Tot: +0.00000 ]
	SubspaceRotationAdjust: set factor to 0.196
ElecMinimize: Iter:  29  F: -1992.573742438727550  |grad|_K:  1.414e-07  alpha:  3.196e-01  linmin: -1.606e-06  t[s]:  73886.99
	FillingsUpdate:  mu: +0.123075564  nElectrons: 346.000000  magneticMoment: [ Abs: 41.30669  Tot: -0.00000 ]
	SubspaceRotationAdjust: set factor to 0.156
ElecMinimize: Iter:  30  F: -1992.573743248626670  |grad|_K:  1.198e-07  alpha:  2.327e-01  linmin:  1.672e-06  t[s]:  73933.42
	FillingsUpdate:  mu: +0.123079647  nElectrons: 346.000000  magneticMoment: [ Abs: 41.30737  Tot: +0.00000 ]
	SubspaceRotationAdjust: set factor to 0.167
ElecMinimize: Iter:  31  F: -1992.573744126357042  |grad|_K:  1.021e-07  alpha:  3.514e-01  linmin: -2.653e-06  t[s]:  73979.96
	FillingsUpdate:  mu: +0.123085704  nElectrons: 346.000000  magneticMoment: [ Abs: 41.30797  Tot: +0.00000 ]
	SubspaceRotationAdjust: set factor to 0.179
ElecMinimize: Iter:  32  F: -1992.573744768418692  |grad|_K:  8.675e-08  alpha:  3.539e-01  linmin:  1.780e-06  t[s]:  74026.36
	FillingsUpdate:  mu: +0.123103704  nElectrons: 346.000000  magneticMoment: [ Abs: 41.30917  Tot: +0.00000 ]
	SubspaceRotationAdjust: set factor to 0.159
ElecMinimize: Iter:  33  F: -1992.573745149634760  |grad|_K:  7.710e-08  alpha:  2.910e-01  linmin:  4.184e-06  t[s]:  74072.73
ElecMinimize: Converged (|Delta F|<1.000000e-06 for 5 iters).
Setting wave functions to eigenvectors of Hamiltonian

# Ionic positions in lattice coordinates:
ion Ni  -0.024431796031742  -0.008676554790009   0.167576972617852 1
ion Ni   0.000000000000000   0.000000000000000  -0.050000000000000 0
ion Ni  -0.250000000000000   0.250000000000000  -0.150000000000000 0
ion V   0.481896530582492   0.002732459727949   0.164594701604900 1
ion V  -0.013057047920958   0.500406819392193   0.165315129514733 1
ion V   0.487202505497146   0.501677367101882   0.156627568748333 1
ion V   0.239166631439196   0.245303858485755   0.056624734836938 1
ion V   0.239811337062049   0.755816021152314   0.056141580755366 1
ion V  -0.246474684016757   0.243373437378231   0.056267753298326 1
ion V  -0.247663231510455   0.756856051272856   0.056026360480879 1
ion Co   0.500000000000000   0.000000000000000  -0.050000000000000 0
ion Co   0.000000000000000   0.500000000000000  -0.050000000000000 0
ion Co   0.250000000000000   0.250000000000000  -0.150000000000000 0
ion Co   0.250000000000000   0.750000000000000  -0.150000000000000 0
ion Co  -0.250000000000000   0.750000000000000  -0.150000000000000 0
ion Cr   0.500000000000000   0.500000000000000  -0.050000000000000 0
ion O   0.255517500351885   0.272655194699935   0.157777930187551 1
ion O   0.255720514577774   0.731466035048691   0.156319440782766 1
ion O  -0.281447861707258   0.268937690702255   0.155213422441580 1
ion O  -0.277284465751730   0.739949609229992   0.155231167081306 1
ion O  -0.009415766889964   0.000593571599688   0.076349226552144 1
ion O   0.500355018913398   0.001280904010203   0.059145727784418 1
ion O  -0.008123117410302   0.500693988235570   0.057826302476483 1
ion O   0.500736549290600   0.500013264731133   0.049634207562542 1
ion O   0.250000000000000   0.250000000000000  -0.050000000000000 0
ion O   0.250000000000000   0.750000000000000  -0.050000000000000 0
ion O  -0.250000000000000   0.250000000000000  -0.050000000000000 0
ion O  -0.250000000000000   0.750000000000000  -0.050000000000000 0
ion O   0.000000000000000   0.000000000000000  -0.150000000000000 0
ion O   0.500000000000000   0.000000000000000  -0.150000000000000 0
ion O   0.000000000000000   0.500000000000000  -0.150000000000000 0
ion O   0.500000000000000   0.500000000000000  -0.150000000000000 0
ion O  -0.019741982879238  -0.009848937752900   0.246502967533790 1

# Forces in Lattice coordinates:
force Ni  -0.003421188887788   0.000287313615007  -0.039930647456538 1
force Ni  -0.031300743273184   0.044227063108117  -0.241066561087341 0
force Ni   0.087937464215717  -0.084271586043101   0.086976907322319 0
force V   0.000096197330302   0.001347591326441   0.014932013175594 1
force V  -0.001141048934308  -0.000599856510615   0.006507121145465 1
force V  -0.008598311726614   0.007920476607930   0.001590858895929 1
force V   0.001612987998341  -0.003833045464962   0.003989513139208 1
force V   0.002151476393630   0.005897138841402   0.004207496106385 1
force V   0.002937424398886  -0.002029866634082  -0.026224565416217 1
force V   0.002094426421721   0.005776708773482  -0.029474317751220 1
force Co   0.025855311327441   0.030642334397999  -0.273391955586151 0
force Co  -0.035001956741839  -0.029255759493973  -0.278319024788786 0
force Co  -0.063137499398776  -0.081858344716328  -0.467504412129279 0
force Co  -0.062897710327535   0.082171724963716  -0.408039183330561 0
force Co   0.109635967467032   0.091882497333420  -0.456174256926099 0
force Cr   0.035412032636611  -0.033328383070660  -0.435179003977624 0
force O   0.003957094341415  -0.000639110805386   0.018451250204853 1
force O   0.015851581291288  -0.003396545945052   0.019006829504223 1
force O  -0.009038818831955   0.011615293457371  -0.055549816819516 1
force O  -0.011995382684173  -0.011295443059702  -0.029095647419735 1
force O   0.008309334120117  -0.002471306496668   0.009972017228364 1
force O  -0.009695767279390  -0.000527850927503  -0.040996052397095 1
force O   0.006412553929875  -0.000870028355704   0.019445897590861 1
force O  -0.010852111626673   0.000936001028990   0.007666126988941 1
force O   0.054533412169634   0.064219556691094   0.631238980286417 0
force O   0.060779855779646  -0.068238792310623   0.609695221382239 0
force O  -0.053867226876723   0.035687735907096   0.623539230977517 0
force O  -0.064975614181366  -0.038100496439479   0.579201247917794 0
force O  -0.016822354944812   0.006910623211909  -0.340606174945347 0
force O  -0.004726857546409  -0.003279468547569  -0.038195782511748 0
force O   0.010269220328628   0.000209434848403   0.005464350440427 0
force O  -0.007371526872447  -0.004171655551625   0.599496884991767 0
force O  -0.015630123238512   0.001899716375450   0.003999945216236 1

# Energy components:
   Eewald =     5139.3894233943947256
       EH =     6933.1419147419164801
     Eloc =   -14228.1622202854468924
      Enl =     -514.5635988317607143
   Epulay =       -0.0004807980462104
      Exc =     -244.8809096999601422
       KE =      921.3972820682865859
        U =        1.1057852755628623
-------------------------------------
     Etot =    -1992.5728041350528201
       TS =        0.0009410145820361
-------------------------------------
        F =    -1992.5737451496347603

IonicMinimize: Iter:  20  F: -1992.573745149634760  |grad|_K:  5.996e-04  alpha:  4.259e-01  linmin: -1.692e-02  t[s]:  74088.60
IonicMinimize: Converged (|Delta F|<1.000000e-04 for 3 iters).

#--- Lowdin population analysis ---
# oxidation-state Ni +3.531 +3.328 +3.663
# magnetic-moments Ni -0.264 +0.660 +0.883
# oxidation-state V +1.144 +1.138 +1.321 +1.007 +1.006 +1.066 +1.060
# magnetic-moments V -2.919 +2.945 -2.073 +2.904 +2.900 -2.721 -2.728
# oxidation-state Co +1.255 +1.256 +1.295 +1.277 +1.292
# magnetic-moments Co +2.749 -2.738 -2.776 -2.749 +2.776
# oxidation-state Cr +2.961
# magnetic-moments Cr +3.544
# oxidation-state O -0.881 -0.886 -0.880 -0.869 -0.811 -0.945 -0.947 -0.901 -0.950 -0.952 -0.882 -0.954 -0.972 -1.042 -1.040 -0.944 -0.460
# magnetic-moments O +0.008 +0.022 +0.055 -0.001 +0.008 +0.046 -0.018 -0.022 -0.070 -0.067 +0.076 +0.018 +0.034 +0.089 -0.010 -0.077 -0.805


Dumping 'run.ionpos' ... done
Dumping 'run.lattice' ... done
Dumping 'run.Ecomponents' ... done
End date and time: Wed May  7 15:12:22 2025  (Duration: 0-20:34:52.82)
Done!
