/var/spool/slurmd/job44154/slurm_script: line 9: module: command not found
/var/spool/slurmd/job44154/slurm_script: line 10: module: command not found

*************** JDFTx 1.7.0  ***************

Start date and time: Sat May 10 03:21:17 2025
Executable /data2/jt577/jdftx_eat_withLibXC/build/jdftx with command-line: -i /data2/jt577/May_2025/Relax_Mag/rel18+1_6/O/runs/calc_/run.in
Running on hosts (process indices):  node3406 (0-8)
Divided in process groups (process indices):  0 (0)  1 (1)  2 (2)  3 (3)  4 (4)  5 (5)  6 (6)  7 (7)  8 (8)
Resource initialization completed at t[s]:      0.00
Run totals: 9 processes, 90 threads, 0 GPUs


Input parsed successfully to the following command list (including defaults):

add-mix 
add-U 	Ni d 0.22 \
	V d 0.12 \
	Co d 0.2 \
	Cr d 0.16
basis kpoint-dependent
coords-type Lattice
core-overlap-check vector
coulomb-interaction Periodic
davidson-band-ratio 1.1
dump End IonicPositions Lattice Ecomponents
dump-name run.$VAR
elec-cutoff 30
elec-eigen-algo Davidson
elec-ex-corr gga-x-rpbe gga-c-pbe
elec-smearing Fermi 0.001
electronic-minimize  \
	dirUpdateScheme      FletcherReeves \
	linminMethod         DirUpdateRecommended \
	nIterations          1000 \
	history              15 \
	knormThreshold       0 \
	energyDiffThreshold  1e-06 \
	nEnergyDiff          5 \
	alphaTstart          1 \
	alphaTmin            1e-10 \
	updateTestStepSize   yes \
	alphaTreduceFactor   0.1 \
	alphaTincreaseFactor 3 \
	nAlphaAdjustMax      3 \
	wolfeEnergy          0.0001 \
	wolfeGradient        0.9 \
	fdTest               no
exchange-regularization WignerSeitzTruncated
fluid None
fluid-ex-corr (null) lda-PZ
fluid-gummel-loop 10 1.000000e-05
fluid-minimize  \
	dirUpdateScheme      PolakRibiere \
	linminMethod         DirUpdateRecommended \
	nIterations          100 \
	history              15 \
	knormThreshold       0 \
	energyDiffThreshold  0 \
	nEnergyDiff          2 \
	alphaTstart          1 \
	alphaTmin            1e-10 \
	updateTestStepSize   yes \
	alphaTreduceFactor   0.1 \
	alphaTincreaseFactor 3 \
	nAlphaAdjustMax      3 \
	wolfeEnergy          0.0001 \
	wolfeGradient        0.9 \
	fdTest               no
fluid-solvent H2O 55.338 ScalarEOS \
	epsBulk 78.4 \
	pMol 0.92466 \
	epsInf 1.77 \
	Pvap 1.06736e-10 \
	sigmaBulk 4.62e-05 \
	Rvdw 2.61727 \
	Res 1.42 \
	tauNuc 343133 \
	poleEl 15 7 1
forces-output-coords Positions
initial-magnetic-moments  \
	Ni 1 -1 -1 \
	V -1 1 -1 1 -1 1 \
	Co -1 1 1 -1 1 \
	Cr 1 -1
initial-state run.$VAR
ion Ni  0.000000000000000   0.000000000000000   0.150000000000000 1
ion Ni -0.250000000000000   0.250000000000000   0.050000000000000 1
ion Ni -0.250000000000000   0.750000000000000   0.050000000000000 1
ion V  0.500000000000000   0.000000000000000   0.150000000000000 1
ion V  0.000000000000000   0.500000000000000   0.150000000000000 1
ion V  0.000000000000000   0.000000000000000  -0.050000000000000 0
ion V  0.500000000000000   0.500000000000000  -0.050000000000000 0
ion V  0.250000000000000   0.750000000000000  -0.150000000000000 0
ion V -0.250000000000000   0.250000000000000  -0.150000000000000 0
ion Co  0.500000000000000   0.500000000000000   0.150000000000000 1
ion Co  0.250000000000000   0.250000000000000   0.050000000000000 1
ion Co  0.500000000000000   0.000000000000000  -0.050000000000000 0
ion Co  0.000000000000000   0.500000000000000  -0.050000000000000 0
ion Co -0.250000000000000   0.750000000000000  -0.150000000000000 0
ion Cr  0.250000000000000   0.750000000000000   0.050000000000000 1
ion Cr  0.250000000000000   0.250000000000000  -0.150000000000000 0
ion O  0.250000000000000   0.250000000000000   0.150000000000000 1
ion O  0.250000000000000   0.750000000000000   0.150000000000000 1
ion O -0.250000000000000   0.250000000000000   0.150000000000000 1
ion O -0.250000000000000   0.750000000000000   0.150000000000000 1
ion O  0.000000000000000   0.000000000000000   0.050000000000000 1
ion O  0.500000000000000   0.000000000000000   0.050000000000000 1
ion O  0.000000000000000   0.500000000000000   0.050000000000000 1
ion O  0.500000000000000   0.500000000000000   0.050000000000000 1
ion O  0.250000000000000   0.250000000000000  -0.050000000000000 0
ion O  0.250000000000000   0.750000000000000  -0.050000000000000 0
ion O -0.250000000000000   0.250000000000000  -0.050000000000000 0
ion O -0.250000000000000   0.750000000000000  -0.050000000000000 0
ion O  0.000000000000000   0.000000000000000  -0.150000000000000 0
ion O  0.500000000000000   0.000000000000000  -0.150000000000000 0
ion O  0.000000000000000   0.500000000000000  -0.150000000000000 0
ion O  0.500000000000000   0.500000000000000  -0.150000000000000 0
ion O -0.000095572322686   0.000198307128402   0.224876729873325 1
ion-species SG15/$ID_ONCV_PBE.upf
ion-width 0
ionic-minimize  \
	dirUpdateScheme      L-BFGS \
	linminMethod         DirUpdateRecommended \
	nIterations          1000 \
	history              15 \
	knormThreshold       0.0001 \
	energyDiffThreshold  0.0001 \
	nEnergyDiff          3 \
	alphaTstart          1 \
	alphaTmin            1e-10 \
	updateTestStepSize   yes \
	alphaTreduceFactor   0.1 \
	alphaTincreaseFactor 3 \
	nAlphaAdjustMax      3 \
	wolfeEnergy          0.0001 \
	wolfeGradient        0.9 \
	fdTest               no
kpoint   0.500000000000   0.500000000000   0.500000000000  1.00000000000000
kpoint-folding 3 3 1 
latt-move-scale 1 1 1
latt-scale 1 1 1 
lattice  \
	   8.140000000000001    8.140000000000001    0.000000000000000  \
	   8.140000000000001   -8.140000000000001    0.000000000000000  \
	   0.000000000000000    0.000000000000000   40.700000000000003 
lattice-minimize  \
	dirUpdateScheme      L-BFGS \
	linminMethod         DirUpdateRecommended \
	nIterations          0 \
	history              15 \
	knormThreshold       0 \
	energyDiffThreshold  1e-06 \
	nEnergyDiff          2 \
	alphaTstart          1 \
	alphaTmin            1e-10 \
	updateTestStepSize   yes \
	alphaTreduceFactor   0.1 \
	alphaTincreaseFactor 3 \
	nAlphaAdjustMax      3 \
	wolfeEnergy          0.0001 \
	wolfeGradient        0.9 \
	fdTest               no
lcao-params -1 1e-06 0.001
pcm-variant GLSSA13
spintype z-spin
subspace-rotation-factor 1 yes
symmetries none
symmetry-threshold 0.0001


Applied RMS atom displacement 0 bohrs to make symmetries exact.

---------- Initializing the Grid ----------
R = 
[         8.14         8.14            0  ]
[         8.14        -8.14            0  ]
[            0            0         40.7  ]
unit cell volume = 5393.53
G =
[   0.385945   0.385945         -0  ]
[   0.385945  -0.385945         -0  ]
[         -0         -0   0.154378  ]
Minimum fftbox size, Smin = [  60  60  204  ]
Chosen fftbox size, S = [  60  60  210  ]

---------- Exchange Correlation functional ----------
Initialized LibXC exchange functional 'Hammer, Hansen, and Norskov'
Initialized LibXC correlation functional 'Perdew, Burke & Ernzerhof'

---------- Setting up pseudopotentials ----------
Width of ionic core gaussian charges (only for fluid interactions / plotting) set to 0

Reading pseudopotential file '/data2/jt577/jdftx_eat_withLibXC/build/pseudopotentials/SG15/Ni_ONCV_PBE.upf':
  'Ni' pseudopotential, 'PBE' functional
  Generated using ONCVPSP code by D. R. Hamann
  Author: Martin Schlipf and Francois Gygi  Date: 150915.
  18 valence electrons, 4 orbitals, 6 projectors, 1292 radial grid points, with lMax = 2
  Transforming local potential to a uniform radial grid of dG=0.02 with 1419 points.
  Transforming nonlocal projectors to a uniform radial grid of dG=0.02 with 528 points.
    3S    l: 0   occupation:  2.0   eigenvalue: -4.081355
    3P    l: 1   occupation:  6.0   eigenvalue: -2.623460
    4S    l: 0   occupation:  2.0   eigenvalue: -0.207378
    3D    l: 2   occupation:  8.0   eigenvalue: -0.326118
  Transforming atomic orbitals to a uniform radial grid of dG=0.02 with 528 points.
  WARNING: large normalization error in atomic orbital 1s (integral: 0.000006).
  Core radius for overlap checks: 1.99 bohrs.
  Reading pulay file /data2/jt577/jdftx_eat_withLibXC/build/pseudopotentials/SG15/Ni_ONCV_PBE.pulay ... using dE_dnG = -7.250568e-04 computed for Ecut = 30.

Reading pseudopotential file '/data2/jt577/jdftx_eat_withLibXC/build/pseudopotentials/SG15/V_ONCV_PBE.upf':
  'V' pseudopotential, 'PBE' functional
  Generated using ONCVPSP code by D. R. Hamann
  Author: Martin Schlipf and Francois Gygi  Date: 150915.
  13 valence electrons, 4 orbitals, 6 projectors, 1536 radial grid points, with lMax = 2
  Transforming local potential to a uniform radial grid of dG=0.02 with 1419 points.
  Transforming nonlocal projectors to a uniform radial grid of dG=0.02 with 528 points.
    3S    l: 0   occupation:  2.0   eigenvalue: -2.581105
    3P    l: 1   occupation:  6.0   eigenvalue: -1.618486
    4S    l: 0   occupation:  2.0   eigenvalue: -0.172804
    3D    l: 2   occupation:  3.0   eigenvalue: -0.189795
  Transforming atomic orbitals to a uniform radial grid of dG=0.02 with 528 points.
  Core radius for overlap checks: 1.80 bohrs.
  Reading pulay file /data2/jt577/jdftx_eat_withLibXC/build/pseudopotentials/SG15/V_ONCV_PBE.pulay ... using dE_dnG = -1.698632e-04 computed for Ecut = 30.

Reading pseudopotential file '/data2/jt577/jdftx_eat_withLibXC/build/pseudopotentials/SG15/Co_ONCV_PBE.upf':
  'Co' pseudopotential, 'PBE' functional
  Generated using ONCVPSP code by D. R. Hamann
  Author: Martin Schlipf and Francois Gygi  Date: 150915.
  17 valence electrons, 4 orbitals, 6 projectors, 1388 radial grid points, with lMax = 2
  Transforming local potential to a uniform radial grid of dG=0.02 with 1419 points.
  Transforming nonlocal projectors to a uniform radial grid of dG=0.02 with 528 points.
    3S    l: 0   occupation:  2.0   eigenvalue: -3.763303
    3P    l: 1   occupation:  6.0   eigenvalue: -2.412101
    4S    l: 0   occupation:  2.0   eigenvalue: -0.201022
    3D    l: 2   occupation:  7.0   eigenvalue: -0.301498
  Transforming atomic orbitals to a uniform radial grid of dG=0.02 with 528 points.
  Core radius for overlap checks: 1.94 bohrs.
  Reading pulay file /data2/jt577/jdftx_eat_withLibXC/build/pseudopotentials/SG15/Co_ONCV_PBE.pulay ... using dE_dnG = -9.787391e-05 computed for Ecut = 30.

Reading pseudopotential file '/data2/jt577/jdftx_eat_withLibXC/build/pseudopotentials/SG15/Cr_ONCV_PBE.upf':
  'Cr' pseudopotential, 'PBE' functional
  Generated using ONCVPSP code by D. R. Hamann
  Author: Martin Schlipf and Francois Gygi  Date: 150915.
  14 valence electrons, 4 orbitals, 6 projectors, 1160 radial grid points, with lMax = 2
  Transforming local potential to a uniform radial grid of dG=0.02 with 1419 points.
  Transforming nonlocal projectors to a uniform radial grid of dG=0.02 with 528 points.
    3S    l: 0   occupation:  2.0   eigenvalue: -2.865131
    3P    l: 1   occupation:  6.0   eigenvalue: -1.810600
    4S    l: 0   occupation:  2.0   eigenvalue: -0.180525
    3D    l: 2   occupation:  4.0   eigenvalue: -0.220312
  Transforming atomic orbitals to a uniform radial grid of dG=0.02 with 528 points.
  WARNING: large normalization error in atomic orbital 1s (integral: 0.000001).
  Core radius for overlap checks: 2.10 bohrs.
  Reading pulay file /data2/jt577/jdftx_eat_withLibXC/build/pseudopotentials/SG15/Cr_ONCV_PBE.pulay ... using dE_dnG = -9.817895e-06 computed for Ecut = 30.

Reading pseudopotential file '/data2/jt577/jdftx_eat_withLibXC/build/pseudopotentials/SG15/O_ONCV_PBE.upf':
  'O' pseudopotential, 'PBE' functional
  Generated using ONCVPSP code by D. R. Hamann
  Author: Martin Schlipf and Francois Gygi  Date: 150915.
  6 valence electrons, 2 orbitals, 4 projectors, 936 radial grid points, with lMax = 1
  Transforming local potential to a uniform radial grid of dG=0.02 with 1419 points.
  Transforming nonlocal projectors to a uniform radial grid of dG=0.02 with 528 points.
    2S    l: 0   occupation:  2.0   eigenvalue: -0.880572
    2P    l: 1   occupation:  4.0   eigenvalue: -0.331869
  Transforming atomic orbitals to a uniform radial grid of dG=0.02 with 528 points.
  Core radius for overlap checks: 1.29 bohrs.
  Reading pulay file /data2/jt577/jdftx_eat_withLibXC/build/pseudopotentials/SG15/O_ONCV_PBE.pulay ... using dE_dnG = -8.209514e-03 computed for Ecut = 30.

Initialized 5 species with 33 total atoms.

Folded 1 k-points by 3x3x1 to 9 k-points.

---------- Setting up k-points, bands, fillings ----------
No reducable k-points. 
Computing the number of bands and number of electrons
Calculating initial fillings.
nElectrons: 347.000000   nBands: 228   nStates: 18

----- Setting up reduced wavefunction bases (one per k-point) -----
average nbasis = 42312.000 , ideal nbasis = 42330.081

---------- Setting up ewald sum ----------
Optimum gaussian width for ewald sums = 3.906449 bohr.
Real space sum over 605 unit cells with max indices [  5  5  2  ]
Reciprocal space sum over 5915 terms with max indices [  6  6  17  ]

---------- Allocating electronic variables ----------
Initializing wave functions:  linear combination of atomic orbitals
Ni (M=1) pseudo-atom majority spin occupations:   s ( 1 0.5 )  p ( 3 )  d ( 5 )
Ni (M=1) pseudo-atom minority spin occupations:   s ( 1 0 )  p ( 3 )  d ( 4.5 )
V (M=1) pseudo-atom majority spin occupations:   s ( 1 0 )  p ( 3 )  d ( 3 )
V (M=1) pseudo-atom minority spin occupations:   s ( 1 0 )  p ( 3 )  d ( 2 )
Co (M=1) pseudo-atom majority spin occupations:   s ( 1 0 )  p ( 3 )  d ( 5 )
Co (M=1) pseudo-atom minority spin occupations:   s ( 1 0 )  p ( 3 )  d ( 4 )
Cr (M=1) pseudo-atom majority spin occupations:   s ( 1 0 )  p ( 3 )  d ( 3.5 )
Cr (M=1) pseudo-atom minority spin occupations:   s ( 1 0 )  p ( 3 )  d ( 2.5 )
O pseudo-atom occupations:   s ( 2 )  p ( 4 )
	FillingsUpdate:  mu: +0.286046400  nElectrons: 347.000000  magneticMoment: [ Abs: 6.32533  Tot: +0.00000 ]
LCAOMinimize: Iter:   0  F: -1871.7607308328865656  |grad|_K:  3.465e-02  alpha:  1.000e+00
LCAOMinimize: 	Step increased F by 2.756818e+02, reducing alpha to 3.329382e-02.
	FillingsUpdate:  mu: +0.146750723  nElectrons: 347.000000  magneticMoment: [ Abs: 5.85248  Tot: -0.00000 ]
LCAOMinimize: Iter:   1  F: -1896.2789366142681047  |grad|_K:  1.953e-02  alpha:  3.329e-02  linmin: -6.785e-02  cgtest:  2.531e-01  t[s]:     53.35
LCAOMinimize: 	Predicted alpha/alphaT>3.000000, increasing alphaT to 9.988146e-02.
	FillingsUpdate:  mu: +0.827949981  nElectrons: 347.000000  magneticMoment: [ Abs: 13.34563  Tot: +0.00000 ]
LCAOMinimize: Iter:   2  F: -1908.7305272269265970  |grad|_K:  4.090e-02  alpha:  4.434e-02  linmin:  2.082e-02  cgtest: -1.291e-01  t[s]:     72.38
LCAOMinimize: 	Bad step direction: g.d > 0.
LCAOMinimize: 	Undoing step.
LCAOMinimize: 	Step failed: resetting search direction.
	FillingsUpdate:  mu: +0.827949981  nElectrons: 347.000000  magneticMoment: [ Abs: 13.34563  Tot: +0.00000 ]
LCAOMinimize: Iter:   3  F: -1908.7305272269302350  |grad|_K:  4.090e-02  alpha:  0.000e+00
	FillingsUpdate:  mu: +0.305549057  nElectrons: 347.000000  magneticMoment: [ Abs: 11.91786  Tot: -0.00000 ]
LCAOMinimize: Iter:   4  F: -1917.2838858918441929  |grad|_K:  3.525e-02  alpha:  1.768e-02  linmin:  8.036e-02  cgtest: -6.349e-01  t[s]:     97.76
LCAOMinimize: 	Bad step direction: g.d > 0.
LCAOMinimize: 	Undoing step.
LCAOMinimize: 	Step failed: resetting search direction.
	FillingsUpdate:  mu: +0.305549057  nElectrons: 347.000000  magneticMoment: [ Abs: 11.91786  Tot: -0.00000 ]
LCAOMinimize: Iter:   5  F: -1917.2838858918405549  |grad|_K:  3.525e-02  alpha:  0.000e+00
	FillingsUpdate:  mu: +0.298390641  nElectrons: 347.000000  magneticMoment: [ Abs: 13.62349  Tot: -0.00000 ]
LCAOMinimize: Iter:   6  F: -1921.7529265236109950  |grad|_K:  1.332e-02  alpha:  1.023e-02  linmin: -6.344e-02  cgtest:  1.254e+00  t[s]:    123.09
LCAOMinimize: Encountered beta<0, resetting CG.
LCAOMinimize: 	Wrong curvature in test step, increasing alphaT to 3.067663e-02.
	FillingsUpdate:  mu: +0.229320202  nElectrons: 347.000000  magneticMoment: [ Abs: 14.13026  Tot: +0.00000 ]
LCAOMinimize: Iter:   7  F: -1923.5559858278372758  |grad|_K:  1.141e-02  alpha: -9.788e-02  linmin: -4.172e-02  cgtest:  6.917e-01  t[s]:    136.83
	FillingsUpdate:  mu: +0.559420102  nElectrons: 347.000000  magneticMoment: [ Abs: 9.26663  Tot: +0.00000 ]
LCAOMinimize: Iter:   8  F: -1936.1941039626017300  |grad|_K:  1.527e-02  alpha:  1.316e-01  linmin:  1.017e-03  cgtest: -2.159e-01  t[s]:    151.48
	FillingsUpdate:  mu: +0.670494891  nElectrons: 347.000000  magneticMoment: [ Abs: 7.47674  Tot: +0.00000 ]
LCAOMinimize: Iter:   9  F: -1936.7772037653808184  |grad|_K:  1.830e-02  alpha:  9.748e-03  linmin: -1.829e-03  cgtest:  8.979e-01  t[s]:    166.10
LCAOMinimize: 	Predicted alpha/alphaT>3.000000, increasing alphaT to 2.924546e-02.
	FillingsUpdate:  mu: +0.519946343  nElectrons: 347.000000  magneticMoment: [ Abs: 13.38318  Tot: -0.00000 ]
LCAOMinimize: Iter:  10  F: -1937.3042706457090389  |grad|_K:  3.144e-02  alpha:  4.224e-02  linmin:  4.762e-02  cgtest:  1.867e-01  t[s]:    185.31
LCAOMinimize: 	Bad step direction: g.d > 0.
LCAOMinimize: 	Undoing step.
LCAOMinimize: 	Step failed: resetting search direction.
	FillingsUpdate:  mu: +0.519946343  nElectrons: 347.000000  magneticMoment: [ Abs: 13.38318  Tot: -0.00000 ]
LCAOMinimize: Iter:  11  F: -1937.3042706457090389  |grad|_K:  3.144e-02  alpha:  0.000e+00
	FillingsUpdate:  mu: +0.208638350  nElectrons: 347.000000  magneticMoment: [ Abs: 13.09846  Tot: +0.00000 ]
LCAOMinimize: Iter:  12  F: -1945.2158338701492539  |grad|_K:  1.790e-02  alpha:  1.695e-02  linmin:  6.709e-02  cgtest: -6.165e-01  t[s]:    210.61
LCAOMinimize: 	Predicted alpha/alphaT>3.000000, increasing alphaT to 5.085986e-02.
	FillingsUpdate:  mu: +0.297568422  nElectrons: 347.000000  magneticMoment: [ Abs: 12.53141  Tot: -0.00000 ]
LCAOMinimize: Iter:  13  F: -1948.3774674368162323  |grad|_K:  1.144e-02  alpha:  2.618e-02  linmin: -4.139e-02  cgtest:  8.788e-01  t[s]:    229.61
LCAOMinimize: Encountered beta<0, resetting CG.
	FillingsUpdate:  mu: +0.230325775  nElectrons: 347.000000  magneticMoment: [ Abs: 13.62889  Tot: -0.00000 ]
LCAOMinimize: Iter:  14  F: -1949.5993715216234250  |grad|_K:  5.628e-03  alpha:  1.568e-02  linmin: -5.687e-02  cgtest:  3.360e-01  t[s]:    244.42
	FillingsUpdate:  mu: +0.054517442  nElectrons: 347.000000  magneticMoment: [ Abs: 15.27543  Tot: -0.00000 ]
LCAOMinimize: Iter:  15  F: -1950.0422993669753851  |grad|_K:  4.348e-03  alpha:  2.865e-02  linmin:  2.935e-02  cgtest: -4.838e-01  t[s]:    259.38
	FillingsUpdate:  mu: +0.044054421  nElectrons: 347.000000  magneticMoment: [ Abs: 15.99718  Tot: +0.00000 ]
LCAOMinimize: Iter:  16  F: -1950.0851409788733690  |grad|_K:  4.408e-03  alpha:  6.875e-03  linmin: -1.132e-03  cgtest:  8.851e-01  t[s]:    274.44
	FillingsUpdate:  mu: +0.147951876  nElectrons: 347.000000  magneticMoment: [ Abs: 16.19600  Tot: -0.00000 ]
LCAOMinimize: Iter:  17  F: -1950.2033716646969879  |grad|_K:  4.066e-03  alpha:  1.703e-02  linmin:  4.166e-02  cgtest: -3.143e-01  t[s]:    289.32
	FillingsUpdate:  mu: +0.155877125  nElectrons: 347.000000  magneticMoment: [ Abs: 16.22642  Tot: +0.00000 ]
LCAOMinimize: Iter:  18  F: -1950.2189834362286547  |grad|_K:  4.036e-03  alpha:  5.184e-03  linmin:  8.058e-04  cgtest:  9.331e-01  t[s]:    304.20
	FillingsUpdate:  mu: +0.119256371  nElectrons: 347.000000  magneticMoment: [ Abs: 16.20185  Tot: +0.00000 ]
LCAOMinimize: Iter:  19  F: -1950.2843724491208377  |grad|_K:  1.625e-03  alpha:  8.384e-03  linmin: -1.167e-02  cgtest:  8.860e-02  t[s]:    319.38
LCAOMinimize: 	Predicted alpha/alphaT>3.000000, increasing alphaT to 2.515265e-02.
	FillingsUpdate:  mu: +0.097035549  nElectrons: 347.000000  magneticMoment: [ Abs: 16.46910  Tot: +0.00000 ]
LCAOMinimize: Iter:  20  F: -1950.3348534865156125  |grad|_K:  1.816e-03  alpha:  3.863e-02  linmin: -2.265e-03  cgtest: -4.033e-02  t[s]:    338.78
	FillingsUpdate:  mu: +0.101374237  nElectrons: 347.000000  magneticMoment: [ Abs: 17.28593  Tot: +0.00000 ]
LCAOMinimize: Iter:  21  F: -1950.4464360515348744  |grad|_K:  2.296e-03  alpha:  6.760e-02  linmin: -3.250e-04  cgtest:  3.781e-02  t[s]:    353.69
	FillingsUpdate:  mu: +0.116285703  nElectrons: 347.000000  magneticMoment: [ Abs: 17.93238  Tot: -0.00000 ]
LCAOMinimize: Iter:  22  F: -1950.4869228298503003  |grad|_K:  1.494e-03  alpha:  1.784e-02  linmin:  2.461e-03  cgtest: -7.808e-02  t[s]:    368.48
	FillingsUpdate:  mu: +0.111356785  nElectrons: 347.000000  magneticMoment: [ Abs: 19.02227  Tot: +0.00000 ]
LCAOMinimize: Iter:  23  F: -1950.5267356587564791  |grad|_K:  1.071e-03  alpha:  4.065e-02  linmin: -2.143e-03  cgtest:  2.871e-01  t[s]:    383.33
	FillingsUpdate:  mu: +0.116528788  nElectrons: 347.000000  magneticMoment: [ Abs: 20.38451  Tot: -0.00000 ]
LCAOMinimize: Iter:  24  F: -1950.6039836697975716  |grad|_K:  1.700e-03  alpha:  1.178e-01  linmin: -4.494e-03  cgtest:  9.540e-02  t[s]:    398.15
	FillingsUpdate:  mu: +0.112517675  nElectrons: 347.000000  magneticMoment: [ Abs: 21.12147  Tot: +0.00000 ]
LCAOMinimize: Iter:  25  F: -1950.6505716444858081  |grad|_K:  1.686e-03  alpha:  3.150e-02  linmin:  1.542e-03  cgtest: -4.593e-01  t[s]:    413.21
	FillingsUpdate:  mu: +0.129396953  nElectrons: 347.000000  magneticMoment: [ Abs: 22.07606  Tot: +0.00000 ]
LCAOMinimize: Iter:  26  F: -1950.6797961578445211  |grad|_K:  1.457e-03  alpha:  2.631e-02  linmin: -5.825e-05  cgtest:  7.702e-01  t[s]:    428.26
	FillingsUpdate:  mu: +0.122846180  nElectrons: 347.000000  magneticMoment: [ Abs: 22.30084  Tot: -0.00000 ]
LCAOMinimize: Iter:  27  F: -1950.6975881643547837  |grad|_K:  8.933e-04  alpha:  1.852e-02  linmin: -1.103e-03  cgtest:  4.763e-03  t[s]:    443.22
	FillingsUpdate:  mu: +0.113076993  nElectrons: 347.000000  magneticMoment: [ Abs: 22.50276  Tot: +0.00000 ]
LCAOMinimize: Iter:  28  F: -1950.7117944500321300  |grad|_K:  7.358e-04  alpha:  3.581e-02  linmin: -8.608e-03  cgtest:  2.104e-02  t[s]:    458.11
	FillingsUpdate:  mu: +0.120338376  nElectrons: 347.000000  magneticMoment: [ Abs: 23.19756  Tot: -0.00000 ]
LCAOMinimize: Iter:  29  F: -1950.7377784410057302  |grad|_K:  5.458e-04  alpha:  9.450e-02  linmin:  1.743e-03  cgtest: -2.499e-01  t[s]:    472.72
	FillingsUpdate:  mu: +0.117769038  nElectrons: 347.000000  magneticMoment: [ Abs: 23.99373  Tot: -0.00000 ]
LCAOMinimize: Iter:  30  F: -1950.7540582275455563  |grad|_K:  5.873e-04  alpha:  1.150e-01  linmin: -6.178e-03  cgtest:  3.866e-01  t[s]:    487.57
LCAOMinimize: None of the convergence criteria satisfied after 30 iterations.


---- Citations for features of the code used in this run ----

   Software package:
      R. Sundararaman, K. Letchworth-Weaver, K.A. Schwarz, D. Gunceler, Y. Ozhabes and T.A. Arias, 'JDFTx: software for joint density-functional theory', SoftwareX 6, 278 (2017)

   Simplified rotationally-invariant DFT+U:
      S. L. Dudarev et al., Phys. Rev. B 57, 1505 (1998)

   LibXC library of exchange-correlation functions:
      M. A. L. Marques, M. J. T. Oliveira and T. Burnus, Comput. Phys. Commun. 183, 2272 (2012)

   Hammer, Hansen, and Norskov exchange functional:
      B. Hammer, L. B. Hansen, and J. K. Nørskov, Phys. Rev. B 59, 7413 (1999)

   Perdew, Burke & Ernzerhof correlation functional:
      J. P. Perdew, K. Burke, and M. Ernzerhof, Phys. Rev. Lett. 77, 3865 (1996)

   Pseudopotentials:
      M Schlipf and F Gygi, Comput. Phys. Commun. 196, 36 (2015)

   Total energy minimization with Auxiliary Hamiltonian:
      C. Freysoldt, S. Boeck, and J. Neugebauer, Phys. Rev. B 79, 241103(R) (2009)

This list may not be complete. Please suggest additional citations or
report any other bugs at https://github.com/shankar1729/jdftx/issues

Initialization completed successfully at t[s]:    494.24


-------- Electronic minimization -----------
	FillingsUpdate:  mu: +0.117769093  nElectrons: 347.000000  magneticMoment: [ Abs: 23.99373  Tot: -0.00000 ]
ElecMinimize: Iter:   0  F: -1950.754058227547375  |grad|_K:  7.692e-04  alpha:  1.000e+00
	FillingsUpdate:  mu: +0.310978157  nElectrons: 347.000000  magneticMoment: [ Abs: 25.36289  Tot: +0.00000 ]
	SubspaceRotationAdjust: set factor to 0.994
ElecMinimize: Iter:   1  F: -1977.937990082920578  |grad|_K:  9.173e-04  alpha:  4.671e-01  linmin:  6.985e-03  t[s]:    583.05
	FillingsUpdate:  mu: +0.461127049  nElectrons: 347.000000  magneticMoment: [ Abs: 26.56979  Tot: +0.00000 ]
	SubspaceRotationAdjust: set factor to 0.831
ElecMinimize: Iter:   2  F: -1982.798770640076100  |grad|_K:  8.645e-04  alpha:  7.945e-02  linmin:  1.649e-04  t[s]:    649.79
	FillingsUpdate:  mu: +0.316176679  nElectrons: 347.000000  magneticMoment: [ Abs: 25.63145  Tot: +0.00000 ]
	SubspaceRotationAdjust: set factor to 0.487
ElecMinimize: Iter:   3  F: -1987.184955310702207  |grad|_K:  8.134e-04  alpha:  3.584e-02  linmin:  1.120e-03  t[s]:    726.46
	FillingsUpdate:  mu: +0.403407153  nElectrons: 347.000000  magneticMoment: [ Abs: 30.16900  Tot: +0.00000 ]
	SubspaceRotationAdjust: set factor to 0.478
ElecMinimize: Iter:   4  F: -1994.034698593955000  |grad|_K:  5.710e-04  alpha:  9.591e-02  linmin:  1.183e-03  t[s]:    804.76
	FillingsUpdate:  mu: +0.372625064  nElectrons: 347.000000  magneticMoment: [ Abs: 30.35727  Tot: +0.00000 ]
	SubspaceRotationAdjust: set factor to 0.509
ElecMinimize: Iter:   5  F: -1995.032002244877276  |grad|_K:  5.129e-04  alpha:  1.184e-02  linmin: -2.791e-03  t[s]:    881.77
	FillingsUpdate:  mu: +0.558906585  nElectrons: 347.000000  magneticMoment: [ Abs: 30.29148  Tot: -0.00000 ]
	SubspaceRotationAdjust: set factor to 0.361
ElecMinimize: Iter:   6  F: -1996.914287034619520  |grad|_K:  6.224e-04  alpha:  2.451e-02  linmin:  9.452e-04  t[s]:    960.19
	FillingsUpdate:  mu: +0.631357908  nElectrons: 347.000000  magneticMoment: [ Abs: 29.86949  Tot: +0.00000 ]
	SubspaceRotationAdjust: set factor to 0.238
ElecMinimize: Iter:   7  F: -1997.288072050381288  |grad|_K:  6.501e-04  alpha:  7.633e-03  linmin:  1.219e-04  t[s]:   1038.79
	FillingsUpdate:  mu: +0.518476717  nElectrons: 347.000000  magneticMoment: [ Abs: 29.89108  Tot: +0.00000 ]
	SubspaceRotationAdjust: set factor to 0.164
ElecMinimize: Iter:   8  F: -1997.960350156108689  |grad|_K:  5.582e-04  alpha:  1.039e-02  linmin:  7.569e-04  t[s]:   1112.67
	FillingsUpdate:  mu: +0.431233946  nElectrons: 347.000000  magneticMoment: [ Abs: 30.05265  Tot: -0.00000 ]
	SubspaceRotationAdjust: set factor to 0.127
	SubspaceRotationAdjust: resetting CG because factor has changed by 0.126851
ElecMinimize: 	State modified externally: resetting search direction.
ElecMinimize: Iter:   9  F: -1998.268238823399997  |grad|_K:  4.276e-04  alpha:  6.222e-03
ElecMinimize: 	Predicted alpha/alphaT>3.000000, increasing alphaT to 1.866518e-02.
ElecMinimize: 	Predicted alpha/alphaT>3.000000, increasing alphaT to 5.599554e-02.
	FillingsUpdate:  mu: +0.118387047  nElectrons: 347.000000  magneticMoment: [ Abs: 30.49289  Tot: +0.00000 ]
	SubspaceRotationAdjust: set factor to 0.0525
ElecMinimize: Iter:  10  F: -2002.140179369712087  |grad|_K:  2.241e-04  alpha:  1.364e-01  linmin:  1.490e-02  t[s]:   1346.36
	FillingsUpdate:  mu: +0.125719653  nElectrons: 347.000000  magneticMoment: [ Abs: 30.31734  Tot: -0.00000 ]
	SubspaceRotationAdjust: set factor to 0.0295
ElecMinimize: Iter:  11  F: -2003.361302024968609  |grad|_K:  8.941e-05  alpha:  1.689e-01  linmin:  4.865e-03  t[s]:   1423.36
	FillingsUpdate:  mu: +0.138970800  nElectrons: 347.000000  magneticMoment: [ Abs: 30.27250  Tot: +0.00000 ]
	SubspaceRotationAdjust: set factor to 0.0442
ElecMinimize: Iter:  12  F: -2003.748503311044487  |grad|_K:  5.124e-05  alpha:  3.155e-01  linmin: -6.328e-04  t[s]:   1502.64
	FillingsUpdate:  mu: +0.130662502  nElectrons: 347.000000  magneticMoment: [ Abs: 30.32835  Tot: +0.00000 ]
	SubspaceRotationAdjust: set factor to 0.0475
ElecMinimize: Iter:  13  F: -2003.926922750821177  |grad|_K:  3.724e-05  alpha:  3.794e-01  linmin: -5.436e-04  t[s]:   1581.88
	FillingsUpdate:  mu: +0.137148217  nElectrons: 347.000000  magneticMoment: [ Abs: 30.38879  Tot: +0.00000 ]
	SubspaceRotationAdjust: set factor to 0.0583
ElecMinimize: Iter:  14  F: -2004.040929500027687  |grad|_K:  3.286e-05  alpha:  4.564e-01  linmin: -1.761e-04  t[s]:   1662.09
	FillingsUpdate:  mu: +0.121632829  nElectrons: 347.000000  magneticMoment: [ Abs: 30.52015  Tot: +0.00000 ]
	SubspaceRotationAdjust: set factor to 0.068
ElecMinimize: Iter:  15  F: -2004.123206197641139  |grad|_K:  3.054e-05  alpha:  4.277e-01  linmin: -1.960e-04  t[s]:   1731.17
	FillingsUpdate:  mu: +0.127574087  nElectrons: 347.000000  magneticMoment: [ Abs: 30.74582  Tot: -0.00000 ]
	SubspaceRotationAdjust: set factor to 0.0824
ElecMinimize: Iter:  16  F: -2004.199184052731653  |grad|_K:  2.895e-05  alpha:  4.474e-01  linmin: -2.564e-04  t[s]:   1807.89
	FillingsUpdate:  mu: +0.147442872  nElectrons: 347.000000  magneticMoment: [ Abs: 31.07995  Tot: -0.00000 ]
	SubspaceRotationAdjust: set factor to 0.0984
ElecMinimize: Iter:  17  F: -2004.269081604299799  |grad|_K:  2.869e-05  alpha:  4.404e-01  linmin: -2.487e-04  t[s]:   1887.89
	FillingsUpdate:  mu: +0.143030149  nElectrons: 347.000000  magneticMoment: [ Abs: 31.68572  Tot: -0.00000 ]
	SubspaceRotationAdjust: set factor to 0.116
ElecMinimize: Iter:  18  F: -2004.350590133926062  |grad|_K:  3.210e-05  alpha:  5.033e-01  linmin: -2.124e-04  t[s]:   1967.82
	FillingsUpdate:  mu: +0.129441522  nElectrons: 347.000000  magneticMoment: [ Abs: 32.62467  Tot: -0.00000 ]
	SubspaceRotationAdjust: set factor to 0.127
ElecMinimize: Iter:  19  F: -2004.464184685064765  |grad|_K:  3.976e-05  alpha:  5.436e-01  linmin: -1.108e-04  t[s]:   2044.67
	FillingsUpdate:  mu: +0.125090018  nElectrons: 347.000000  magneticMoment: [ Abs: 33.96787  Tot: +0.00000 ]
	SubspaceRotationAdjust: set factor to 0.149
ElecMinimize: Iter:  20  F: -2004.592913438667438  |grad|_K:  4.878e-05  alpha:  4.013e-01  linmin: -6.420e-05  t[s]:   2123.67
ElecMinimize: 	Step increased F by 4.089834e-02, reducing alpha to 1.555919e-03.
ElecMinimize: 	Step increased F by 5.463562e-02, reducing alpha to 1.555919e-04.
ElecMinimize: 	Step increased F by 5.604712e-02, reducing alpha to 1.555919e-05.
ElecMinimize: 	Step failed to reduce F after 3 attempts. Quitting step.
ElecMinimize: 	Undoing step.
ElecMinimize: 	Step failed: resetting search direction.
	FillingsUpdate:  mu: +0.122134394  nElectrons: 347.000000  magneticMoment: [ Abs: 33.96488  Tot: -0.00000 ]
	SubspaceRotationAdjust: set factor to 0.174
ElecMinimize: Iter:  21  F: -2004.536850592289966  |grad|_K:  5.051e-05  alpha:  1.556e-05
	FillingsUpdate:  mu: +0.163019935  nElectrons: 347.000000  magneticMoment: [ Abs: 33.90668  Tot: +0.00000 ]
	SubspaceRotationAdjust: set factor to 0.131
ElecMinimize: Iter:  22  F: -2004.620979113124577  |grad|_K:  3.716e-05  alpha:  2.109e-01  linmin:  1.328e-03  t[s]:   2416.46
	FillingsUpdate:  mu: +0.126131079  nElectrons: 347.000000  magneticMoment: [ Abs: 34.12254  Tot: -0.00000 ]
	SubspaceRotationAdjust: set factor to 0.108
ElecMinimize: Iter:  23  F: -2004.685325352843165  |grad|_K:  3.154e-05  alpha:  2.782e-01  linmin:  7.452e-05  t[s]:   2490.83
	FillingsUpdate:  mu: +0.131024468  nElectrons: 347.000000  magneticMoment: [ Abs: 34.69455  Tot: -0.00000 ]
	SubspaceRotationAdjust: set factor to 0.127
ElecMinimize: Iter:  24  F: -2004.766110641678324  |grad|_K:  2.620e-05  alpha:  4.571e-01  linmin: -5.171e-04  t[s]:   2570.93
	FillingsUpdate:  mu: +0.150821141  nElectrons: 347.000000  magneticMoment: [ Abs: 35.40059  Tot: -0.00000 ]
	SubspaceRotationAdjust: set factor to 0.139
ElecMinimize: Iter:  25  F: -2004.822904314182324  |grad|_K:  2.912e-05  alpha:  4.464e-01  linmin: -1.043e-04  t[s]:   2651.39
	FillingsUpdate:  mu: +0.123537808  nElectrons: 347.000000  magneticMoment: [ Abs: 35.80279  Tot: +0.00000 ]
	SubspaceRotationAdjust: set factor to 0.15
ElecMinimize: Iter:  26  F: -2004.856219975385102  |grad|_K:  2.416e-05  alpha:  1.683e-01  linmin: -1.273e-03  t[s]:   2731.76
	FillingsUpdate:  mu: +0.116988546  nElectrons: 347.000000  magneticMoment: [ Abs: 36.09422  Tot: +0.00000 ]
	SubspaceRotationAdjust: set factor to 0.126
ElecMinimize: Iter:  27  F: -2004.879683117104832  |grad|_K:  2.607e-05  alpha:  1.882e-01  linmin: -3.989e-04  t[s]:   2809.83
	FillingsUpdate:  mu: +0.120025824  nElectrons: 347.000000  magneticMoment: [ Abs: 36.41329  Tot: -0.00000 ]
	SubspaceRotationAdjust: set factor to 0.127
ElecMinimize: Iter:  28  F: -2004.904368742935731  |grad|_K:  2.879e-05  alpha:  1.935e-01  linmin:  7.561e-05  t[s]:   2889.01
	FillingsUpdate:  mu: +0.150839387  nElectrons: 347.000000  magneticMoment: [ Abs: 36.92214  Tot: +0.00000 ]
	SubspaceRotationAdjust: set factor to 0.133
ElecMinimize: Iter:  29  F: -2004.931627631612628  |grad|_K:  2.891e-05  alpha:  1.937e-01  linmin:  5.239e-06  t[s]:   2962.64
	FillingsUpdate:  mu: +0.132676650  nElectrons: 347.000000  magneticMoment: [ Abs: 37.32978  Tot: +0.00000 ]
	SubspaceRotationAdjust: set factor to 0.159
ElecMinimize: Iter:  30  F: -2004.952628312527850  |grad|_K:  2.568e-05  alpha:  1.476e-01  linmin: -5.002e-05  t[s]:   3041.04
	FillingsUpdate:  mu: +0.120040392  nElectrons: 347.000000  magneticMoment: [ Abs: 37.61936  Tot: -0.00000 ]
	SubspaceRotationAdjust: set factor to 0.171
ElecMinimize: Iter:  31  F: -2004.970899274508611  |grad|_K:  2.326e-05  alpha:  1.570e-01  linmin:  6.874e-05  t[s]:   3119.89
	FillingsUpdate:  mu: +0.118275599  nElectrons: 347.000000  magneticMoment: [ Abs: 37.77721  Tot: -0.00000 ]
	SubspaceRotationAdjust: set factor to 0.176
ElecMinimize: Iter:  32  F: -2004.982857243551962  |grad|_K:  2.031e-05  alpha:  1.282e-01  linmin:  4.369e-05  t[s]:   3199.83
	FillingsUpdate:  mu: +0.129882451  nElectrons: 347.000000  magneticMoment: [ Abs: 37.88366  Tot: +0.00000 ]
	SubspaceRotationAdjust: set factor to 0.23
ElecMinimize: Iter:  33  F: -2004.991198088654983  |grad|_K:  1.716e-05  alpha:  1.175e-01  linmin: -1.363e-05  t[s]:   3277.01
	FillingsUpdate:  mu: +0.130579873  nElectrons: 347.000000  magneticMoment: [ Abs: 37.98336  Tot: +0.00000 ]
	SubspaceRotationAdjust: set factor to 0.251
ElecMinimize: Iter:  34  F: -2004.996506364352626  |grad|_K:  1.472e-05  alpha:  1.029e-01  linmin:  2.716e-05  t[s]:   3356.10
	FillingsUpdate:  mu: +0.125447795  nElectrons: 347.000000  magneticMoment: [ Abs: 38.10819  Tot: -0.00000 ]
	SubspaceRotationAdjust: set factor to 0.228
ElecMinimize: Iter:  35  F: -2005.000709907263854  |grad|_K:  1.430e-05  alpha:  1.123e-01  linmin:  8.240e-05  t[s]:   3435.23
	FillingsUpdate:  mu: +0.120528837  nElectrons: 347.000000  magneticMoment: [ Abs: 38.20234  Tot: +0.00000 ]
	SubspaceRotationAdjust: set factor to 0.261
ElecMinimize: Iter:  36  F: -2005.003691925109479  |grad|_K:  1.124e-05  alpha:  8.495e-02  linmin: -2.073e-05  t[s]:   3513.22
	FillingsUpdate:  mu: +0.119553174  nElectrons: 347.000000  magneticMoment: [ Abs: 38.27331  Tot: -0.00000 ]
	SubspaceRotationAdjust: set factor to 0.196
ElecMinimize: Iter:  37  F: -2005.006164420104142  |grad|_K:  1.266e-05  alpha:  1.120e-01  linmin: -5.189e-05  t[s]:   3590.88
	FillingsUpdate:  mu: +0.121597039  nElectrons: 347.000000  magneticMoment: [ Abs: 38.38790  Tot: -0.00000 ]
	SubspaceRotationAdjust: set factor to 0.193
ElecMinimize: Iter:  38  F: -2005.009223626598668  |grad|_K:  1.077e-05  alpha:  1.091e-01  linmin: -1.361e-04  t[s]:   3665.95
	FillingsUpdate:  mu: +0.123178143  nElectrons: 347.000000  magneticMoment: [ Abs: 38.52454  Tot: +0.00000 ]
	SubspaceRotationAdjust: set factor to 0.2
ElecMinimize: Iter:  39  F: -2005.011737104694248  |grad|_K:  1.014e-05  alpha:  1.217e-01  linmin: -4.762e-04  t[s]:   3746.65
	FillingsUpdate:  mu: +0.128083274  nElectrons: 347.000000  magneticMoment: [ Abs: 38.75166  Tot: -0.00000 ]
	SubspaceRotationAdjust: set factor to 0.186
ElecMinimize: Iter:  40  F: -2005.015090356678002  |grad|_K:  1.058e-05  alpha:  1.835e-01  linmin:  5.585e-04  t[s]:   3828.23
	FillingsUpdate:  mu: +0.131801233  nElectrons: 347.000000  magneticMoment: [ Abs: 38.92957  Tot: -0.00000 ]
	SubspaceRotationAdjust: set factor to 0.217
ElecMinimize: Iter:  41  F: -2005.017517550773846  |grad|_K:  1.089e-05  alpha:  1.300e-01  linmin: -8.836e-05  t[s]:   3903.19
	FillingsUpdate:  mu: +0.130672255  nElectrons: 347.000000  magneticMoment: [ Abs: 39.15987  Tot: +0.00000 ]
	SubspaceRotationAdjust: set factor to 0.188
ElecMinimize: Iter:  42  F: -2005.020592594278469  |grad|_K:  1.277e-05  alpha:  1.479e-01  linmin:  1.066e-04  t[s]:   3984.11
	FillingsUpdate:  mu: +0.128170875  nElectrons: 347.000000  magneticMoment: [ Abs: 39.42240  Tot: -0.00000 ]
	SubspaceRotationAdjust: set factor to 0.242
ElecMinimize: Iter:  43  F: -2005.023645966067534  |grad|_K:  1.171e-05  alpha:  1.117e-01  linmin: -1.389e-04  t[s]:   4061.83
	FillingsUpdate:  mu: +0.129571877  nElectrons: 347.000000  magneticMoment: [ Abs: 39.70594  Tot: -0.00000 ]
	SubspaceRotationAdjust: set factor to 0.296
ElecMinimize: Iter:  44  F: -2005.027255294728775  |grad|_K:  1.144e-05  alpha:  1.445e-01  linmin: -3.646e-04  t[s]:   4140.11
	FillingsUpdate:  mu: +0.137576161  nElectrons: 347.000000  magneticMoment: [ Abs: 39.97339  Tot: +0.00000 ]
	SubspaceRotationAdjust: set factor to 0.32
ElecMinimize: Iter:  45  F: -2005.030790913378269  |grad|_K:  1.225e-05  alpha:  1.449e-01  linmin:  6.611e-05  t[s]:   4221.57
	FillingsUpdate:  mu: +0.133939857  nElectrons: 347.000000  magneticMoment: [ Abs: 40.30837  Tot: -0.00000 ]
	SubspaceRotationAdjust: set factor to 0.42
ElecMinimize: Iter:  46  F: -2005.034474243852401  |grad|_K:  1.242e-05  alpha:  1.429e-01  linmin:  3.466e-05  t[s]:   4298.79
	FillingsUpdate:  mu: +0.127897476  nElectrons: 347.000000  magneticMoment: [ Abs: 40.56660  Tot: +0.00000 ]
	SubspaceRotationAdjust: set factor to 0.454
ElecMinimize: Iter:  47  F: -2005.037409869762314  |grad|_K:  1.340e-05  alpha:  1.095e-01  linmin:  1.471e-05  t[s]:   4379.10
	FillingsUpdate:  mu: +0.121989462  nElectrons: 347.000000  magneticMoment: [ Abs: 40.85312  Tot: -0.00000 ]
	SubspaceRotationAdjust: set factor to 0.472
ElecMinimize: Iter:  48  F: -2005.041018769185030  |grad|_K:  1.537e-05  alpha:  1.158e-01  linmin: -6.654e-05  t[s]:   4456.03
	FillingsUpdate:  mu: +0.122328103  nElectrons: 347.000000  magneticMoment: [ Abs: 41.11399  Tot: +0.00000 ]
	SubspaceRotationAdjust: set factor to 0.513
ElecMinimize: Iter:  49  F: -2005.044323261452746  |grad|_K:  1.584e-05  alpha:  7.613e-02  linmin: -1.714e-05  t[s]:   4531.39
	FillingsUpdate:  mu: +0.122320218  nElectrons: 347.000000  magneticMoment: [ Abs: 41.49214  Tot: -0.00000 ]
	SubspaceRotationAdjust: set factor to 0.477
ElecMinimize: Iter:  50  F: -2005.048701910156751  |grad|_K:  1.950e-05  alpha:  1.026e-01  linmin:  3.580e-04  t[s]:   4610.83
	FillingsUpdate:  mu: +0.121631752  nElectrons: 347.000000  magneticMoment: [ Abs: 41.54169  Tot: +0.00000 ]
	SubspaceRotationAdjust: set factor to 0.461
ElecMinimize: Iter:  51  F: -2005.049531253216173  |grad|_K:  1.916e-05  alpha:  7.734e-03  linmin: -2.127e-03  t[s]:   4688.03
ElecMinimize: 	Predicted alpha/alphaT>3.000000, increasing alphaT to 2.320109e-02.
	FillingsUpdate:  mu: +0.117401345  nElectrons: 347.000000  magneticMoment: [ Abs: 41.80559  Tot: +0.00000 ]
	SubspaceRotationAdjust: set factor to 0.286
ElecMinimize: Iter:  52  F: -2005.051001178052275  |grad|_K:  3.013e-05  alpha:  4.128e-02  linmin:  9.584e-03  t[s]:   4795.50
ElecMinimize: 	Bad step direction: g.d > 0.
ElecMinimize: 	Undoing step.
ElecMinimize: 	Step failed: resetting search direction.
	FillingsUpdate:  mu: +0.117401345  nElectrons: 347.000000  magneticMoment: [ Abs: 41.80559  Tot: +0.00000 ]
	SubspaceRotationAdjust: set factor to 0.199
ElecMinimize: Iter:  53  F: -2005.051001178047045  |grad|_K:  2.512e-05  alpha:  0.000e+00
	FillingsUpdate:  mu: +0.124870005  nElectrons: 347.000000  magneticMoment: [ Abs: 41.84881  Tot: +0.00000 ]
	SubspaceRotationAdjust: set factor to 0.199
ElecMinimize: Iter:  54  F: -2005.063083771086212  |grad|_K:  1.369e-05  alpha:  9.243e-02  linmin: -1.864e-02  t[s]:   4922.82
	FillingsUpdate:  mu: +0.129110799  nElectrons: 347.000000  magneticMoment: [ Abs: 42.02245  Tot: -0.00000 ]
	SubspaceRotationAdjust: set factor to 0.159
ElecMinimize: Iter:  55  F: -2005.076188210314513  |grad|_K:  1.379e-05  alpha:  2.671e-01  linmin: -6.174e-03  t[s]:   5003.76
	FillingsUpdate:  mu: +0.141925825  nElectrons: 347.000000  magneticMoment: [ Abs: 42.17229  Tot: +0.00000 ]
	SubspaceRotationAdjust: set factor to 0.15
ElecMinimize: Iter:  56  F: -2005.091229662265505  |grad|_K:  1.181e-05  alpha:  3.436e-01  linmin: -3.261e-03  t[s]:   5082.52
	FillingsUpdate:  mu: +0.141055208  nElectrons: 347.000000  magneticMoment: [ Abs: 42.41396  Tot: -0.00000 ]
	SubspaceRotationAdjust: set factor to 0.134
ElecMinimize: Iter:  57  F: -2005.100763879611122  |grad|_K:  1.307e-05  alpha:  3.255e-01  linmin:  2.226e-03  t[s]:   5164.36
	FillingsUpdate:  mu: +0.143054821  nElectrons: 347.000000  magneticMoment: [ Abs: 42.59656  Tot: -0.00000 ]
	SubspaceRotationAdjust: set factor to 0.144
ElecMinimize: Iter:  58  F: -2005.106423774876021  |grad|_K:  1.379e-05  alpha:  2.251e-01  linmin: -4.103e-05  t[s]:   5243.91
	FillingsUpdate:  mu: +0.143583776  nElectrons: 347.000000  magneticMoment: [ Abs: 42.71704  Tot: +0.00000 ]
	SubspaceRotationAdjust: set factor to 0.173
ElecMinimize: Iter:  59  F: -2005.111862080021410  |grad|_K:  1.120e-05  alpha:  1.628e-01  linmin: -2.594e-05  t[s]:   5319.62
	FillingsUpdate:  mu: +0.141758591  nElectrons: 347.000000  magneticMoment: [ Abs: 42.87052  Tot: +0.00000 ]
	SubspaceRotationAdjust: set factor to 0.168
ElecMinimize: Iter:  60  F: -2005.116775930712720  |grad|_K:  1.270e-05  alpha:  2.228e-01  linmin: -2.853e-04  t[s]:   5399.27
	FillingsUpdate:  mu: +0.134208235  nElectrons: 347.000000  magneticMoment: [ Abs: 43.09215  Tot: +0.00000 ]
	SubspaceRotationAdjust: set factor to 0.211
ElecMinimize: Iter:  61  F: -2005.121495567384272  |grad|_K:  1.025e-05  alpha:  1.641e-01  linmin: -1.357e-04  t[s]:   5474.45
	FillingsUpdate:  mu: +0.137141292  nElectrons: 347.000000  magneticMoment: [ Abs: 43.29207  Tot: -0.00000 ]
	SubspaceRotationAdjust: set factor to 0.184
ElecMinimize: Iter:  62  F: -2005.124975922077738  |grad|_K:  1.259e-05  alpha:  1.936e-01  linmin:  1.478e-03  t[s]:   5551.80
	FillingsUpdate:  mu: +0.137070457  nElectrons: 347.000000  magneticMoment: [ Abs: 43.45757  Tot: -0.00000 ]
	SubspaceRotationAdjust: set factor to 0.169
ElecMinimize: Iter:  63  F: -2005.127626289094678  |grad|_K:  1.231e-05  alpha:  1.069e-01  linmin: -1.059e-04  t[s]:   5628.57
	FillingsUpdate:  mu: +0.133046613  nElectrons: 347.000000  magneticMoment: [ Abs: 43.57592  Tot: +0.00000 ]
	SubspaceRotationAdjust: set factor to 0.226
ElecMinimize: Iter:  64  F: -2005.130140708258750  |grad|_K:  1.029e-05  alpha:  9.421e-02  linmin:  3.704e-05  t[s]:   5707.60
	FillingsUpdate:  mu: +0.132791304  nElectrons: 347.000000  magneticMoment: [ Abs: 43.66767  Tot: -0.00000 ]
	SubspaceRotationAdjust: set factor to 0.214
ElecMinimize: Iter:  65  F: -2005.132366846885361  |grad|_K:  1.220e-05  alpha:  1.216e-01  linmin:  2.432e-05  t[s]:   5787.18
	FillingsUpdate:  mu: +0.131700104  nElectrons: 347.000000  magneticMoment: [ Abs: 43.77961  Tot: +0.00000 ]
	SubspaceRotationAdjust: set factor to 0.243
ElecMinimize: Iter:  66  F: -2005.135025154457935  |grad|_K:  1.135e-05  alpha:  1.032e-01  linmin: -5.375e-05  t[s]:   5863.18
	FillingsUpdate:  mu: +0.128777229  nElectrons: 347.000000  magneticMoment: [ Abs: 43.86195  Tot: +0.00000 ]
	SubspaceRotationAdjust: set factor to 0.278
ElecMinimize: Iter:  67  F: -2005.136919071578177  |grad|_K:  9.527e-06  alpha:  8.444e-02  linmin: -6.721e-05  t[s]:   5939.33
	FillingsUpdate:  mu: +0.130025677  nElectrons: 347.000000  magneticMoment: [ Abs: 43.93423  Tot: +0.00000 ]
	SubspaceRotationAdjust: set factor to 0.28
ElecMinimize: Iter:  68  F: -2005.138920239091249  |grad|_K:  1.145e-05  alpha:  1.236e-01  linmin: -2.929e-04  t[s]:   6015.11
	FillingsUpdate:  mu: +0.131774868  nElectrons: 347.000000  magneticMoment: [ Abs: 43.99495  Tot: +0.00000 ]
	SubspaceRotationAdjust: set factor to 0.38
ElecMinimize: Iter:  69  F: -2005.141595360366637  |grad|_K:  1.010e-05  alpha:  1.122e-01  linmin:  8.851e-05  t[s]:   6089.59
	FillingsUpdate:  mu: +0.137959402  nElectrons: 347.000000  magneticMoment: [ Abs: 44.03551  Tot: -0.00000 ]
	SubspaceRotationAdjust: set factor to 0.406
ElecMinimize: Iter:  70  F: -2005.143436680833474  |grad|_K:  1.149e-05  alpha:  1.050e-01  linmin:  1.107e-05  t[s]:   6164.55
	FillingsUpdate:  mu: +0.139269150  nElectrons: 347.000000  magneticMoment: [ Abs: 44.11592  Tot: +0.00000 ]
	SubspaceRotationAdjust: set factor to 0.532
ElecMinimize: Iter:  71  F: -2005.145753275342940  |grad|_K:  1.037e-05  alpha:  1.009e-01  linmin: -9.293e-06  t[s]:   6241.46
	FillingsUpdate:  mu: +0.132993535  nElectrons: 347.000000  magneticMoment: [ Abs: 44.17632  Tot: +0.00000 ]
	SubspaceRotationAdjust: set factor to 0.564
ElecMinimize: Iter:  72  F: -2005.147139878434245  |grad|_K:  9.262e-06  alpha:  7.516e-02  linmin: -7.209e-05  t[s]:   6318.61
	FillingsUpdate:  mu: +0.132509093  nElectrons: 347.000000  magneticMoment: [ Abs: 44.22652  Tot: -0.00000 ]
	SubspaceRotationAdjust: set factor to 0.604
ElecMinimize: Iter:  73  F: -2005.148961296610423  |grad|_K:  9.757e-06  alpha:  1.200e-01  linmin: -1.206e-04  t[s]:   6394.39
	FillingsUpdate:  mu: +0.130746896  nElectrons: 347.000000  magneticMoment: [ Abs: 44.22089  Tot: -0.00000 ]
	SubspaceRotationAdjust: set factor to 0.656
ElecMinimize: Iter:  74  F: -2005.150257549006938  |grad|_K:  8.111e-06  alpha:  7.656e-02  linmin: -1.995e-05  t[s]:   6469.55
	FillingsUpdate:  mu: +0.132579298  nElectrons: 347.000000  magneticMoment: [ Abs: 44.20289  Tot: -0.00000 ]
	SubspaceRotationAdjust: set factor to 0.606
ElecMinimize: Iter:  75  F: -2005.151502918805591  |grad|_K:  9.205e-06  alpha:  1.099e-01  linmin:  3.017e-04  t[s]:   6543.13
	FillingsUpdate:  mu: +0.132128206  nElectrons: 347.000000  magneticMoment: [ Abs: 44.20968  Tot: +0.00000 ]
	SubspaceRotationAdjust: set factor to 0.788
ElecMinimize: Iter:  76  F: -2005.152413684426620  |grad|_K:  7.297e-06  alpha:  6.609e-02  linmin:  3.538e-05  t[s]:   6620.29
	FillingsUpdate:  mu: +0.129907848  nElectrons: 347.000000  magneticMoment: [ Abs: 44.22775  Tot: +0.00000 ]
	SubspaceRotationAdjust: set factor to 0.828
ElecMinimize: Iter:  77  F: -2005.153397772694916  |grad|_K:  8.377e-06  alpha:  1.044e-01  linmin: -3.242e-04  t[s]:   6691.09
	FillingsUpdate:  mu: +0.133277722  nElectrons: 347.000000  magneticMoment: [ Abs: 44.22731  Tot: -0.00000 ]
	SubspaceRotationAdjust: set factor to 0.926
ElecMinimize: Iter:  78  F: -2005.154388497316177  |grad|_K:  6.584e-06  alpha:  7.756e-02  linmin: -1.519e-05  t[s]:   6766.24
	FillingsUpdate:  mu: +0.134619960  nElectrons: 347.000000  magneticMoment: [ Abs: 44.24088  Tot: -0.00000 ]
	SubspaceRotationAdjust: set factor to 0.973
	SubspaceRotationAdjust: resetting CG because factor has changed by 7.67313
ElecMinimize: 	State modified externally: resetting search direction.
ElecMinimize: Iter:  79  F: -2005.155241729283716  |grad|_K:  7.311e-06  alpha:  1.131e-01
	FillingsUpdate:  mu: +0.132086059  nElectrons: 347.000000  magneticMoment: [ Abs: 44.25474  Tot: +0.00000 ]
	SubspaceRotationAdjust: set factor to 0.719
ElecMinimize: Iter:  80  F: -2005.155966632165018  |grad|_K:  7.372e-06  alpha:  7.903e-02  linmin: -8.896e-05  t[s]:   6934.45
	FillingsUpdate:  mu: +0.134457875  nElectrons: 347.000000  magneticMoment: [ Abs: 44.19894  Tot: +0.00000 ]
	SubspaceRotationAdjust: set factor to 0.558
ElecMinimize: Iter:  81  F: -2005.157272298023599  |grad|_K:  5.015e-06  alpha:  1.389e-01  linmin:  4.846e-04  t[s]:   7013.40
	FillingsUpdate:  mu: +0.131312717  nElectrons: 347.000000  magneticMoment: [ Abs: 44.23167  Tot: +0.00000 ]
	SubspaceRotationAdjust: set factor to 0.443
ElecMinimize: Iter:  82  F: -2005.158278494858223  |grad|_K:  3.508e-06  alpha:  2.302e-01  linmin: -7.188e-04  t[s]:   7088.28
	FillingsUpdate:  mu: +0.134637197  nElectrons: 347.000000  magneticMoment: [ Abs: 44.20328  Tot: -0.00000 ]
	SubspaceRotationAdjust: set factor to 0.411
ElecMinimize: Iter:  83  F: -2005.158872039075959  |grad|_K:  2.604e-06  alpha:  2.650e-01  linmin:  4.559e-05  t[s]:   7166.72
	FillingsUpdate:  mu: +0.131830086  nElectrons: 347.000000  magneticMoment: [ Abs: 44.19495  Tot: -0.00000 ]
	SubspaceRotationAdjust: set factor to 0.385
ElecMinimize: Iter:  84  F: -2005.159260445045902  |grad|_K:  1.986e-06  alpha:  3.305e-01  linmin:  1.355e-04  t[s]:   7243.91
	FillingsUpdate:  mu: +0.132708309  nElectrons: 347.000000  magneticMoment: [ Abs: 44.18812  Tot: +0.00000 ]
	SubspaceRotationAdjust: set factor to 0.324
ElecMinimize: Iter:  85  F: -2005.159475177887998  |grad|_K:  1.870e-06  alpha:  3.148e-01  linmin:  2.253e-05  t[s]:   7320.36
	FillingsUpdate:  mu: +0.131516356  nElectrons: 347.000000  magneticMoment: [ Abs: 44.18929  Tot: -0.00000 ]
	SubspaceRotationAdjust: set factor to 0.255
ElecMinimize: Iter:  86  F: -2005.159596956563291  |grad|_K:  1.456e-06  alpha:  2.005e-01  linmin: -3.434e-07  t[s]:   7395.77
	FillingsUpdate:  mu: +0.133371566  nElectrons: 347.000000  magneticMoment: [ Abs: 44.17298  Tot: -0.00000 ]
	SubspaceRotationAdjust: set factor to 0.288
ElecMinimize: Iter:  87  F: -2005.159716604288406  |grad|_K:  1.282e-06  alpha:  3.246e-01  linmin:  8.060e-05  t[s]:   7473.71
	FillingsUpdate:  mu: +0.132927757  nElectrons: 347.000000  magneticMoment: [ Abs: 44.16642  Tot: -0.00000 ]
	SubspaceRotationAdjust: set factor to 0.333
ElecMinimize: Iter:  88  F: -2005.159849065734306  |grad|_K:  1.327e-06  alpha:  4.649e-01  linmin:  4.944e-05  t[s]:   7551.45
	FillingsUpdate:  mu: +0.130984918  nElectrons: 347.000000  magneticMoment: [ Abs: 44.16915  Tot: -0.00000 ]
	SubspaceRotationAdjust: set factor to 0.312
ElecMinimize: Iter:  89  F: -2005.159956201048544  |grad|_K:  1.563e-06  alpha:  3.500e-01  linmin:  1.027e-05  t[s]:   7630.02
	FillingsUpdate:  mu: +0.133232300  nElectrons: 347.000000  magneticMoment: [ Abs: 44.15229  Tot: -0.00000 ]
	SubspaceRotationAdjust: set factor to 0.287
ElecMinimize: Iter:  90  F: -2005.160086032825802  |grad|_K:  1.585e-06  alpha:  3.044e-01  linmin:  7.040e-05  t[s]:   7706.15
	FillingsUpdate:  mu: +0.133341155  nElectrons: 347.000000  magneticMoment: [ Abs: 44.13789  Tot: -0.00000 ]
	SubspaceRotationAdjust: set factor to 0.31
ElecMinimize: Iter:  91  F: -2005.160289596137090  |grad|_K:  1.830e-06  alpha:  4.671e-01  linmin: -3.552e-05  t[s]:   7784.06
	FillingsUpdate:  mu: +0.131905741  nElectrons: 347.000000  magneticMoment: [ Abs: 44.13601  Tot: +0.00000 ]
	SubspaceRotationAdjust: set factor to 0.324
ElecMinimize: Iter:  92  F: -2005.160595786502881  |grad|_K:  2.264e-06  alpha:  5.233e-01  linmin:  2.470e-06  t[s]:   7861.83
	FillingsUpdate:  mu: +0.133819988  nElectrons: 347.000000  magneticMoment: [ Abs: 44.13148  Tot: -0.00000 ]
	SubspaceRotationAdjust: set factor to 0.29
ElecMinimize: Iter:  93  F: -2005.160885253729020  |grad|_K:  2.521e-06  alpha:  3.169e-01  linmin: -5.542e-05  t[s]:   7932.92
	FillingsUpdate:  mu: +0.131225296  nElectrons: 347.000000  magneticMoment: [ Abs: 44.15078  Tot: -0.00000 ]
	SubspaceRotationAdjust: set factor to 0.283
ElecMinimize: Iter:  94  F: -2005.161215161430619  |grad|_K:  2.324e-06  alpha:  2.966e-01  linmin: -7.359e-05  t[s]:   8008.50
	FillingsUpdate:  mu: +0.131175539  nElectrons: 347.000000  magneticMoment: [ Abs: 44.15889  Tot: +0.00000 ]
	SubspaceRotationAdjust: set factor to 0.329
ElecMinimize: Iter:  95  F: -2005.161549392193137  |grad|_K:  2.060e-06  alpha:  3.520e-01  linmin:  3.771e-05  t[s]:   8087.09
	FillingsUpdate:  mu: +0.132778390  nElectrons: 347.000000  magneticMoment: [ Abs: 44.16060  Tot: +0.00000 ]
	SubspaceRotationAdjust: set factor to 0.345
ElecMinimize: Iter:  96  F: -2005.161823988245033  |grad|_K:  2.293e-06  alpha:  3.739e-01  linmin:  8.719e-05  t[s]:   8162.61
	FillingsUpdate:  mu: +0.130180542  nElectrons: 347.000000  magneticMoment: [ Abs: 44.17965  Tot: +0.00000 ]
	SubspaceRotationAdjust: set factor to 0.304
ElecMinimize: Iter:  97  F: -2005.162075860116374  |grad|_K:  2.360e-06  alpha:  2.806e-01  linmin: -4.184e-05  t[s]:   8241.89
	FillingsUpdate:  mu: +0.132471858  nElectrons: 347.000000  magneticMoment: [ Abs: 44.18865  Tot: -0.00000 ]
	SubspaceRotationAdjust: set factor to 0.312
ElecMinimize: Iter:  98  F: -2005.162358717638199  |grad|_K:  2.062e-06  alpha:  2.904e-01  linmin:  6.859e-05  t[s]:   8321.86
	FillingsUpdate:  mu: +0.132597000  nElectrons: 347.000000  magneticMoment: [ Abs: 44.20466  Tot: +0.00000 ]
	SubspaceRotationAdjust: set factor to 0.381
ElecMinimize: Iter:  99  F: -2005.162647078285545  |grad|_K:  1.961e-06  alpha:  3.936e-01  linmin:  3.124e-05  t[s]:   8399.53
	FillingsUpdate:  mu: +0.131534372  nElectrons: 347.000000  magneticMoment: [ Abs: 44.21620  Tot: +0.00000 ]
	SubspaceRotationAdjust: set factor to 0.413
ElecMinimize: Iter: 100  F: -2005.162918746705827  |grad|_K:  2.209e-06  alpha:  4.071e-01  linmin: -6.456e-05  t[s]:   8477.52
	FillingsUpdate:  mu: +0.134588653  nElectrons: 347.000000  magneticMoment: [ Abs: 44.20936  Tot: -0.00000 ]
	SubspaceRotationAdjust: set factor to 0.37
ElecMinimize: Iter: 101  F: -2005.163153098576004  |grad|_K:  2.489e-06  alpha:  2.710e-01  linmin:  5.496e-07  t[s]:   8556.05
	FillingsUpdate:  mu: +0.131897802  nElectrons: 347.000000  magneticMoment: [ Abs: 44.22162  Tot: +0.00000 ]
	SubspaceRotationAdjust: set factor to 0.377
ElecMinimize: Iter: 102  F: -2005.163473617293903  |grad|_K:  2.300e-06  alpha:  2.965e-01  linmin: -8.109e-05  t[s]:   8630.76
	FillingsUpdate:  mu: +0.131667516  nElectrons: 347.000000  magneticMoment: [ Abs: 44.22621  Tot: +0.00000 ]
	SubspaceRotationAdjust: set factor to 0.437
ElecMinimize: Iter: 103  F: -2005.163855749711502  |grad|_K:  2.273e-06  alpha:  4.113e-01  linmin:  8.909e-05  t[s]:   8709.36
	FillingsUpdate:  mu: +0.133280014  nElectrons: 347.000000  magneticMoment: [ Abs: 44.22052  Tot: -0.00000 ]
	SubspaceRotationAdjust: set factor to 0.483
ElecMinimize: Iter: 104  F: -2005.164166292752725  |grad|_K:  2.335e-06  alpha:  3.496e-01  linmin:  2.561e-05  t[s]:   8784.78
	FillingsUpdate:  mu: +0.131159084  nElectrons: 347.000000  magneticMoment: [ Abs: 44.23011  Tot: -0.00000 ]
	SubspaceRotationAdjust: set factor to 0.453
ElecMinimize: Iter: 105  F: -2005.164416218173983  |grad|_K:  2.428e-06  alpha:  2.663e-01  linmin: -2.979e-05  t[s]:   8861.69
	FillingsUpdate:  mu: +0.133691123  nElectrons: 347.000000  magneticMoment: [ Abs: 44.22557  Tot: +0.00000 ]
	SubspaceRotationAdjust: set factor to 0.432
ElecMinimize: Iter: 106  F: -2005.164653527989913  |grad|_K:  2.166e-06  alpha:  2.297e-01  linmin:  2.594e-05  t[s]:   8939.57
	FillingsUpdate:  mu: +0.132153458  nElectrons: 347.000000  magneticMoment: [ Abs: 44.24243  Tot: -0.00000 ]
	SubspaceRotationAdjust: set factor to 0.499
ElecMinimize: Iter: 107  F: -2005.164926715249294  |grad|_K:  2.000e-06  alpha:  3.355e-01  linmin: -1.340e-05  t[s]:   9017.93
	FillingsUpdate:  mu: +0.132454024  nElectrons: 347.000000  magneticMoment: [ Abs: 44.25010  Tot: -0.00000 ]
	SubspaceRotationAdjust: set factor to 0.608
ElecMinimize: Iter: 108  F: -2005.165179246818298  |grad|_K:  1.869e-06  alpha:  3.618e-01  linmin:  1.285e-05  t[s]:   9094.44
	FillingsUpdate:  mu: +0.133495078  nElectrons: 347.000000  magneticMoment: [ Abs: 44.25826  Tot: +0.00000 ]
	SubspaceRotationAdjust: set factor to 0.722
ElecMinimize: Iter: 109  F: -2005.165396937398555  |grad|_K:  1.974e-06  alpha:  3.586e-01  linmin:  9.758e-06  t[s]:   9166.20
	FillingsUpdate:  mu: +0.131590545  nElectrons: 347.000000  magneticMoment: [ Abs: 44.28063  Tot: -0.00000 ]
	SubspaceRotationAdjust: set factor to 0.58
ElecMinimize: Iter: 110  F: -2005.165561529645174  |grad|_K:  2.344e-06  alpha:  2.446e-01  linmin: -3.501e-06  t[s]:   9243.70
	FillingsUpdate:  mu: +0.133679091  nElectrons: 347.000000  magneticMoment: [ Abs: 44.28115  Tot: +0.00000 ]
	SubspaceRotationAdjust: set factor to 0.5
ElecMinimize: Iter: 111  F: -2005.165696311848251  |grad|_K:  1.904e-06  alpha:  1.394e-01  linmin: -2.386e-05  t[s]:   9320.51
	FillingsUpdate:  mu: +0.133475055  nElectrons: 347.000000  magneticMoment: [ Abs: 44.29011  Tot: +0.00000 ]
	SubspaceRotationAdjust: set factor to 0.616
ElecMinimize: Iter: 112  F: -2005.165882718015837  |grad|_K:  1.659e-06  alpha:  2.951e-01  linmin:  3.765e-05  t[s]:   9399.16
	FillingsUpdate:  mu: +0.132377900  nElectrons: 347.000000  magneticMoment: [ Abs: 44.30544  Tot: +0.00000 ]
	SubspaceRotationAdjust: set factor to 0.715
ElecMinimize: Iter: 113  F: -2005.166034082787291  |grad|_K:  1.686e-06  alpha:  3.177e-01  linmin: -1.702e-05  t[s]:   9477.45
	FillingsUpdate:  mu: +0.133969723  nElectrons: 347.000000  magneticMoment: [ Abs: 44.30397  Tot: +0.00000 ]
	SubspaceRotationAdjust: set factor to 0.582
ElecMinimize: Iter: 114  F: -2005.166127408207558  |grad|_K:  1.937e-06  alpha:  1.869e-01  linmin: -1.400e-05  t[s]:   9554.00
	FillingsUpdate:  mu: +0.132810356  nElectrons: 347.000000  magneticMoment: [ Abs: 44.30951  Tot: -0.00000 ]
	SubspaceRotationAdjust: set factor to 0.56
ElecMinimize: Iter: 115  F: -2005.166234566964249  |grad|_K:  1.509e-06  alpha:  1.638e-01  linmin: -6.404e-06  t[s]:   9630.00
	FillingsUpdate:  mu: +0.133460228  nElectrons: 347.000000  magneticMoment: [ Abs: 44.30686  Tot: +0.00000 ]
	SubspaceRotationAdjust: set factor to 0.691
ElecMinimize: Iter: 116  F: -2005.166362897709632  |grad|_K:  1.370e-06  alpha:  3.236e-01  linmin:  8.943e-06  t[s]:   9708.11
	FillingsUpdate:  mu: +0.133354046  nElectrons: 347.000000  magneticMoment: [ Abs: 44.31109  Tot: -0.00000 ]
	SubspaceRotationAdjust: set factor to 0.79
ElecMinimize: Iter: 117  F: -2005.166472441080487  |grad|_K:  1.410e-06  alpha:  3.356e-01  linmin: -3.209e-06  t[s]:   9784.82
	FillingsUpdate:  mu: +0.132126023  nElectrons: 347.000000  magneticMoment: [ Abs: 44.31217  Tot: +0.00000 ]
	SubspaceRotationAdjust: set factor to 0.59
ElecMinimize: Iter: 118  F: -2005.166541585161212  |grad|_K:  1.711e-06  alpha:  2.014e-01  linmin:  1.474e-05  t[s]:   9861.94
	FillingsUpdate:  mu: +0.133828529  nElectrons: 347.000000  magneticMoment: [ Abs: 44.30247  Tot: +0.00000 ]
	SubspaceRotationAdjust: set factor to 0.51
ElecMinimize: Iter: 119  F: -2005.166606328410126  |grad|_K:  1.267e-06  alpha:  1.264e-01  linmin: -8.368e-06  t[s]:   9938.03
	FillingsUpdate:  mu: +0.133593844  nElectrons: 347.000000  magneticMoment: [ Abs: 44.30301  Tot: +0.00000 ]
	SubspaceRotationAdjust: set factor to 0.68
ElecMinimize: Iter: 120  F: -2005.166688361765637  |grad|_K:  1.087e-06  alpha:  2.927e-01  linmin: -1.185e-05  t[s]:  10016.19
	FillingsUpdate:  mu: +0.132373649  nElectrons: 347.000000  magneticMoment: [ Abs: 44.30754  Tot: -0.00000 ]
	SubspaceRotationAdjust: set factor to 0.557
ElecMinimize: Iter: 121  F: -2005.166747047646595  |grad|_K:  1.322e-06  alpha:  2.847e-01  linmin: -4.717e-05  t[s]:  10094.74
	FillingsUpdate:  mu: +0.133531970  nElectrons: 347.000000  magneticMoment: [ Abs: 44.30231  Tot: -0.00000 ]
	SubspaceRotationAdjust: set factor to 0.473
ElecMinimize: Iter: 122  F: -2005.166787835329387  |grad|_K:  1.074e-06  alpha:  1.322e-01  linmin: -3.162e-05  t[s]:  10171.29
	FillingsUpdate:  mu: +0.133491563  nElectrons: 347.000000  magneticMoment: [ Abs: 44.29957  Tot: +0.00000 ]
	SubspaceRotationAdjust: set factor to 0.644
ElecMinimize: Iter: 123  F: -2005.166848180218494  |grad|_K:  9.876e-07  alpha:  2.990e-01  linmin: -1.418e-05  t[s]:  10248.96
	FillingsUpdate:  mu: +0.132383978  nElectrons: 347.000000  magneticMoment: [ Abs: 44.30325  Tot: +0.00000 ]
	SubspaceRotationAdjust: set factor to 0.542
ElecMinimize: Iter: 124  F: -2005.166892640817650  |grad|_K:  1.168e-06  alpha:  2.617e-01  linmin: -3.417e-05  t[s]:  10326.05
	FillingsUpdate:  mu: +0.133331703  nElectrons: 347.000000  magneticMoment: [ Abs: 44.29953  Tot: +0.00000 ]
	SubspaceRotationAdjust: set factor to 0.49
ElecMinimize: Iter: 125  F: -2005.166928957071605  |grad|_K:  9.682e-07  alpha:  1.516e-01  linmin: -8.139e-06  t[s]:  10403.90
	FillingsUpdate:  mu: +0.133251211  nElectrons: 347.000000  magneticMoment: [ Abs: 44.29728  Tot: -0.00000 ]
	SubspaceRotationAdjust: set factor to 0.66
ElecMinimize: Iter: 126  F: -2005.166979334957887  |grad|_K:  9.134e-07  alpha:  3.080e-01  linmin: -1.174e-05  t[s]:  10480.48
	FillingsUpdate:  mu: +0.132224184  nElectrons: 347.000000  magneticMoment: [ Abs: 44.29938  Tot: +0.00000 ]
	SubspaceRotationAdjust: set factor to 0.546
ElecMinimize: Iter: 127  F: -2005.167019574583264  |grad|_K:  1.162e-06  alpha:  2.769e-01  linmin: -3.423e-05  t[s]:  10559.11
	FillingsUpdate:  mu: +0.133192333  nElectrons: 347.000000  magneticMoment: [ Abs: 44.29427  Tot: -0.00000 ]
	SubspaceRotationAdjust: set factor to 0.494
ElecMinimize: Iter: 128  F: -2005.167056472591412  |grad|_K:  9.553e-07  alpha:  1.547e-01  linmin: -2.384e-05  t[s]:  10636.46
	FillingsUpdate:  mu: +0.132892708  nElectrons: 347.000000  magneticMoment: [ Abs: 44.28973  Tot: -0.00000 ]
	SubspaceRotationAdjust: set factor to 0.652
ElecMinimize: Iter: 129  F: -2005.167110436261510  |grad|_K:  9.628e-07  alpha:  3.387e-01  linmin:  1.051e-05  t[s]:  10712.84
	FillingsUpdate:  mu: +0.131944864  nElectrons: 347.000000  magneticMoment: [ Abs: 44.28700  Tot: -0.00000 ]
	SubspaceRotationAdjust: set factor to 0.562
ElecMinimize: Iter: 130  F: -2005.167152795482252  |grad|_K:  1.176e-06  alpha:  2.639e-01  linmin: -1.927e-05  t[s]:  10783.95
	FillingsUpdate:  mu: +0.133059672  nElectrons: 347.000000  magneticMoment: [ Abs: 44.27710  Tot: -0.00000 ]
	SubspaceRotationAdjust: set factor to 0.5
ElecMinimize: Iter: 131  F: -2005.167191629546551  |grad|_K:  9.857e-07  alpha:  1.583e-01  linmin: -2.415e-05  t[s]:  10862.22
	FillingsUpdate:  mu: +0.132684185  nElectrons: 347.000000  magneticMoment: [ Abs: 44.27025  Tot: +0.00000 ]
	SubspaceRotationAdjust: set factor to 0.647
ElecMinimize: Iter: 132  F: -2005.167245517172887  |grad|_K:  9.486e-07  alpha:  3.176e-01  linmin:  1.432e-05  t[s]:  10940.07
	FillingsUpdate:  mu: +0.131776185  nElectrons: 347.000000  magneticMoment: [ Abs: 44.26093  Tot: +0.00000 ]
	SubspaceRotationAdjust: set factor to 0.563
ElecMinimize: Iter: 133  F: -2005.167291745671264  |grad|_K:  1.170e-06  alpha:  2.960e-01  linmin: -1.878e-05  t[s]:  11017.52
	FillingsUpdate:  mu: +0.132824520  nElectrons: 347.000000  magneticMoment: [ Abs: 44.24577  Tot: -0.00000 ]
	SubspaceRotationAdjust: set factor to 0.487
ElecMinimize: Iter: 134  F: -2005.167326312385512  |grad|_K:  1.008e-06  alpha:  1.396e-01  linmin: -1.132e-04  t[s]:  11093.96
	FillingsUpdate:  mu: +0.132660943  nElectrons: 347.000000  magneticMoment: [ Abs: 44.23009  Tot: +0.00000 ]
	SubspaceRotationAdjust: set factor to 0.66
ElecMinimize: Iter: 135  F: -2005.167382103940554  |grad|_K:  9.853e-07  alpha:  3.085e-01  linmin: -1.907e-05  t[s]:  11170.57
	FillingsUpdate:  mu: +0.131510092  nElectrons: 347.000000  magneticMoment: [ Abs: 44.22240  Tot: -0.00000 ]
	SubspaceRotationAdjust: set factor to 0.518
ElecMinimize: Iter: 136  F: -2005.167426194449035  |grad|_K:  1.290e-06  alpha:  2.601e-01  linmin: -1.083e-05  t[s]:  11247.53
	FillingsUpdate:  mu: +0.132291412  nElectrons: 347.000000  magneticMoment: [ Abs: 44.20741  Tot: -0.00000 ]
	SubspaceRotationAdjust: set factor to 0.475
ElecMinimize: Iter: 137  F: -2005.167465492323572  |grad|_K:  1.025e-06  alpha:  1.306e-01  linmin: -1.024e-04  t[s]:  11324.57
	FillingsUpdate:  mu: +0.132597439  nElectrons: 347.000000  magneticMoment: [ Abs: 44.18687  Tot: -0.00000 ]
	SubspaceRotationAdjust: set factor to 0.593
ElecMinimize: Iter: 138  F: -2005.167526648483772  |grad|_K:  1.142e-06  alpha:  3.291e-01  linmin:  2.674e-05  t[s]:  11401.13
	FillingsUpdate:  mu: +0.131603365  nElectrons: 347.000000  magneticMoment: [ Abs: 44.17827  Tot: -0.00000 ]
	SubspaceRotationAdjust: set factor to 0.538
ElecMinimize: Iter: 139  F: -2005.167569232157120  |grad|_K:  1.343e-06  alpha:  1.901e-01  linmin:  8.580e-06  t[s]:  11478.30
	FillingsUpdate:  mu: +0.132380538  nElectrons: 347.000000  magneticMoment: [ Abs: 44.15587  Tot: +0.00000 ]
	SubspaceRotationAdjust: set factor to 0.556
ElecMinimize: Iter: 140  F: -2005.167632095462977  |grad|_K:  1.146e-06  alpha:  2.012e-01  linmin:  1.288e-04  t[s]:  11557.00
	FillingsUpdate:  mu: +0.132159791  nElectrons: 347.000000  magneticMoment: [ Abs: 44.13531  Tot: -0.00000 ]
	SubspaceRotationAdjust: set factor to 0.708
ElecMinimize: Iter: 141  F: -2005.167707299875019  |grad|_K:  1.213e-06  alpha:  3.402e-01  linmin:  5.139e-05  t[s]:  11635.84
	FillingsUpdate:  mu: +0.131580625  nElectrons: 347.000000  magneticMoment: [ Abs: 44.12482  Tot: +0.00000 ]
	SubspaceRotationAdjust: set factor to 0.604
ElecMinimize: Iter: 142  F: -2005.167778119944842  |grad|_K:  1.536e-06  alpha:  2.812e-01  linmin: -3.571e-05  t[s]:  11711.50
	FillingsUpdate:  mu: +0.132670189  nElectrons: 347.000000  magneticMoment: [ Abs: 44.11399  Tot: +0.00000 ]
	SubspaceRotationAdjust: set factor to 0.529
ElecMinimize: Iter: 143  F: -2005.167825557204878  |grad|_K:  1.391e-06  alpha:  1.074e-01  linmin: -2.015e-04  t[s]:  11787.84
	FillingsUpdate:  mu: +0.132397700  nElectrons: 347.000000  magneticMoment: [ Abs: 44.11041  Tot: +0.00000 ]
	SubspaceRotationAdjust: set factor to 0.783
ElecMinimize: Iter: 144  F: -2005.167917042316049  |grad|_K:  1.344e-06  alpha:  2.598e-01  linmin:  2.024e-05  t[s]:  11863.16
	FillingsUpdate:  mu: +0.131283360  nElectrons: 347.000000  magneticMoment: [ Abs: 44.11898  Tot: -0.00000 ]
	SubspaceRotationAdjust: set factor to 0.584
ElecMinimize: Iter: 145  F: -2005.167976262925777  |grad|_K:  1.808e-06  alpha:  1.912e-01  linmin: -1.902e-05  t[s]:  11939.04
	FillingsUpdate:  mu: +0.132041197  nElectrons: 347.000000  magneticMoment: [ Abs: 44.11974  Tot: -0.00000 ]
	SubspaceRotationAdjust: set factor to 0.584
ElecMinimize: Iter: 146  F: -2005.168038312476710  |grad|_K:  1.316e-06  alpha:  1.055e-01  linmin: -4.595e-05  t[s]:  12019.23
	FillingsUpdate:  mu: +0.132371188  nElectrons: 347.000000  magneticMoment: [ Abs: 44.13145  Tot: +0.00000 ]
	SubspaceRotationAdjust: set factor to 0.723
ElecMinimize: Iter: 147  F: -2005.168117895477280  |grad|_K:  1.302e-06  alpha:  2.612e-01  linmin:  7.081e-06  t[s]:  12097.02
	FillingsUpdate:  mu: +0.131518788  nElectrons: 347.000000  magneticMoment: [ Abs: 44.14711  Tot: -0.00000 ]
	SubspaceRotationAdjust: set factor to 0.553
ElecMinimize: Iter: 148  F: -2005.168168340180728  |grad|_K:  1.622e-06  alpha:  1.730e-01  linmin: -2.168e-06  t[s]:  12173.78
	FillingsUpdate:  mu: +0.132139152  nElectrons: 347.000000  magneticMoment: [ Abs: 44.15604  Tot: -0.00000 ]
	SubspaceRotationAdjust: set factor to 0.607
ElecMinimize: Iter: 149  F: -2005.168224802518807  |grad|_K:  1.182e-06  alpha:  1.225e-01  linmin:  2.885e-06  t[s]:  12250.03
	FillingsUpdate:  mu: +0.132127620  nElectrons: 347.000000  magneticMoment: [ Abs: 44.17544  Tot: -0.00000 ]
	SubspaceRotationAdjust: set factor to 0.712
ElecMinimize: Iter: 150  F: -2005.168289569561011  |grad|_K:  1.176e-06  alpha:  2.678e-01  linmin:  3.647e-05  t[s]:  12327.75
	FillingsUpdate:  mu: +0.131529049  nElectrons: 347.000000  magneticMoment: [ Abs: 44.19373  Tot: -0.00000 ]
	SubspaceRotationAdjust: set factor to 0.557
ElecMinimize: Iter: 151  F: -2005.168330045755738  |grad|_K:  1.397e-06  alpha:  1.707e-01  linmin:  1.629e-06  t[s]:  12404.11
	FillingsUpdate:  mu: +0.132326981  nElectrons: 347.000000  magneticMoment: [ Abs: 44.20345  Tot: -0.00000 ]
	SubspaceRotationAdjust: set factor to 0.648
ElecMinimize: Iter: 152  F: -2005.168374735480029  |grad|_K:  1.059e-06  alpha:  1.315e-01  linmin: -5.742e-07  t[s]:  12480.19
	FillingsUpdate:  mu: +0.132250689  nElectrons: 347.000000  magneticMoment: [ Abs: 44.21970  Tot: -0.00000 ]
	SubspaceRotationAdjust: set factor to 0.746
ElecMinimize: Iter: 153  F: -2005.168425086156958  |grad|_K:  1.041e-06  alpha:  2.584e-01  linmin:  1.586e-05  t[s]:  12557.51
	FillingsUpdate:  mu: +0.131517231  nElectrons: 347.000000  magneticMoment: [ Abs: 44.23679  Tot: -0.00000 ]
	SubspaceRotationAdjust: set factor to 0.571
ElecMinimize: Iter: 154  F: -2005.168457883300107  |grad|_K:  1.249e-06  alpha:  1.754e-01  linmin: -2.679e-06  t[s]:  12631.62
	FillingsUpdate:  mu: +0.132143779  nElectrons: 347.000000  magneticMoment: [ Abs: 44.24532  Tot: +0.00000 ]
	SubspaceRotationAdjust: set factor to 0.667
ElecMinimize: Iter: 155  F: -2005.168492560947925  |grad|_K:  9.608e-07  alpha:  1.277e-01  linmin: -2.446e-06  t[s]:  12708.10
	FillingsUpdate:  mu: +0.132411417  nElectrons: 347.000000  magneticMoment: [ Abs: 44.25724  Tot: +0.00000 ]
	SubspaceRotationAdjust: set factor to 0.734
ElecMinimize: Iter: 156  F: -2005.168534093171047  |grad|_K:  9.648e-07  alpha:  2.584e-01  linmin:  5.702e-06  t[s]:  12785.25
	FillingsUpdate:  mu: +0.131711339  nElectrons: 347.000000  magneticMoment: [ Abs: 44.26922  Tot: -0.00000 ]
	SubspaceRotationAdjust: set factor to 0.575
ElecMinimize: Iter: 157  F: -2005.168560015928279  |grad|_K:  1.131e-06  alpha:  1.611e-01  linmin:  5.122e-06  t[s]:  12861.44
	FillingsUpdate:  mu: +0.132127099  nElectrons: 347.000000  magneticMoment: [ Abs: 44.27573  Tot: +0.00000 ]
	SubspaceRotationAdjust: set factor to 0.74
ElecMinimize: Iter: 158  F: -2005.168592437507186  |grad|_K:  8.815e-07  alpha:  1.458e-01  linmin: -1.571e-06  t[s]:  12936.13
	FillingsUpdate:  mu: +0.132357209  nElectrons: 347.000000  magneticMoment: [ Abs: 44.28495  Tot: -0.00000 ]
	SubspaceRotationAdjust: set factor to 0.694
ElecMinimize: Iter: 159  F: -2005.168628013839452  |grad|_K:  9.874e-07  alpha:  2.630e-01  linmin:  6.106e-06  t[s]:  13011.07
	FillingsUpdate:  mu: +0.131759306  nElectrons: 347.000000  magneticMoment: [ Abs: 44.29374  Tot: -0.00000 ]
	SubspaceRotationAdjust: set factor to 0.61
ElecMinimize: Iter: 160  F: -2005.168650071806951  |grad|_K:  1.030e-06  alpha:  1.312e-01  linmin:  2.099e-05  t[s]:  13086.51
	FillingsUpdate:  mu: +0.132180803  nElectrons: 347.000000  magneticMoment: [ Abs: 44.29705  Tot: -0.00000 ]
	SubspaceRotationAdjust: set factor to 0.87
ElecMinimize: Iter: 161  F: -2005.168683038484687  |grad|_K:  8.565e-07  alpha:  1.791e-01  linmin: -7.880e-06  t[s]:  13162.31
	FillingsUpdate:  mu: +0.132578490  nElectrons: 347.000000  magneticMoment: [ Abs: 44.30113  Tot: +0.00000 ]
	SubspaceRotationAdjust: set factor to 0.646
ElecMinimize: Iter: 162  F: -2005.168712923114981  |grad|_K:  1.128e-06  alpha:  2.339e-01  linmin:  2.085e-05  t[s]:  13235.37
	FillingsUpdate:  mu: +0.131837968  nElectrons: 347.000000  magneticMoment: [ Abs: 44.30927  Tot: -0.00000 ]
	SubspaceRotationAdjust: set factor to 0.674
ElecMinimize: Iter: 163  F: -2005.168733621677347  |grad|_K:  9.071e-07  alpha:  9.532e-02  linmin:  4.844e-05  t[s]:  13310.37
	FillingsUpdate:  mu: +0.131840802  nElectrons: 347.000000  magneticMoment: [ Abs: 44.31264  Tot: +0.00000 ]
	SubspaceRotationAdjust: set factor to 0.709
ElecMinimize: Iter: 164  F: -2005.168767918694357  |grad|_K:  9.487e-07  alpha:  2.415e-01  linmin: -1.120e-05  t[s]:  13388.20
	FillingsUpdate:  mu: +0.132602388  nElectrons: 347.000000  magneticMoment: [ Abs: 44.30903  Tot: -0.00000 ]
	SubspaceRotationAdjust: set factor to 0.607
ElecMinimize: Iter: 165  F: -2005.168788532659164  |grad|_K:  1.032e-06  alpha:  1.300e-01  linmin: -1.914e-05  t[s]:  13464.27
	FillingsUpdate:  mu: +0.132305684  nElectrons: 347.000000  magneticMoment: [ Abs: 44.31006  Tot: -0.00000 ]
	SubspaceRotationAdjust: set factor to 0.866
ElecMinimize: Iter: 166  F: -2005.168821554502756  |grad|_K:  8.638e-07  alpha:  1.769e-01  linmin: -2.155e-05  t[s]:  13540.52
	FillingsUpdate:  mu: +0.131580791  nElectrons: 347.000000  magneticMoment: [ Abs: 44.31335  Tot: -0.00000 ]
	SubspaceRotationAdjust: set factor to 0.621
ElecMinimize: Iter: 167  F: -2005.168847880082012  |grad|_K:  1.185e-06  alpha:  2.013e-01  linmin: -4.448e-05  t[s]:  13617.57
	FillingsUpdate:  mu: +0.132176189  nElectrons: 347.000000  magneticMoment: [ Abs: 44.30854  Tot: -0.00000 ]
	SubspaceRotationAdjust: set factor to 0.731
ElecMinimize: Iter: 168  F: -2005.168873721688669  |grad|_K:  8.888e-07  alpha:  1.027e-01  linmin: -4.627e-05  t[s]:  13693.79
	FillingsUpdate:  mu: +0.132540777  nElectrons: 347.000000  magneticMoment: [ Abs: 44.30114  Tot: -0.00000 ]
	SubspaceRotationAdjust: set factor to 0.622
ElecMinimize: Iter: 169  F: -2005.168908784364021  |grad|_K:  1.087e-06  alpha:  2.533e-01  linmin:  3.013e-05  t[s]:  13770.08
	FillingsUpdate:  mu: +0.131786641  nElectrons: 347.000000  magneticMoment: [ Abs: 44.30164  Tot: +0.00000 ]
	SubspaceRotationAdjust: set factor to 0.611
ElecMinimize: Iter: 170  F: -2005.168930330811918  |grad|_K:  9.803e-07  alpha:  1.094e-01  linmin:  8.897e-05  t[s]:  13849.11
	FillingsUpdate:  mu: +0.131761691  nElectrons: 347.000000  magneticMoment: [ Abs: 44.29680  Tot: +0.00000 ]
	SubspaceRotationAdjust: set factor to 0.767
ElecMinimize: Iter: 171  F: -2005.168965755423642  |grad|_K:  9.182e-07  alpha:  2.173e-01  linmin:  4.192e-05  t[s]:  13922.66
	FillingsUpdate:  mu: +0.132403978  nElectrons: 347.000000  magneticMoment: [ Abs: 44.28968  Tot: -0.00000 ]
	SubspaceRotationAdjust: set factor to 0.601
ElecMinimize: Iter: 172  F: -2005.168986928076265  |grad|_K:  1.087e-06  alpha:  1.435e-01  linmin: -2.769e-06  t[s]:  13999.98
	FillingsUpdate:  mu: +0.132092943  nElectrons: 347.000000  magneticMoment: [ Abs: 44.28418  Tot: -0.00000 ]
	SubspaceRotationAdjust: set factor to 0.904
ElecMinimize: Iter: 173  F: -2005.169017270017321  |grad|_K:  8.484e-07  alpha:  1.472e-01  linmin: -3.304e-05  t[s]:  14077.29
	FillingsUpdate:  mu: +0.131652989  nElectrons: 347.000000  magneticMoment: [ Abs: 44.27931  Tot: +0.00000 ]
	SubspaceRotationAdjust: set factor to 0.657
ElecMinimize: Iter: 174  F: -2005.169043115753311  |grad|_K:  1.136e-06  alpha:  2.030e-01  linmin: -1.072e-04  t[s]:  14155.08
	FillingsUpdate:  mu: +0.132280769  nElectrons: 347.000000  magneticMoment: [ Abs: 44.26931  Tot: +0.00000 ]
	SubspaceRotationAdjust: set factor to 0.733
ElecMinimize: Iter: 175  F: -2005.169064904300967  |grad|_K:  8.318e-07  alpha:  9.162e-02  linmin: -9.363e-05  t[s]:  14233.53
	FillingsUpdate:  mu: +0.132413247  nElectrons: 347.000000  magneticMoment: [ Abs: 44.25953  Tot: -0.00000 ]
	SubspaceRotationAdjust: set factor to 0.619
ElecMinimize: Iter: 176  F: -2005.169093554839719  |grad|_K:  9.656e-07  alpha:  2.349e-01  linmin:  7.531e-05  t[s]:  14308.68
	FillingsUpdate:  mu: +0.131802525  nElectrons: 347.000000  magneticMoment: [ Abs: 44.25742  Tot: -0.00000 ]
	SubspaceRotationAdjust: set factor to 0.637
ElecMinimize: Iter: 177  F: -2005.169109373958690  |grad|_K:  8.371e-07  alpha:  1.020e-01  linmin:  6.656e-05  t[s]:  14383.89
	FillingsUpdate:  mu: +0.131864377  nElectrons: 347.000000  magneticMoment: [ Abs: 44.24751  Tot: -0.00000 ]
	SubspaceRotationAdjust: set factor to 0.661
ElecMinimize: Iter: 178  F: -2005.169133280753385  |grad|_K:  7.870e-07  alpha:  1.988e-01  linmin: -1.087e-05  t[s]:  14459.58
	FillingsUpdate:  mu: +0.132432735  nElectrons: 347.000000  magneticMoment: [ Abs: 44.23934  Tot: +0.00000 ]
	SubspaceRotationAdjust: set factor to 0.591
ElecMinimize: Iter: 179  F: -2005.169146367153189  |grad|_K:  8.003e-07  alpha:  1.196e-01  linmin: -1.626e-05  t[s]:  14532.77
	FillingsUpdate:  mu: +0.132331658  nElectrons: 347.000000  magneticMoment: [ Abs: 44.23363  Tot: -0.00000 ]
	SubspaceRotationAdjust: set factor to 0.68
ElecMinimize: Iter: 180  F: -2005.169165474808324  |grad|_K:  6.931e-07  alpha:  1.706e-01  linmin: -1.703e-05  t[s]:  14607.56
	FillingsUpdate:  mu: +0.131859601  nElectrons: 347.000000  magneticMoment: [ Abs: 44.23265  Tot: -0.00000 ]
	SubspaceRotationAdjust: set factor to 0.551
ElecMinimize: Iter: 181  F: -2005.169177665938150  |grad|_K:  7.878e-07  alpha:  1.455e-01  linmin: -2.154e-05  t[s]:  14682.66
	FillingsUpdate:  mu: +0.132067855  nElectrons: 347.000000  magneticMoment: [ Abs: 44.22570  Tot: +0.00000 ]
	SubspaceRotationAdjust: set factor to 0.806
ElecMinimize: Iter: 182  F: -2005.169193895172612  |grad|_K:  6.071e-07  alpha:  1.496e-01  linmin:  3.203e-05  t[s]:  14758.57
	FillingsUpdate:  mu: +0.132509707  nElectrons: 347.000000  magneticMoment: [ Abs: 44.21974  Tot: -0.00000 ]
	SubspaceRotationAdjust: set factor to 0.581
ElecMinimize: Iter: 183  F: -2005.169206832979171  |grad|_K:  8.072e-07  alpha:  2.033e-01  linmin:  4.093e-05  t[s]:  14837.92
	FillingsUpdate:  mu: +0.132141165  nElectrons: 347.000000  magneticMoment: [ Abs: 44.21967  Tot: -0.00000 ]
	SubspaceRotationAdjust: set factor to 0.727
ElecMinimize: Iter: 184  F: -2005.169217920986284  |grad|_K:  5.943e-07  alpha:  9.928e-02  linmin:  2.165e-05  t[s]:  14913.31
	FillingsUpdate:  mu: +0.131975853  nElectrons: 347.000000  magneticMoment: [ Abs: 44.21778  Tot: +0.00000 ]
	SubspaceRotationAdjust: set factor to 0.584
ElecMinimize: Iter: 185  F: -2005.169232314543933  |grad|_K:  7.224e-07  alpha:  2.342e-01  linmin: -3.798e-05  t[s]:  14990.18
	FillingsUpdate:  mu: +0.132359639  nElectrons: 347.000000  magneticMoment: [ Abs: 44.21367  Tot: -0.00000 ]
	SubspaceRotationAdjust: set factor to 0.621
ElecMinimize: Iter: 186  F: -2005.169241285777844  |grad|_K:  6.066e-07  alpha:  9.680e-02  linmin: -4.495e-05  t[s]:  15068.67
	FillingsUpdate:  mu: +0.132484411  nElectrons: 347.000000  magneticMoment: [ Abs: 44.21193  Tot: +0.00000 ]
	SubspaceRotationAdjust: set factor to 0.526
ElecMinimize: Iter: 187  F: -2005.169255285458121  |grad|_K:  6.952e-07  alpha:  2.171e-01  linmin:  2.226e-05  t[s]:  15147.27
	FillingsUpdate:  mu: +0.132077121  nElectrons: 347.000000  magneticMoment: [ Abs: 44.21497  Tot: -0.00000 ]
	SubspaceRotationAdjust: set factor to 0.565
ElecMinimize: Iter: 188  F: -2005.169264012276926  |grad|_K:  6.001e-07  alpha:  1.053e-01  linmin:  2.650e-05  t[s]:  15223.86
	FillingsUpdate:  mu: +0.132039222  nElectrons: 347.000000  magneticMoment: [ Abs: 44.21713  Tot: +0.00000 ]
	SubspaceRotationAdjust: set factor to 0.469
ElecMinimize: Iter: 189  F: -2005.169277455315068  |grad|_K:  6.968e-07  alpha:  2.151e-01  linmin: -2.419e-05  t[s]:  15301.59
	FillingsUpdate:  mu: +0.132458533  nElectrons: 347.000000  magneticMoment: [ Abs: 44.21519  Tot: -0.00000 ]
	SubspaceRotationAdjust: set factor to 0.528
ElecMinimize: Iter: 190  F: -2005.169286752161952  |grad|_K:  5.877e-07  alpha:  1.088e-01  linmin: -1.582e-05  t[s]:  15379.17
	FillingsUpdate:  mu: +0.132685145  nElectrons: 347.000000  magneticMoment: [ Abs: 44.21501  Tot: +0.00000 ]
	SubspaceRotationAdjust: set factor to 0.409
ElecMinimize: Iter: 191  F: -2005.169299811505880  |grad|_K:  7.490e-07  alpha:  2.171e-01  linmin:  3.138e-05  t[s]:  15455.39
	FillingsUpdate:  mu: +0.132221920  nElectrons: 347.000000  magneticMoment: [ Abs: 44.22006  Tot: +0.00000 ]
	SubspaceRotationAdjust: set factor to 0.527
ElecMinimize: Iter: 192  F: -2005.169310697227957  |grad|_K:  6.014e-07  alpha:  1.133e-01  linmin:  2.039e-05  t[s]:  15532.42
	FillingsUpdate:  mu: +0.131956828  nElectrons: 347.000000  magneticMoment: [ Abs: 44.22666  Tot: -0.00000 ]
	SubspaceRotationAdjust: set factor to 0.399
ElecMinimize: Iter: 193  F: -2005.169323409627168  |grad|_K:  7.850e-07  alpha:  2.021e-01  linmin: -3.712e-05  t[s]:  15609.92
	FillingsUpdate:  mu: +0.132353829  nElectrons: 347.000000  magneticMoment: [ Abs: 44.22895  Tot: +0.00000 ]
	SubspaceRotationAdjust: set factor to 0.571
ElecMinimize: Iter: 194  F: -2005.169336791340129  |grad|_K:  6.223e-07  alpha:  1.233e-01  linmin: -5.434e-06  t[s]:  15686.33
	FillingsUpdate:  mu: +0.132859374  nElectrons: 347.000000  magneticMoment: [ Abs: 44.22990  Tot: -0.00000 ]
	SubspaceRotationAdjust: set factor to 0.421
ElecMinimize: Iter: 195  F: -2005.169349725380926  |grad|_K:  8.458e-07  alpha:  1.920e-01  linmin:  2.153e-05  t[s]:  15763.74
	FillingsUpdate:  mu: +0.132540262  nElectrons: 347.000000  magneticMoment: [ Abs: 44.23677  Tot: +0.00000 ]
[...]
	SubspaceRotationAdjust: set factor to 0.524
ElecMinimize: Iter:  13  F: -2005.198128449234218  |grad|_K:  1.338e-07  alpha:  3.091e-01  linmin:  2.547e-07  t[s]:  54471.13
	FillingsUpdate:  mu: +0.127986758  nElectrons: 347.000000  magneticMoment: [ Abs: 44.20607  Tot: +0.00000 ]
	SubspaceRotationAdjust: set factor to 0.483
ElecMinimize: Iter:  14  F: -2005.198129325025320  |grad|_K:  1.141e-07  alpha:  2.811e-01  linmin: -4.785e-06  t[s]:  54548.24
	FillingsUpdate:  mu: +0.127949453  nElectrons: 347.000000  magneticMoment: [ Abs: 44.20575  Tot: -0.00000 ]
	SubspaceRotationAdjust: set factor to 0.515
ElecMinimize: Iter:  15  F: -2005.198129981845568  |grad|_K:  8.766e-08  alpha:  2.898e-01  linmin:  2.315e-05  t[s]:  54624.04
	FillingsUpdate:  mu: +0.127977892  nElectrons: 347.000000  magneticMoment: [ Abs: 44.20568  Tot: +0.00000 ]
	SubspaceRotationAdjust: set factor to 0.591
ElecMinimize: Iter:  16  F: -2005.198130443405034  |grad|_K:  7.126e-08  alpha:  3.456e-01  linmin:  2.840e-06  t[s]:  54701.78
	FillingsUpdate:  mu: +0.128003695  nElectrons: 347.000000  magneticMoment: [ Abs: 44.20577  Tot: -0.00000 ]
	SubspaceRotationAdjust: set factor to 0.58
ElecMinimize: Iter:  17  F: -2005.198130713606133  |grad|_K:  6.425e-08  alpha:  3.057e-01  linmin: -1.227e-06  t[s]:  54778.86
	FillingsUpdate:  mu: +0.127976971  nElectrons: 347.000000  magneticMoment: [ Abs: 44.20543  Tot: -0.00000 ]
	SubspaceRotationAdjust: set factor to 0.56
ElecMinimize: Iter:  18  F: -2005.198130891015808  |grad|_K:  4.985e-08  alpha:  2.463e-01  linmin:  4.647e-06  t[s]:  54855.01
ElecMinimize: Converged (|Delta F|<1.000000e-06 for 5 iters).
Setting wave functions to eigenvectors of Hamiltonian

# Ionic positions in lattice coordinates:
ion Ni  -0.005796707621134   0.008562857625018   0.155468057680268 1
ion Ni  -0.246456213002731   0.246020493862316   0.051722150658955 1
ion Ni  -0.247846224326063   0.750656402391659   0.053691735335248 1
ion V   0.506270820309811   0.000488747434171   0.156020337421414 1
ion V   0.002000008454746   0.500164125605534   0.152347371389581 1
ion V   0.000000000000000   0.000000000000000  -0.050000000000000 0
ion V   0.500000000000000   0.500000000000000  -0.050000000000000 0
ion V   0.250000000000000   0.750000000000000  -0.150000000000000 0
ion V  -0.250000000000000   0.250000000000000  -0.150000000000000 0
ion Co   0.509223604319794   0.495645159684200   0.150191022382029 1
ion Co   0.249846930261393   0.245570197762301   0.052223986913660 1
ion Co   0.500000000000000   0.000000000000000  -0.050000000000000 0
ion Co   0.000000000000000   0.500000000000000  -0.050000000000000 0
ion Co  -0.250000000000000   0.750000000000000  -0.150000000000000 0
ion Cr   0.252248964240656   0.749161299599165   0.052441321753157 1
ion Cr   0.250000000000000   0.250000000000000  -0.150000000000000 0
ion O   0.251132805389159   0.259033429986542   0.150365099933930 1
ion O   0.258761363702985   0.737553555378184   0.145820483794707 1
ion O  -0.243495414159153   0.256664036041940   0.147143799414746 1
ion O  -0.244182276725638   0.742680187733326   0.149683211590068 1
ion O   0.006308157519185  -0.015186098608072   0.053032881322583 1
ion O   0.491858180906463  -0.009816195001815   0.052647192505339 1
ion O   0.008964405232782   0.509511584172436   0.053145736313056 1
ion O   0.503392677541259   0.519444483904198   0.049236192814725 1
ion O   0.250000000000000   0.250000000000000  -0.050000000000000 0
ion O   0.250000000000000   0.750000000000000  -0.050000000000000 0
ion O  -0.250000000000000   0.250000000000000  -0.050000000000000 0
ion O  -0.250000000000000   0.750000000000000  -0.050000000000000 0
ion O   0.000000000000000   0.000000000000000  -0.150000000000000 0
ion O   0.500000000000000   0.000000000000000  -0.150000000000000 0
ion O   0.000000000000000   0.500000000000000  -0.150000000000000 0
ion O   0.500000000000000   0.500000000000000  -0.150000000000000 0
ion O   0.005902635997142  -0.005583842148526   0.239026906760464 1

# Forces in Lattice coordinates:
force Ni   0.006137021575443  -0.005579337940062   0.031110180015858 1
force Ni  -0.002804858928564   0.004619693224286   0.000368257077931 1
force Ni   0.001236296937691   0.001178080177886  -0.023906171054017 1
force V  -0.002408537270268  -0.000719213120350   0.002128527402578 1
force V   0.003593460297825   0.003989378557359   0.002545453258084 1
force V  -0.128857559300149   0.008817597511387   0.577990709729673 0
force V   0.037663237784635   0.019828723057526   0.481290240521334 0
force V   0.027339465286758  -0.020753278078400  -0.477836188383120 0
force V   0.023313525572153  -0.017397821081152  -0.462430492425608 0
force Co   0.002131370793285   0.000331709025010   0.010279779752175 1
force Co   0.002870018119001   0.000915720369994   0.026589283212984 1
force Co   0.077753059076917   0.012094238402193   0.387899424029949 0
force Co  -0.089984795190693  -0.019357441647097   0.371020317757664 0
force Co   0.022110245672648  -0.001399418151161  -0.161958018043706 0
force Cr   0.002731232059579  -0.003073551929282   0.039038999184158 1
force Cr   0.018302796985057   0.009419299270752  -1.540940182586668 0
force O   0.003009272161065  -0.002390717040995  -0.000536427533454 1
force O   0.000068140870937   0.002186541180601  -0.001347447709811 1
force O   0.001249873548124  -0.000110273287076   0.024081754226955 1
force O   0.000452277011423   0.002977885615646   0.010796769351086 1
force O  -0.003746508823719  -0.002074733014482   0.019880356737776 1
force O   0.005793704755423   0.001088842665650   0.001816177303662 1
force O  -0.000200201282954   0.001446329206315   0.002023406133941 1
force O   0.008359562866846   0.002402530067916   0.006259460854407 1
force O  -0.014583797644334  -0.011121185771374   1.033977331840159 0
force O  -0.036923205660110   0.030581319180378   0.372637752837758 0
force O   0.011121257396367  -0.006442906535332   0.183423340073885 0
force O   0.000103372756295   0.005915678489885   0.004626940913543 0
force O   0.042341432227270  -0.003108562738623  -0.229395818586316 0
force O  -0.025455170228382  -0.002772419036688  -0.163812435454906 0
force O   0.014925843278720   0.014971471584481  -0.208368485106252 0
force O  -0.000860885791579  -0.012462192528614  -0.307563780221007 0
force O   0.000437224528036   0.002462070389377   0.017325858299046 1

# Energy components:
   Eewald =     5611.1635199021857261
       EH =     7418.9458519997897383
     Eloc =   -15190.7629083833780896
      Enl =     -525.9829363804906279
   Epulay =       -0.0004802615331704
      Exc =     -246.1552682623977262
       KE =      926.4798448644262407
        U =        1.1150244612906477
-------------------------------------
     Etot =    -2005.1973520601072778
       TS =        0.0007788309084503
-------------------------------------
        F =    -2005.1981308910158077

IonicMinimize: Iter:  12  F: -2005.198130891015808  |grad|_K:  3.354e-04  alpha:  1.000e+00  linmin: -1.788e-02  t[s]:  54866.29

#--- Lowdin population analysis ---
# oxidation-state Ni +3.695 +3.431 +3.445
# magnetic-moments Ni +0.926 +0.868 +0.106
# oxidation-state V +1.125 +1.232 +0.972 +0.961 +1.047 +1.031
# magnetic-moments V -2.963 +2.568 -2.863 +2.851 -2.942 +2.948
# oxidation-state Co +1.268 +1.245 +1.262 +1.265 +1.299
# magnetic-moments Co -2.720 +2.713 +2.726 -2.739 +2.778
# oxidation-state Cr +2.927 +2.922
# magnetic-moments Cr -3.277 -3.892
# oxidation-state O -0.946 -0.846 -0.852 -0.842 -0.794 -0.865 -0.849 -0.838 -1.034 -0.961 -0.945 -0.994 -0.967 -1.007 -1.007 -0.971 -0.477
# magnetic-moments O +0.098 +0.102 +0.175 +0.223 +0.166 +0.106 +0.033 +0.025 -0.020 +0.026 +0.040 +0.116 +0.076 +0.096 +0.019 +0.046 +1.228


-------- Electronic minimization -----------
	FillingsUpdate:  mu: +0.174636324  nElectrons: 347.000000  magneticMoment: [ Abs: 44.20480  Tot: +0.00000 ]
ElecMinimize: Iter:   0  F: -2004.844716946898870  |grad|_K:  1.012e-04  alpha:  1.000e+00
	FillingsUpdate:  mu: +0.150853663  nElectrons: 347.000000  magneticMoment: [ Abs: 44.15265  Tot: -0.00000 ]
	SubspaceRotationAdjust: set factor to 0.384
ElecMinimize: Iter:   1  F: -2005.147941048515804  |grad|_K:  4.391e-05  alpha:  1.445e-01  linmin: -1.285e-02  t[s]:  54968.19
	FillingsUpdate:  mu: +0.129899709  nElectrons: 347.000000  magneticMoment: [ Abs: 44.23148  Tot: +0.00000 ]
	SubspaceRotationAdjust: set factor to 0.347
ElecMinimize: Iter:   2  F: -2005.181433547418237  |grad|_K:  1.374e-05  alpha:  1.044e-01  linmin: -6.803e-03  t[s]:  55045.75
	FillingsUpdate:  mu: +0.129938761  nElectrons: 347.000000  magneticMoment: [ Abs: 44.17746  Tot: -0.00000 ]
	SubspaceRotationAdjust: set factor to 0.397
ElecMinimize: Iter:   3  F: -2005.191219389554590  |grad|_K:  7.202e-06  alpha:  2.706e-01  linmin:  7.279e-04  t[s]:  55123.68
	FillingsUpdate:  mu: +0.127913766  nElectrons: 347.000000  magneticMoment: [ Abs: 44.18946  Tot: +0.00000 ]
	SubspaceRotationAdjust: set factor to 0.52
ElecMinimize: Iter:   4  F: -2005.194350082949086  |grad|_K:  5.088e-06  alpha:  3.543e-01  linmin: -2.274e-05  t[s]:  55202.00
	FillingsUpdate:  mu: +0.127845520  nElectrons: 347.000000  magneticMoment: [ Abs: 44.21193  Tot: -0.00000 ]
	SubspaceRotationAdjust: set factor to 0.645
ElecMinimize: Iter:   5  F: -2005.196261144654954  |grad|_K:  4.141e-06  alpha:  4.242e-01  linmin:  7.239e-05  t[s]:  55278.26
	FillingsUpdate:  mu: +0.128863016  nElectrons: 347.000000  magneticMoment: [ Abs: 44.19473  Tot: -0.00000 ]
	SubspaceRotationAdjust: set factor to 0.677
ElecMinimize: Iter:   6  F: -2005.197320427289242  |grad|_K:  3.453e-06  alpha:  3.573e-01  linmin:  1.145e-05  t[s]:  55356.81
	FillingsUpdate:  mu: +0.127330482  nElectrons: 347.000000  magneticMoment: [ Abs: 44.22075  Tot: -0.00000 ]
	SubspaceRotationAdjust: set factor to 0.561
ElecMinimize: Iter:   7  F: -2005.197858673523569  |grad|_K:  2.318e-06  alpha:  2.609e-01  linmin: -1.847e-05  t[s]:  55435.67
	FillingsUpdate:  mu: +0.128119125  nElectrons: 347.000000  magneticMoment: [ Abs: 44.21033  Tot: -0.00000 ]
	SubspaceRotationAdjust: set factor to 0.407
ElecMinimize: Iter:   8  F: -2005.198052653364584  |grad|_K:  1.460e-06  alpha:  2.065e-01  linmin:  1.028e-05  t[s]:  55511.36
	FillingsUpdate:  mu: +0.127623480  nElectrons: 347.000000  magneticMoment: [ Abs: 44.21076  Tot: +0.00000 ]
	SubspaceRotationAdjust: set factor to 0.35
ElecMinimize: Iter:   9  F: -2005.198150868599669  |grad|_K:  8.952e-07  alpha:  2.655e-01  linmin:  8.754e-05  t[s]:  55589.74
	FillingsUpdate:  mu: +0.127705210  nElectrons: 347.000000  magneticMoment: [ Abs: 44.21517  Tot: -0.00000 ]
	SubspaceRotationAdjust: set factor to 0.379
ElecMinimize: Iter:  10  F: -2005.198186575206819  |grad|_K:  5.242e-07  alpha:  2.580e-01  linmin: -1.428e-05  t[s]:  55668.39
	FillingsUpdate:  mu: +0.127803205  nElectrons: 347.000000  magneticMoment: [ Abs: 44.21514  Tot: -0.00000 ]
	SubspaceRotationAdjust: set factor to 0.408
ElecMinimize: Iter:  11  F: -2005.198201962723715  |grad|_K:  3.677e-07  alpha:  3.213e-01  linmin: -1.371e-05  t[s]:  55747.92
	FillingsUpdate:  mu: +0.127707373  nElectrons: 347.000000  magneticMoment: [ Abs: 44.21543  Tot: -0.00000 ]
	SubspaceRotationAdjust: set factor to 0.453
ElecMinimize: Iter:  12  F: -2005.198208830710428  |grad|_K:  2.659e-07  alpha:  2.915e-01  linmin:  1.106e-05  t[s]:  55825.30
	FillingsUpdate:  mu: +0.127726578  nElectrons: 347.000000  magneticMoment: [ Abs: 44.21668  Tot: -0.00000 ]
	SubspaceRotationAdjust: set factor to 0.551
ElecMinimize: Iter:  13  F: -2005.198213040046085  |grad|_K:  2.057e-07  alpha:  3.421e-01  linmin: -2.535e-06  t[s]:  55903.65
	FillingsUpdate:  mu: +0.127779680  nElectrons: 347.000000  magneticMoment: [ Abs: 44.21689  Tot: -0.00000 ]
	SubspaceRotationAdjust: set factor to 0.645
ElecMinimize: Iter:  14  F: -2005.198215660058395  |grad|_K:  1.707e-07  alpha:  3.556e-01  linmin: -2.301e-07  t[s]:  55981.17
	FillingsUpdate:  mu: +0.127723653  nElectrons: 347.000000  magneticMoment: [ Abs: 44.21761  Tot: -0.00000 ]
	SubspaceRotationAdjust: set factor to 0.599
ElecMinimize: Iter:  15  F: -2005.198217056187332  |grad|_K:  1.466e-07  alpha:  2.751e-01  linmin:  3.307e-06  t[s]:  56060.01
	FillingsUpdate:  mu: +0.127750049  nElectrons: 347.000000  magneticMoment: [ Abs: 44.21818  Tot: +0.00000 ]
	SubspaceRotationAdjust: set factor to 0.531
ElecMinimize: Iter:  16  F: -2005.198217966684069  |grad|_K:  1.048e-07  alpha:  2.435e-01  linmin: -2.876e-06  t[s]:  56137.70
	FillingsUpdate:  mu: +0.127734407  nElectrons: 347.000000  magneticMoment: [ Abs: 44.21844  Tot: -0.00000 ]
	SubspaceRotationAdjust: set factor to 0.622
ElecMinimize: Iter:  17  F: -2005.198218555402036  |grad|_K:  7.808e-08  alpha:  3.079e-01  linmin:  2.419e-06  t[s]:  56214.25
	FillingsUpdate:  mu: +0.127744566  nElectrons: 347.000000  magneticMoment: [ Abs: 44.21864  Tot: -0.00000 ]
	SubspaceRotationAdjust: set factor to 0.768
ElecMinimize: Iter:  18  F: -2005.198218965931119  |grad|_K:  6.758e-08  alpha:  3.867e-01  linmin: -2.877e-07  t[s]:  56291.88
	FillingsUpdate:  mu: +0.127758466  nElectrons: 347.000000  magneticMoment: [ Abs: 44.21903  Tot: -0.00000 ]
	SubspaceRotationAdjust: set factor to 0.843
ElecMinimize: Iter:  19  F: -2005.198219255187496  |grad|_K:  7.067e-08  alpha:  3.636e-01  linmin: -7.875e-06  t[s]:  56371.56
	FillingsUpdate:  mu: +0.127731080  nElectrons: 347.000000  magneticMoment: [ Abs: 44.21909  Tot: +0.00000 ]
	SubspaceRotationAdjust: set factor to 0.779
ElecMinimize: Iter:  20  F: -2005.198219467858735  |grad|_K:  7.199e-08  alpha:  2.441e-01  linmin:  1.179e-06  t[s]:  56449.38
ElecMinimize: Converged (|Delta F|<1.000000e-06 for 5 iters).
Setting wave functions to eigenvectors of Hamiltonian

# Ionic positions in lattice coordinates:
ion Ni  -0.005230410539608   0.008865871294500   0.156241771935085 1
ion Ni  -0.246207725883977   0.246057336561414   0.051932602539751 1
ion Ni  -0.247347696850702   0.751156172568348   0.053797009749659 1
ion V   0.506540821938738   0.000439176680086   0.156146794131021 1
ion V   0.002674740645499   0.500554760706045   0.152520574292434 1
ion V   0.000000000000000   0.000000000000000  -0.050000000000000 0
ion V   0.500000000000000   0.500000000000000  -0.050000000000000 0
ion V   0.250000000000000   0.750000000000000  -0.150000000000000 0
ion V  -0.250000000000000   0.250000000000000  -0.150000000000000 0
ion Co   0.510107141278413   0.495433438412072   0.150317342456496 1
ion Co   0.250150866887142   0.245602644443267   0.052516240637449 1
ion Co   0.500000000000000   0.000000000000000  -0.050000000000000 0
ion Co   0.000000000000000   0.500000000000000  -0.050000000000000 0
ion Co  -0.250000000000000   0.750000000000000  -0.150000000000000 0
ion Cr   0.252856977806934   0.749102137254854   0.052748778530309 1
ion Cr   0.250000000000000   0.250000000000000  -0.150000000000000 0
ion O   0.251565096384041   0.258644753170744   0.150510783403464 1
ion O   0.259616417124095   0.737196623772298   0.145993102292810 1
ion O  -0.242629440422747   0.256697699587973   0.147524387070310 1
ion O  -0.243451878726155   0.742871595175439   0.150094726469966 1
ion O   0.006047785758110  -0.015642688192753   0.053516257247610 1
ion O   0.492108764194471  -0.009307546491845   0.052874884750965 1
ion O   0.009630074293398   0.509382403036410   0.053378899283661 1
ion O   0.504844818959632   0.520402454161822   0.049299013527889 1
ion O   0.250000000000000   0.250000000000000  -0.050000000000000 0
ion O   0.250000000000000   0.750000000000000  -0.050000000000000 0
ion O  -0.250000000000000   0.250000000000000  -0.050000000000000 0
ion O  -0.250000000000000   0.750000000000000  -0.050000000000000 0
ion O   0.000000000000000   0.000000000000000  -0.150000000000000 0
ion O   0.500000000000000   0.000000000000000  -0.150000000000000 0
ion O   0.000000000000000   0.500000000000000  -0.150000000000000 0
ion O   0.500000000000000   0.500000000000000  -0.150000000000000 0
ion O   0.006517795878290  -0.005831568447603   0.239790134811675 1

# Forces in Lattice coordinates:
force Ni   0.001745071514176   0.001422258135957  -0.010677930842682 1
force Ni   0.000615420516947   0.003312912345079  -0.022218623796582 1
force Ni   0.004209389712325  -0.001546023577068  -0.008839583367326 1
force V   0.003474764708945  -0.000437051186651   0.009941789827438 1
force V   0.003237107450166   0.001711081020050   0.008969908866614 1
force V  -0.127185007498385   0.008446184838421   0.600339994739889 0
force V   0.038228375283036   0.020425527209966   0.489038722427583 0
force V   0.027576576813917  -0.020919082494734  -0.474653907754316 0
force V   0.023169715868901  -0.017203657150466  -0.460670413269248 0
force Co   0.009808341561286  -0.000910395145516  -0.013086736360203 1
force Co   0.001135195972259  -0.001441458519568  -0.011280226929590 1
force Co   0.077258620407877   0.013008776103479   0.398100298407444 0
force Co  -0.088851198575255  -0.019774414746972   0.387466791640555 0
force Co   0.021740672175299  -0.001679946735672  -0.148151223239153 0
force Cr  -0.001570020883816   0.001017033171409   0.000089904821491 1
force Cr   0.018570534719730   0.009652876883659  -1.538024477851296 0
force O   0.003734270923153   0.001171786715567   0.001688273901430 1
force O   0.000062004405060   0.002852658200036   0.004009681072775 1
force O  -0.005184473793140  -0.001550730118987   0.020599054828903 1
force O  -0.003578885504779   0.003490639049725  -0.029158266597751 1
force O  -0.001449074298150  -0.001757317440415   0.002838025408845 1
force O   0.003276811846697   0.000317026490491  -0.002514559566541 1
force O  -0.001066476253649   0.000012157795618  -0.007873452449844 1
force O   0.004161846564842  -0.003044235683694   0.004430170470757 1
force O  -0.014452005309191  -0.011517870554138   1.051507561613715 0
force O  -0.036269992163425   0.031017447946613   0.386301399964012 0
force O   0.011357074932406  -0.006438237639464   0.193052391124916 0
force O   0.000968141141137   0.006945880853244   0.006689582076884 0
force O   0.042451784960102  -0.003155990291856  -0.227903584916812 0
force O  -0.025449428409054  -0.002756895171841  -0.164201770753332 0
force O   0.014853666731717   0.014941742718116  -0.209007476028498 0
force O  -0.001186374490294  -0.012697225667881  -0.308221722324533 0
force O   0.001607857107292   0.002090785732731  -0.009351645379887 1

# Energy components:
   Eewald =     5600.1933580589948178
       EH =     7407.9249899222495515
     Eloc =   -15168.7624571235082840
      Enl =     -525.9779336710059852
   Epulay =       -0.0004802615331704
      Exc =     -246.1494658838446128
       KE =      926.4595024560605907
        U =        1.1150463464018023
-------------------------------------
     Etot =    -2005.1974401561853938
       TS =        0.0007793116733775
-------------------------------------
        F =    -2005.1982194678587348

IonicMinimize: Iter:  13  F: -2005.198219467858735  |grad|_K:  2.736e-04  alpha:  1.000e+00  linmin:  3.221e-03  t[s]:  56460.64
IonicMinimize: Converged (|Delta F|<1.000000e-04 for 3 iters).

#--- Lowdin population analysis ---
# oxidation-state Ni +3.698 +3.434 +3.447
# magnetic-moments Ni +0.926 +0.869 +0.103
# oxidation-state V +1.125 +1.231 +0.973 +0.961 +1.047 +1.031
# magnetic-moments V -2.962 +2.568 -2.865 +2.852 -2.942 +2.948
# oxidation-state Co +1.268 +1.245 +1.262 +1.265 +1.299
# magnetic-moments Co -2.720 +2.713 +2.727 -2.739 +2.778
# oxidation-state Cr +2.929 +2.922
# magnetic-moments Cr -3.278 -3.892
# oxidation-state O -0.946 -0.846 -0.853 -0.842 -0.794 -0.865 -0.849 -0.836 -1.034 -0.962 -0.945 -0.994 -0.967 -1.007 -1.007 -0.971 -0.476
# magnetic-moments O +0.099 +0.101 +0.176 +0.223 +0.166 +0.105 +0.032 +0.025 -0.020 +0.027 +0.040 +0.117 +0.076 +0.096 +0.019 +0.046 +1.230


Dumping 'run.ionpos' ... done
Dumping 'run.lattice' ... done
Dumping 'run.Ecomponents' ... done
End date and time: Sat May 10 19:02:21 2025  (Duration: 0-15:41:03.84)
Done!
