/var/spool/slurmd/job44404/slurm_script: line 9: module: command not found
/var/spool/slurmd/job44404/slurm_script: line 10: module: command not found

*************** JDFTx 1.7.0  ***************

Start date and time: Fri May 16 21:18:08 2025
Executable /data2/jt577/jdftx_eat_withLibXC/build/jdftx with command-line: -i /data2/jt577/May_2025/Relax_Mag_litU/rel18+1_6/O/runs/calc_/run.in
Running on hosts (process indices):  node3406 (0-8)
Divided in process groups (process indices):  0 (0)  1 (1)  2 (2)  3 (3)  4 (4)  5 (5)  6 (6)  7 (7)  8 (8)
Resource initialization completed at t[s]:      0.00
Run totals: 9 processes, 90 threads, 0 GPUs


Input parsed successfully to the following command list (including defaults):

add-mix 
add-U 	Ni d 0.235196 \
	V d 0.113923 \
	Co d 0.121273 \
	Cr d 0.128623
basis kpoint-dependent
coords-type Lattice
core-overlap-check vector
coulomb-interaction Periodic
davidson-band-ratio 1.1
dump End IonicPositions Lattice Ecomponents
dump-name run.$VAR
elec-cutoff 30
elec-eigen-algo Davidson
elec-ex-corr gga-x-rpbe gga-c-pbe
elec-smearing Fermi 0.001
electronic-minimize  \
	dirUpdateScheme      FletcherReeves \
	linminMethod         DirUpdateRecommended \
	nIterations          1000 \
	history              15 \
	knormThreshold       0 \
	energyDiffThreshold  1e-06 \
	nEnergyDiff          5 \
	alphaTstart          1 \
	alphaTmin            1e-10 \
	updateTestStepSize   yes \
	alphaTreduceFactor   0.1 \
	alphaTincreaseFactor 3 \
	nAlphaAdjustMax      3 \
	wolfeEnergy          0.0001 \
	wolfeGradient        0.9 \
	fdTest               no
exchange-regularization WignerSeitzTruncated
fluid None
fluid-ex-corr (null) lda-PZ
fluid-gummel-loop 10 1.000000e-05
fluid-minimize  \
	dirUpdateScheme      PolakRibiere \
	linminMethod         DirUpdateRecommended \
	nIterations          100 \
	history              15 \
	knormThreshold       0 \
	energyDiffThreshold  0 \
	nEnergyDiff          2 \
	alphaTstart          1 \
	alphaTmin            1e-10 \
	updateTestStepSize   yes \
	alphaTreduceFactor   0.1 \
	alphaTincreaseFactor 3 \
	nAlphaAdjustMax      3 \
	wolfeEnergy          0.0001 \
	wolfeGradient        0.9 \
	fdTest               no
fluid-solvent H2O 55.338 ScalarEOS \
	epsBulk 78.4 \
	pMol 0.92466 \
	epsInf 1.77 \
	Pvap 1.06736e-10 \
	sigmaBulk 4.62e-05 \
	Rvdw 2.61727 \
	Res 1.42 \
	tauNuc 343133 \
	poleEl 15 7 1
forces-output-coords Positions
initial-magnetic-moments  \
	Ni 1 -1 -1 \
	V -1 1 -1 1 -1 1 \
	Co -1 1 1 -1 1 \
	Cr 1 -1
initial-state run.$VAR
ion Ni  0.000000000000000   0.000000000000000   0.150000000000000 1
ion Ni -0.250000000000000   0.250000000000000   0.050000000000000 1
ion Ni -0.250000000000000   0.750000000000000   0.050000000000000 1
ion V  0.500000000000000   0.000000000000000   0.150000000000000 1
ion V  0.000000000000000   0.500000000000000   0.150000000000000 1
ion V  0.000000000000000   0.000000000000000  -0.050000000000000 0
ion V  0.500000000000000   0.500000000000000  -0.050000000000000 0
ion V  0.250000000000000   0.750000000000000  -0.150000000000000 0
ion V -0.250000000000000   0.250000000000000  -0.150000000000000 0
ion Co  0.500000000000000   0.500000000000000   0.150000000000000 1
ion Co  0.250000000000000   0.250000000000000   0.050000000000000 1
ion Co  0.500000000000000   0.000000000000000  -0.050000000000000 0
ion Co  0.000000000000000   0.500000000000000  -0.050000000000000 0
ion Co -0.250000000000000   0.750000000000000  -0.150000000000000 0
ion Cr  0.250000000000000   0.750000000000000   0.050000000000000 1
ion Cr  0.250000000000000   0.250000000000000  -0.150000000000000 0
ion O  0.250000000000000   0.250000000000000   0.150000000000000 1
ion O  0.250000000000000   0.750000000000000   0.150000000000000 1
ion O -0.250000000000000   0.250000000000000   0.150000000000000 1
ion O -0.250000000000000   0.750000000000000   0.150000000000000 1
ion O  0.000000000000000   0.000000000000000   0.050000000000000 1
ion O  0.500000000000000   0.000000000000000   0.050000000000000 1
ion O  0.000000000000000   0.500000000000000   0.050000000000000 1
ion O  0.500000000000000   0.500000000000000   0.050000000000000 1
ion O  0.250000000000000   0.250000000000000  -0.050000000000000 0
ion O  0.250000000000000   0.750000000000000  -0.050000000000000 0
ion O -0.250000000000000   0.250000000000000  -0.050000000000000 0
ion O -0.250000000000000   0.750000000000000  -0.050000000000000 0
ion O  0.000000000000000   0.000000000000000  -0.150000000000000 0
ion O  0.500000000000000   0.000000000000000  -0.150000000000000 0
ion O  0.000000000000000   0.500000000000000  -0.150000000000000 0
ion O  0.500000000000000   0.500000000000000  -0.150000000000000 0
ion O -0.000095572322686   0.000198307128402   0.224876729873325 1
ion-species SG15/$ID_ONCV_PBE.upf
ion-width 0
ionic-minimize  \
	dirUpdateScheme      L-BFGS \
	linminMethod         DirUpdateRecommended \
	nIterations          1000 \
	history              15 \
	knormThreshold       0.0001 \
	energyDiffThreshold  0.0001 \
	nEnergyDiff          3 \
	alphaTstart          1 \
	alphaTmin            1e-10 \
	updateTestStepSize   yes \
	alphaTreduceFactor   0.1 \
	alphaTincreaseFactor 3 \
	nAlphaAdjustMax      3 \
	wolfeEnergy          0.0001 \
	wolfeGradient        0.9 \
	fdTest               no
kpoint   0.500000000000   0.500000000000   0.500000000000  1.00000000000000
kpoint-folding 3 3 1 
latt-move-scale 1 1 1
latt-scale 1 1 1 
lattice  \
	   8.140000000000001    8.140000000000001    0.000000000000000  \
	   8.140000000000001   -8.140000000000001    0.000000000000000  \
	   0.000000000000000    0.000000000000000   40.700000000000003 
lattice-minimize  \
	dirUpdateScheme      L-BFGS \
	linminMethod         DirUpdateRecommended \
	nIterations          0 \
	history              15 \
	knormThreshold       0 \
	energyDiffThreshold  1e-06 \
	nEnergyDiff          2 \
	alphaTstart          1 \
	alphaTmin            1e-10 \
	updateTestStepSize   yes \
	alphaTreduceFactor   0.1 \
	alphaTincreaseFactor 3 \
	nAlphaAdjustMax      3 \
	wolfeEnergy          0.0001 \
	wolfeGradient        0.9 \
	fdTest               no
lcao-params -1 1e-06 0.001
pcm-variant GLSSA13
spintype z-spin
subspace-rotation-factor 1 yes
symmetries none
symmetry-threshold 0.0001


Applied RMS atom displacement 0 bohrs to make symmetries exact.

---------- Initializing the Grid ----------
R = 
[         8.14         8.14            0  ]
[         8.14        -8.14            0  ]
[            0            0         40.7  ]
unit cell volume = 5393.53
G =
[   0.385945   0.385945         -0  ]
[   0.385945  -0.385945         -0  ]
[         -0         -0   0.154378  ]
Minimum fftbox size, Smin = [  60  60  204  ]
Chosen fftbox size, S = [  60  60  210  ]

---------- Exchange Correlation functional ----------
Initialized LibXC exchange functional 'Hammer, Hansen, and Norskov'
Initialized LibXC correlation functional 'Perdew, Burke & Ernzerhof'

---------- Setting up pseudopotentials ----------
Width of ionic core gaussian charges (only for fluid interactions / plotting) set to 0

Reading pseudopotential file '/data2/jt577/jdftx_eat_withLibXC/build/pseudopotentials/SG15/Ni_ONCV_PBE.upf':
  'Ni' pseudopotential, 'PBE' functional
  Generated using ONCVPSP code by D. R. Hamann
  Author: Martin Schlipf and Francois Gygi  Date: 150915.
  18 valence electrons, 4 orbitals, 6 projectors, 1292 radial grid points, with lMax = 2
  Transforming local potential to a uniform radial grid of dG=0.02 with 1419 points.
  Transforming nonlocal projectors to a uniform radial grid of dG=0.02 with 528 points.
    3S    l: 0   occupation:  2.0   eigenvalue: -4.081355
    3P    l: 1   occupation:  6.0   eigenvalue: -2.623460
    4S    l: 0   occupation:  2.0   eigenvalue: -0.207378
    3D    l: 2   occupation:  8.0   eigenvalue: -0.326118
  Transforming atomic orbitals to a uniform radial grid of dG=0.02 with 528 points.
  WARNING: large normalization error in atomic orbital 1s (integral: 0.000006).
  Core radius for overlap checks: 1.99 bohrs.
  Reading pulay file /data2/jt577/jdftx_eat_withLibXC/build/pseudopotentials/SG15/Ni_ONCV_PBE.pulay ... using dE_dnG = -7.250568e-04 computed for Ecut = 30.

Reading pseudopotential file '/data2/jt577/jdftx_eat_withLibXC/build/pseudopotentials/SG15/V_ONCV_PBE.upf':
  'V' pseudopotential, 'PBE' functional
  Generated using ONCVPSP code by D. R. Hamann
  Author: Martin Schlipf and Francois Gygi  Date: 150915.
  13 valence electrons, 4 orbitals, 6 projectors, 1536 radial grid points, with lMax = 2
  Transforming local potential to a uniform radial grid of dG=0.02 with 1419 points.
  Transforming nonlocal projectors to a uniform radial grid of dG=0.02 with 528 points.
    3S    l: 0   occupation:  2.0   eigenvalue: -2.581105
    3P    l: 1   occupation:  6.0   eigenvalue: -1.618486
    4S    l: 0   occupation:  2.0   eigenvalue: -0.172804
    3D    l: 2   occupation:  3.0   eigenvalue: -0.189795
  Transforming atomic orbitals to a uniform radial grid of dG=0.02 with 528 points.
  Core radius for overlap checks: 1.80 bohrs.
  Reading pulay file /data2/jt577/jdftx_eat_withLibXC/build/pseudopotentials/SG15/V_ONCV_PBE.pulay ... using dE_dnG = -1.698632e-04 computed for Ecut = 30.

Reading pseudopotential file '/data2/jt577/jdftx_eat_withLibXC/build/pseudopotentials/SG15/Co_ONCV_PBE.upf':
  'Co' pseudopotential, 'PBE' functional
  Generated using ONCVPSP code by D. R. Hamann
  Author: Martin Schlipf and Francois Gygi  Date: 150915.
  17 valence electrons, 4 orbitals, 6 projectors, 1388 radial grid points, with lMax = 2
  Transforming local potential to a uniform radial grid of dG=0.02 with 1419 points.
  Transforming nonlocal projectors to a uniform radial grid of dG=0.02 with 528 points.
    3S    l: 0   occupation:  2.0   eigenvalue: -3.763303
    3P    l: 1   occupation:  6.0   eigenvalue: -2.412101
    4S    l: 0   occupation:  2.0   eigenvalue: -0.201022
    3D    l: 2   occupation:  7.0   eigenvalue: -0.301498
  Transforming atomic orbitals to a uniform radial grid of dG=0.02 with 528 points.
  Core radius for overlap checks: 1.94 bohrs.
  Reading pulay file /data2/jt577/jdftx_eat_withLibXC/build/pseudopotentials/SG15/Co_ONCV_PBE.pulay ... using dE_dnG = -9.787391e-05 computed for Ecut = 30.

Reading pseudopotential file '/data2/jt577/jdftx_eat_withLibXC/build/pseudopotentials/SG15/Cr_ONCV_PBE.upf':
  'Cr' pseudopotential, 'PBE' functional
  Generated using ONCVPSP code by D. R. Hamann
  Author: Martin Schlipf and Francois Gygi  Date: 150915.
  14 valence electrons, 4 orbitals, 6 projectors, 1160 radial grid points, with lMax = 2
  Transforming local potential to a uniform radial grid of dG=0.02 with 1419 points.
  Transforming nonlocal projectors to a uniform radial grid of dG=0.02 with 528 points.
    3S    l: 0   occupation:  2.0   eigenvalue: -2.865131
    3P    l: 1   occupation:  6.0   eigenvalue: -1.810600
    4S    l: 0   occupation:  2.0   eigenvalue: -0.180525
    3D    l: 2   occupation:  4.0   eigenvalue: -0.220312
  Transforming atomic orbitals to a uniform radial grid of dG=0.02 with 528 points.
  WARNING: large normalization error in atomic orbital 1s (integral: 0.000001).
  Core radius for overlap checks: 2.10 bohrs.
  Reading pulay file /data2/jt577/jdftx_eat_withLibXC/build/pseudopotentials/SG15/Cr_ONCV_PBE.pulay ... using dE_dnG = -9.817895e-06 computed for Ecut = 30.

Reading pseudopotential file '/data2/jt577/jdftx_eat_withLibXC/build/pseudopotentials/SG15/O_ONCV_PBE.upf':
  'O' pseudopotential, 'PBE' functional
  Generated using ONCVPSP code by D. R. Hamann
  Author: Martin Schlipf and Francois Gygi  Date: 150915.
  6 valence electrons, 2 orbitals, 4 projectors, 936 radial grid points, with lMax = 1
  Transforming local potential to a uniform radial grid of dG=0.02 with 1419 points.
  Transforming nonlocal projectors to a uniform radial grid of dG=0.02 with 528 points.
    2S    l: 0   occupation:  2.0   eigenvalue: -0.880572
    2P    l: 1   occupation:  4.0   eigenvalue: -0.331869
  Transforming atomic orbitals to a uniform radial grid of dG=0.02 with 528 points.
  Core radius for overlap checks: 1.29 bohrs.
  Reading pulay file /data2/jt577/jdftx_eat_withLibXC/build/pseudopotentials/SG15/O_ONCV_PBE.pulay ... using dE_dnG = -8.209514e-03 computed for Ecut = 30.

Initialized 5 species with 33 total atoms.

Folded 1 k-points by 3x3x1 to 9 k-points.

---------- Setting up k-points, bands, fillings ----------
No reducable k-points. 
Computing the number of bands and number of electrons
Calculating initial fillings.
nElectrons: 347.000000   nBands: 228   nStates: 18

----- Setting up reduced wavefunction bases (one per k-point) -----
average nbasis = 42312.000 , ideal nbasis = 42330.081

---------- Setting up ewald sum ----------
Optimum gaussian width for ewald sums = 3.906449 bohr.
Real space sum over 605 unit cells with max indices [  5  5  2  ]
Reciprocal space sum over 5915 terms with max indices [  6  6  17  ]

---------- Allocating electronic variables ----------
Initializing wave functions:  linear combination of atomic orbitals
Ni (M=1) pseudo-atom majority spin occupations:   s ( 1 0.5 )  p ( 3 )  d ( 5 )
Ni (M=1) pseudo-atom minority spin occupations:   s ( 1 0 )  p ( 3 )  d ( 4.5 )
V (M=1) pseudo-atom majority spin occupations:   s ( 1 0 )  p ( 3 )  d ( 3 )
V (M=1) pseudo-atom minority spin occupations:   s ( 1 0 )  p ( 3 )  d ( 2 )
Co (M=1) pseudo-atom majority spin occupations:   s ( 1 0 )  p ( 3 )  d ( 5 )
Co (M=1) pseudo-atom minority spin occupations:   s ( 1 0 )  p ( 3 )  d ( 4 )
Cr (M=1) pseudo-atom majority spin occupations:   s ( 1 0 )  p ( 3 )  d ( 3.5 )
Cr (M=1) pseudo-atom minority spin occupations:   s ( 1 0 )  p ( 3 )  d ( 2.5 )
O pseudo-atom occupations:   s ( 2 )  p ( 4 )
	FillingsUpdate:  mu: +0.291590445  nElectrons: 347.000000  magneticMoment: [ Abs: 6.32533  Tot: +0.00000 ]
LCAOMinimize: Iter:   0  F: -1871.9442519943359002  |grad|_K:  3.482e-02  alpha:  1.000e+00
LCAOMinimize: 	Step increased F by 2.986197e+02, reducing alpha to 3.399925e-02.
	FillingsUpdate:  mu: +0.150560671  nElectrons: 347.000000  magneticMoment: [ Abs: 5.83026  Tot: -0.00000 ]
LCAOMinimize: Iter:   1  F: -1896.9349490571144088  |grad|_K:  1.964e-02  alpha:  3.400e-02  linmin: -6.500e-02  cgtest:  2.367e-01  t[s]:     53.11
LCAOMinimize: 	Predicted alpha/alphaT>3.000000, increasing alphaT to 1.019978e-01.
	FillingsUpdate:  mu: +0.871850203  nElectrons: 347.000000  magneticMoment: [ Abs: 13.23653  Tot: -0.00000 ]
LCAOMinimize: Iter:   2  F: -1908.5564159001805820  |grad|_K:  4.720e-02  alpha:  4.369e-02  linmin:  2.555e-02  cgtest: -1.470e-01  t[s]:     71.76
LCAOMinimize: 	Bad step direction: g.d > 0.
LCAOMinimize: 	Undoing step.
LCAOMinimize: 	Step failed: resetting search direction.
	FillingsUpdate:  mu: +0.871850203  nElectrons: 347.000000  magneticMoment: [ Abs: 13.23653  Tot: -0.00000 ]
LCAOMinimize: Iter:   3  F: -1908.5564159001805820  |grad|_K:  4.720e-02  alpha:  0.000e+00
	FillingsUpdate:  mu: +0.396150677  nElectrons: 347.000000  magneticMoment: [ Abs: 10.67790  Tot: +0.00000 ]
LCAOMinimize: Iter:   4  F: -1914.9711437964297147  |grad|_K:  5.105e-02  alpha:  1.828e-02  linmin:  8.462e-02  cgtest: -7.106e-01  t[s]:     96.44
LCAOMinimize: 	Bad step direction: g.d > 0.
LCAOMinimize: 	Undoing step.
LCAOMinimize: 	Step failed: resetting search direction.
	FillingsUpdate:  mu: +0.396150677  nElectrons: 347.000000  magneticMoment: [ Abs: 10.67790  Tot: +0.00000 ]
LCAOMinimize: Iter:   5  F: -1914.9711437964297147  |grad|_K:  5.105e-02  alpha:  0.000e+00
	FillingsUpdate:  mu: +0.298276935  nElectrons: 347.000000  magneticMoment: [ Abs: 13.55402  Tot: +0.00000 ]
LCAOMinimize: Iter:   6  F: -1922.1158653597967714  |grad|_K:  1.310e-02  alpha:  8.990e-03  linmin: -8.716e-02  cgtest:  1.500e+00  t[s]:    121.34
LCAOMinimize: Encountered beta<0, resetting CG.
LCAOMinimize: 	Wrong curvature in test step, increasing alphaT to 2.696947e-02.
	FillingsUpdate:  mu: +0.231605574  nElectrons: 347.000000  magneticMoment: [ Abs: 13.91167  Tot: -0.00000 ]
LCAOMinimize: Iter:   7  F: -1923.7882817311867711  |grad|_K:  1.132e-02  alpha: -3.030e-02  linmin: -5.838e-02  cgtest:  7.088e-01  t[s]:    134.76
	FillingsUpdate:  mu: +0.655447375  nElectrons: 347.000000  magneticMoment: [ Abs: 8.82893  Tot: +0.00000 ]
LCAOMinimize: Iter:   8  F: -1936.0357617268180093  |grad|_K:  1.636e-02  alpha:  1.344e-01  linmin:  1.479e-02  cgtest: -2.143e-01  t[s]:    149.16
	FillingsUpdate:  mu: +0.735175164  nElectrons: 347.000000  magneticMoment: [ Abs: 7.52004  Tot: +0.00000 ]
LCAOMinimize: Iter:   9  F: -1936.5091636789513814  |grad|_K:  1.598e-02  alpha:  5.148e-03  linmin:  4.128e-03  cgtest:  1.075e+00  t[s]:    163.53
LCAOMinimize: Encountered beta<0, resetting CG.
LCAOMinimize: 	Wrong curvature in test step, increasing alphaT to 1.544356e-02.
	FillingsUpdate:  mu: +0.672023696  nElectrons: 347.000000  magneticMoment: [ Abs: 7.73538  Tot: +0.00000 ]
LCAOMinimize: Iter:  10  F: -1937.8867576772577195  |grad|_K:  1.742e-02  alpha: -2.349e-02  linmin: -1.235e-01  cgtest:  7.971e-01  t[s]:    177.18
LCAOMinimize: 	Step increased F by 1.487295e+02, reducing alpha to 3.106714e-02.
	FillingsUpdate:  mu: +0.099441341  nElectrons: 347.000000  magneticMoment: [ Abs: 10.73530  Tot: -0.00000 ]
LCAOMinimize: Iter:  11  F: -1942.5770877732527424  |grad|_K:  1.498e-02  alpha:  3.107e-02  linmin: -2.564e-02  cgtest: -4.612e-01  t[s]:    201.86
	FillingsUpdate:  mu: -0.043295346  nElectrons: 347.000000  magneticMoment: [ Abs: 12.64514  Tot: +0.00000 ]
LCAOMinimize: Iter:  12  F: -1944.5022933129678222  |grad|_K:  1.134e-02  alpha:  7.757e-03  linmin: -6.064e-02  cgtest:  8.901e-01  t[s]:    216.33
LCAOMinimize: Encountered beta<0, resetting CG.
LCAOMinimize: 	Predicted alpha/alphaT>3.000000, increasing alphaT to 2.326973e-02.
	FillingsUpdate:  mu: +0.167917986  nElectrons: 347.000000  magneticMoment: [ Abs: 13.12718  Tot: -0.00000 ]
LCAOMinimize: Iter:  13  F: -1946.0153900802101816  |grad|_K:  1.206e-02  alpha:  2.002e-02  linmin:  4.822e-02  cgtest: -6.165e-02  t[s]:    235.42
LCAOMinimize: 	Step increased F by 7.397915e+00, reducing alpha to 4.119479e-03.
	FillingsUpdate:  mu: +0.263723359  nElectrons: 347.000000  magneticMoment: [ Abs: 13.51236  Tot: +0.00000 ]
LCAOMinimize: Iter:  14  F: -1946.2305778151710456  |grad|_K:  1.465e-02  alpha:  4.119e-03  linmin: -1.499e-02  cgtest:  9.529e-01  t[s]:    260.42
LCAOMinimize: 	Predicted alpha/alphaT>3.000000, increasing alphaT to 1.235844e-02.
	FillingsUpdate:  mu: +0.166658430  nElectrons: 347.000000  magneticMoment: [ Abs: 13.31618  Tot: -0.00000 ]
LCAOMinimize: Iter:  15  F: -1948.1297896589767333  |grad|_K:  7.813e-03  alpha:  1.670e-02  linmin: -2.480e-02  cgtest: -5.209e-01  t[s]:    279.55
LCAOMinimize: 	Predicted alpha/alphaT>3.000000, increasing alphaT to 5.008595e-02.
	FillingsUpdate:  mu: +0.190223760  nElectrons: 347.000000  magneticMoment: [ Abs: 13.70608  Tot: +0.00000 ]
LCAOMinimize: Iter:  16  F: -1948.8640930448332256  |grad|_K:  7.068e-03  alpha:  1.050e-02  linmin: -8.001e-02  cgtest:  8.794e-01  t[s]:    298.59
	FillingsUpdate:  mu: +0.397911243  nElectrons: 347.000000  magneticMoment: [ Abs: 15.18976  Tot: +0.00000 ]
LCAOMinimize: Iter:  17  F: -1949.0063629917794970  |grad|_K:  1.441e-02  alpha:  2.706e-02  linmin:  7.121e-02  cgtest: -3.700e-01  t[s]:    313.49
LCAOMinimize: 	Bad step direction: g.d > 0.
LCAOMinimize: 	Undoing step.
LCAOMinimize: 	Step failed: resetting search direction.
	FillingsUpdate:  mu: +0.397911243  nElectrons: 347.000000  magneticMoment: [ Abs: 15.18976  Tot: +0.00000 ]
LCAOMinimize: Iter:  18  F: -1949.0063629917794970  |grad|_K:  1.441e-02  alpha:  0.000e+00
	FillingsUpdate:  mu: +0.127566762  nElectrons: 347.000000  magneticMoment: [ Abs: 14.49193  Tot: -0.00000 ]
LCAOMinimize: Iter:  19  F: -1949.7907175672648918  |grad|_K:  4.634e-03  alpha:  1.037e-02  linmin:  2.563e-02  cgtest: -4.305e-01  t[s]:    338.61
LCAOMinimize: 	Wrong curvature in test step, increasing alphaT to 3.111736e-02.
	FillingsUpdate:  mu: +0.116921572  nElectrons: 347.000000  magneticMoment: [ Abs: 14.76283  Tot: +0.00000 ]
LCAOMinimize: Iter:  20  F: -1949.9833981674967163  |grad|_K:  4.742e-03  alpha: -4.644e-01  linmin: -8.120e-02  cgtest:  9.260e-01  t[s]:    352.11
LCAOMinimize: 	Step increased F by 9.010595e-01, reducing alpha to 6.289602e-03.
	FillingsUpdate:  mu: +0.122187845  nElectrons: 347.000000  magneticMoment: [ Abs: 14.99458  Tot: -0.00000 ]
LCAOMinimize: Iter:  21  F: -1950.1157449930478833  |grad|_K:  3.793e-03  alpha:  6.290e-03  linmin: -1.342e-01  cgtest:  9.041e-01  t[s]:    376.72
LCAOMinimize: Encountered beta<0, resetting CG.
LCAOMinimize: 	Predicted alpha/alphaT>3.000000, increasing alphaT to 1.886881e-02.
LCAOMinimize: 	Predicted alpha/alphaT>3.000000, increasing alphaT to 5.660642e-02.
	FillingsUpdate:  mu: +0.113485372  nElectrons: 347.000000  magneticMoment: [ Abs: 16.37780  Tot: -0.00000 ]
LCAOMinimize: Iter:  22  F: -1950.4309486469555850  |grad|_K:  2.231e-03  alpha:  3.441e-02  linmin: -4.710e-03  cgtest:  8.655e-02  t[s]:    399.63
	FillingsUpdate:  mu: +0.097377676  nElectrons: 347.000000  magneticMoment: [ Abs: 16.59303  Tot: +0.00000 ]
LCAOMinimize: Iter:  23  F: -1950.4782979462602270  |grad|_K:  2.883e-03  alpha:  2.036e-02  linmin:  2.287e-04  cgtest:  4.291e-02  t[s]:    413.93
	FillingsUpdate:  mu: +0.115876846  nElectrons: 347.000000  magneticMoment: [ Abs: 17.01376  Tot: -0.00000 ]
LCAOMinimize: Iter:  24  F: -1950.6095995103439691  |grad|_K:  1.979e-03  alpha:  3.351e-02  linmin: -4.313e-04  cgtest:  2.046e-01  t[s]:    428.60
	FillingsUpdate:  mu: +0.115820013  nElectrons: 347.000000  magneticMoment: [ Abs: 16.93491  Tot: +0.00000 ]
LCAOMinimize: Iter:  25  F: -1950.6840787146811635  |grad|_K:  1.124e-03  alpha:  3.901e-02  linmin: -9.052e-03  cgtest:  2.389e-01  t[s]:    442.92
	FillingsUpdate:  mu: +0.112138957  nElectrons: 347.000000  magneticMoment: [ Abs: 17.29741  Tot: +0.00000 ]
LCAOMinimize: Iter:  26  F: -1950.7119395914892266  |grad|_K:  1.808e-03  alpha:  4.349e-02  linmin: -5.990e-04  cgtest: -1.404e-02  t[s]:    457.10
	FillingsUpdate:  mu: +0.114793545  nElectrons: 347.000000  magneticMoment: [ Abs: 18.14231  Tot: -0.00000 ]
LCAOMinimize: Iter:  27  F: -1950.7564584037511395  |grad|_K:  1.004e-03  alpha:  2.957e-02  linmin: -4.880e-04  cgtest: -1.588e-03  t[s]:    471.64
	FillingsUpdate:  mu: +0.131440132  nElectrons: 347.000000  magneticMoment: [ Abs: 18.79333  Tot: -0.00000 ]
LCAOMinimize: Iter:  28  F: -1950.7909367739689515  |grad|_K:  1.169e-03  alpha:  6.793e-02  linmin: -2.006e-03  cgtest:  7.993e-02  t[s]:    486.17
	FillingsUpdate:  mu: +0.108585894  nElectrons: 347.000000  magneticMoment: [ Abs: 19.88327  Tot: -0.00000 ]
LCAOMinimize: Iter:  29  F: -1950.8425647194826524  |grad|_K:  1.170e-03  alpha:  7.253e-02  linmin: -1.417e-03  cgtest: -1.777e-01  t[s]:    500.87
	FillingsUpdate:  mu: +0.122719549  nElectrons: 347.000000  magneticMoment: [ Abs: 20.50137  Tot: +0.00000 ]
LCAOMinimize: Iter:  30  F: -1950.8663480856389469  |grad|_K:  1.050e-03  alpha:  2.781e-02  linmin: -1.928e-03  cgtest: -1.643e-02  t[s]:    515.47
LCAOMinimize: None of the convergence criteria satisfied after 30 iterations.


---- Citations for features of the code used in this run ----

   Software package:
      R. Sundararaman, K. Letchworth-Weaver, K.A. Schwarz, D. Gunceler, Y. Ozhabes and T.A. Arias, 'JDFTx: software for joint density-functional theory', SoftwareX 6, 278 (2017)

   Simplified rotationally-invariant DFT+U:
      S. L. Dudarev et al., Phys. Rev. B 57, 1505 (1998)

   LibXC library of exchange-correlation functions:
      M. A. L. Marques, M. J. T. Oliveira and T. Burnus, Comput. Phys. Commun. 183, 2272 (2012)

   Hammer, Hansen, and Norskov exchange functional:
      B. Hammer, L. B. Hansen, and J. K. Nørskov, Phys. Rev. B 59, 7413 (1999)

   Perdew, Burke & Ernzerhof correlation functional:
      J. P. Perdew, K. Burke, and M. Ernzerhof, Phys. Rev. Lett. 77, 3865 (1996)

   Pseudopotentials:
      M Schlipf and F Gygi, Comput. Phys. Commun. 196, 36 (2015)

   Total energy minimization with Auxiliary Hamiltonian:
      C. Freysoldt, S. Boeck, and J. Neugebauer, Phys. Rev. B 79, 241103(R) (2009)

This list may not be complete. Please suggest additional citations or
report any other bugs at https://github.com/shankar1729/jdftx/issues

Initialization completed successfully at t[s]:    521.85


-------- Electronic minimization -----------
	FillingsUpdate:  mu: +0.122719586  nElectrons: 347.000000  magneticMoment: [ Abs: 20.50137  Tot: +0.00000 ]
ElecMinimize: Iter:   0  F: -1950.866348085637355  |grad|_K:  7.698e-04  alpha:  1.000e+00
	FillingsUpdate:  mu: +1.096839156  nElectrons: 347.000000  magneticMoment: [ Abs: 23.03909  Tot: -0.00000 ]
	SubspaceRotationAdjust: set factor to 0.571
ElecMinimize: Iter:   1  F: -1974.404268760990590  |grad|_K:  2.161e-03  alpha:  4.187e-01  linmin:  8.753e-03  t[s]:    613.09
ElecMinimize: 	Step increased F by 4.802322e+01, reducing alpha to 5.489751e-03.
	FillingsUpdate:  mu: +0.319380007  nElectrons: 347.000000  magneticMoment: [ Abs: 22.02223  Tot: +0.00000 ]
	SubspaceRotationAdjust: set factor to 0.668
ElecMinimize: Iter:   2  F: -1979.715868135675009  |grad|_K:  7.510e-04  alpha:  5.490e-03  linmin: -3.885e-04  t[s]:    730.78
	FillingsUpdate:  mu: +0.220641610  nElectrons: 347.000000  magneticMoment: [ Abs: 21.57010  Tot: -0.00000 ]
	SubspaceRotationAdjust: set factor to 0.899
ElecMinimize: Iter:   3  F: -1981.076814945854949  |grad|_K:  6.414e-04  alpha:  1.027e-02  linmin: -5.257e-03  t[s]:    804.70
	FillingsUpdate:  mu: +0.572963632  nElectrons: 347.000000  magneticMoment: [ Abs: 22.42968  Tot: +0.00000 ]
	SubspaceRotationAdjust: set factor to 0.577
ElecMinimize: Iter:   4  F: -1984.661105982785102  |grad|_K:  1.044e-03  alpha:  2.973e-02  linmin: -5.065e-04  t[s]:    881.18
	FillingsUpdate:  mu: +0.579634696  nElectrons: 347.000000  magneticMoment: [ Abs: 24.01746  Tot: +0.00000 ]
	SubspaceRotationAdjust: set factor to 0.362
ElecMinimize: Iter:   5  F: -1990.868143326356858  |grad|_K:  8.367e-04  alpha:  2.990e-02  linmin: -1.739e-03  t[s]:    958.00
	FillingsUpdate:  mu: +0.336144941  nElectrons: 347.000000  magneticMoment: [ Abs: 24.19075  Tot: -0.00000 ]
	SubspaceRotationAdjust: set factor to 0.327
ElecMinimize: Iter:   6  F: -1992.550910338599124  |grad|_K:  5.317e-04  alpha:  1.660e-02  linmin:  4.540e-04  t[s]:   1034.74
ElecMinimize: 	Predicted alpha/alphaT>3.000000, increasing alphaT to 4.980000e-02.
	FillingsUpdate:  mu: +0.348949231  nElectrons: 347.000000  magneticMoment: [ Abs: 25.12114  Tot: -0.00000 ]
	SubspaceRotationAdjust: set factor to 0.269
ElecMinimize: Iter:   7  F: -1995.306090870521530  |grad|_K:  5.266e-04  alpha:  6.158e-02  linmin:  9.606e-05  t[s]:   1142.37
	FillingsUpdate:  mu: +0.200704044  nElectrons: 347.000000  magneticMoment: [ Abs: 25.76090  Tot: -0.00000 ]
	SubspaceRotationAdjust: set factor to 0.367
ElecMinimize: Iter:   8  F: -1998.082009448841063  |grad|_K:  3.833e-04  alpha:  5.045e-02  linmin:  7.981e-04  t[s]:   1216.00
	FillingsUpdate:  mu: +0.220682245  nElectrons: 347.000000  magneticMoment: [ Abs: 25.68416  Tot: +0.00000 ]
	SubspaceRotationAdjust: set factor to 0.415
ElecMinimize: Iter:   9  F: -1998.596840328420285  |grad|_K:  4.052e-04  alpha:  2.640e-02  linmin:  3.568e-05  t[s]:   1294.45
	FillingsUpdate:  mu: +0.136717487  nElectrons: 347.000000  magneticMoment: [ Abs: 24.97957  Tot: -0.00000 ]
	SubspaceRotationAdjust: set factor to 0.369
ElecMinimize: Iter:  10  F: -1999.624161085249170  |grad|_K:  4.019e-04  alpha:  3.685e-02  linmin:  1.138e-04  t[s]:   1372.51
	FillingsUpdate:  mu: +0.056692124  nElectrons: 347.000000  magneticMoment: [ Abs: 24.92212  Tot: +0.00000 ]
	SubspaceRotationAdjust: set factor to 0.343
ElecMinimize: Iter:  11  F: -2000.311700927890570  |grad|_K:  3.333e-04  alpha:  2.475e-02  linmin: -3.744e-05  t[s]:   1451.27
	FillingsUpdate:  mu: +0.101412918  nElectrons: 347.000000  magneticMoment: [ Abs: 25.42367  Tot: +0.00000 ]
	SubspaceRotationAdjust: set factor to 0.277
ElecMinimize: Iter:  12  F: -2000.888492840775825  |grad|_K:  3.287e-04  alpha:  2.935e-02  linmin: -7.320e-05  t[s]:   1528.46
	FillingsUpdate:  mu: +0.087933426  nElectrons: 347.000000  magneticMoment: [ Abs: 26.36012  Tot: -0.00000 ]
	SubspaceRotationAdjust: set factor to 0.279
ElecMinimize: Iter:  13  F: -2001.479572853258105  |grad|_K:  2.818e-04  alpha:  3.067e-02  linmin:  4.416e-05  t[s]:   1603.16
	FillingsUpdate:  mu: +0.059733605  nElectrons: 347.000000  magneticMoment: [ Abs: 27.09611  Tot: -0.00000 ]
	SubspaceRotationAdjust: set factor to 0.327
ElecMinimize: Iter:  14  F: -2001.899741495946500  |grad|_K:  2.672e-04  alpha:  3.098e-02  linmin:  7.260e-06  t[s]:   1679.67
	FillingsUpdate:  mu: +0.117752761  nElectrons: 347.000000  magneticMoment: [ Abs: 27.75731  Tot: -0.00000 ]
	SubspaceRotationAdjust: set factor to 0.313
ElecMinimize: Iter:  15  F: -2002.257133619513979  |grad|_K:  2.818e-04  alpha:  2.880e-02  linmin:  1.067e-05  t[s]:   1758.06
	FillingsUpdate:  mu: +0.196029948  nElectrons: 347.000000  magneticMoment: [ Abs: 28.43988  Tot: -0.00000 ]
	SubspaceRotationAdjust: set factor to 0.322
ElecMinimize: Iter:  16  F: -2002.549548043782352  |grad|_K:  2.539e-04  alpha:  2.042e-02  linmin:  1.822e-05  t[s]:   1831.27
	FillingsUpdate:  mu: +0.275747879  nElectrons: 347.000000  magneticMoment: [ Abs: 29.03397  Tot: +0.00000 ]
	SubspaceRotationAdjust: set factor to 0.311
ElecMinimize: Iter:  17  F: -2002.747098756975220  |grad|_K:  2.420e-04  alpha:  1.779e-02  linmin: -7.363e-06  t[s]:   1904.74
	FillingsUpdate:  mu: +0.326965122  nElectrons: 347.000000  magneticMoment: [ Abs: 29.64490  Tot: +0.00000 ]
	SubspaceRotationAdjust: set factor to 0.237
ElecMinimize: Iter:  18  F: -2002.974339749076307  |grad|_K:  2.521e-04  alpha:  2.195e-02  linmin: -6.847e-05  t[s]:   1985.88
	FillingsUpdate:  mu: +0.320402286  nElectrons: 347.000000  magneticMoment: [ Abs: 30.43425  Tot: +0.00000 ]
	SubspaceRotationAdjust: set factor to 0.173
ElecMinimize: Iter:  19  F: -2003.265969357281392  |grad|_K:  2.346e-04  alpha:  2.516e-02  linmin: -1.191e-04  t[s]:   2062.37
	FillingsUpdate:  mu: +0.214271852  nElectrons: 347.000000  magneticMoment: [ Abs: 31.08934  Tot: +0.00000 ]
	SubspaceRotationAdjust: set factor to 0.188
ElecMinimize: Iter:  20  F: -2003.545351039439083  |grad|_K:  1.821e-04  alpha:  2.809e-02  linmin:  2.402e-04  t[s]:   2139.78
	FillingsUpdate:  mu: +0.173620971  nElectrons: 347.000000  magneticMoment: [ Abs: 31.28441  Tot: -0.00000 ]
	SubspaceRotationAdjust: set factor to 0.263
ElecMinimize: Iter:  21  F: -2003.640493873127753  |grad|_K:  1.669e-04  alpha:  1.926e-02  linmin:  1.352e-05  t[s]:   2218.25
	FillingsUpdate:  mu: +0.132822576  nElectrons: 347.000000  magneticMoment: [ Abs: 31.33706  Tot: +0.00000 ]
	SubspaceRotationAdjust: set factor to 0.326
ElecMinimize: Iter:  22  F: -2003.747634708552596  |grad|_K:  1.667e-04  alpha:  2.196e-02  linmin: -1.098e-04  t[s]:   2293.40
	FillingsUpdate:  mu: +0.100656102  nElectrons: 347.000000  magneticMoment: [ Abs: 31.40884  Tot: -0.00000 ]
	SubspaceRotationAdjust: set factor to 0.264
ElecMinimize: Iter:  23  F: -2003.931152331292651  |grad|_K:  1.781e-04  alpha:  3.364e-02  linmin: -2.083e-04  t[s]:   2368.81
	FillingsUpdate:  mu: +0.105420151  nElectrons: 347.000000  magneticMoment: [ Abs: 31.99433  Tot: -0.00000 ]
	SubspaceRotationAdjust: set factor to 0.26
ElecMinimize: Iter:  24  F: -2004.164867479612440  |grad|_K:  1.383e-04  alpha:  3.793e-02  linmin:  1.036e-04  t[s]:   2444.45
	FillingsUpdate:  mu: +0.102051765  nElectrons: 347.000000  magneticMoment: [ Abs: 32.54741  Tot: -0.00000 ]
	SubspaceRotationAdjust: set factor to 0.348
ElecMinimize: Iter:  25  F: -2004.254109979446184  |grad|_K:  1.195e-04  alpha:  2.757e-02  linmin:  3.472e-05  t[s]:   2519.81
	FillingsUpdate:  mu: +0.162808527  nElectrons: 347.000000  magneticMoment: [ Abs: 33.17707  Tot: +0.00000 ]
	SubspaceRotationAdjust: set factor to 0.328
ElecMinimize: Iter:  26  F: -2004.338694000304713  |grad|_K:  1.329e-04  alpha:  3.366e-02  linmin: -1.840e-04  t[s]:   2598.04
	FillingsUpdate:  mu: +0.183563524  nElectrons: 347.000000  magneticMoment: [ Abs: 33.98881  Tot: -0.00000 ]
	SubspaceRotationAdjust: set factor to 0.317
ElecMinimize: Iter:  27  F: -2004.452301113540443  |grad|_K:  1.236e-04  alpha:  3.309e-02  linmin:  2.670e-04  t[s]:   2672.39
	FillingsUpdate:  mu: +0.203567800  nElectrons: 347.000000  magneticMoment: [ Abs: 34.45305  Tot: +0.00000 ]
	SubspaceRotationAdjust: set factor to 0.297
ElecMinimize: Iter:  28  F: -2004.537267405645252  |grad|_K:  1.219e-04  alpha:  3.961e-02  linmin:  8.557e-05  t[s]:   2749.46
	FillingsUpdate:  mu: +0.172451784  nElectrons: 347.000000  magneticMoment: [ Abs: 34.64008  Tot: +0.00000 ]
	SubspaceRotationAdjust: set factor to 0.303
ElecMinimize: Iter:  29  F: -2004.602095702553015  |grad|_K:  1.134e-04  alpha:  2.513e-02  linmin:  3.481e-06  t[s]:   2827.39
	FillingsUpdate:  mu: +0.149586124  nElectrons: 347.000000  magneticMoment: [ Abs: 34.99169  Tot: +0.00000 ]
	SubspaceRotationAdjust: set factor to 0.253
ElecMinimize: Iter:  30  F: -2004.659515951025924  |grad|_K:  1.207e-04  alpha:  2.565e-02  linmin: -6.877e-05  t[s]:   2904.01
	FillingsUpdate:  mu: +0.147582244  nElectrons: 347.000000  magneticMoment: [ Abs: 35.79096  Tot: +0.00000 ]
	SubspaceRotationAdjust: set factor to 0.253
ElecMinimize: Iter:  31  F: -2004.746939900689540  |grad|_K:  1.011e-04  alpha:  3.422e-02  linmin:  2.578e-04  t[s]:   2979.05
	FillingsUpdate:  mu: +0.149699513  nElectrons: 347.000000  magneticMoment: [ Abs: 36.21707  Tot: +0.00000 ]
	SubspaceRotationAdjust: set factor to 0.251
ElecMinimize: Iter:  32  F: -2004.775095314809960  |grad|_K:  9.869e-05  alpha:  1.802e-02  linmin: -1.112e-05  t[s]:   3053.13
	FillingsUpdate:  mu: +0.130576144  nElectrons: 347.000000  magneticMoment: [ Abs: 36.74844  Tot: +0.00000 ]
	SubspaceRotationAdjust: set factor to 0.207
ElecMinimize: Iter:  33  F: -2004.813879911567255  |grad|_K:  1.034e-04  alpha:  2.249e-02  linmin: -6.487e-05  t[s]:   3124.66
	FillingsUpdate:  mu: +0.153127559  nElectrons: 347.000000  magneticMoment: [ Abs: 37.24802  Tot: +0.00000 ]
	SubspaceRotationAdjust: set factor to 0.192
ElecMinimize: Iter:  34  F: -2004.868155561340245  |grad|_K:  9.098e-05  alpha:  2.812e-02  linmin:  5.715e-06  t[s]:   3199.55
	FillingsUpdate:  mu: +0.151482858  nElectrons: 347.000000  magneticMoment: [ Abs: 37.49844  Tot: +0.00000 ]
	SubspaceRotationAdjust: set factor to 0.252
ElecMinimize: Iter:  35  F: -2004.903700147867767  |grad|_K:  7.696e-05  alpha:  2.484e-02  linmin: -1.574e-05  t[s]:   3276.96
	FillingsUpdate:  mu: +0.159570563  nElectrons: 347.000000  magneticMoment: [ Abs: 37.60701  Tot: -0.00000 ]
	SubspaceRotationAdjust: set factor to 0.288
ElecMinimize: Iter:  36  F: -2004.932585172534800  |grad|_K:  7.695e-05  alpha:  2.825e-02  linmin:  1.638e-04  t[s]:   3353.15
	FillingsUpdate:  mu: +0.157623788  nElectrons: 347.000000  magneticMoment: [ Abs: 37.60720  Tot: +0.00000 ]
	SubspaceRotationAdjust: set factor to 0.252
ElecMinimize: Iter:  37  F: -2004.947249874709996  |grad|_K:  8.411e-05  alpha:  1.426e-02  linmin: -8.320e-05  t[s]:   3429.54
	FillingsUpdate:  mu: +0.144285467  nElectrons: 347.000000  magneticMoment: [ Abs: 37.62608  Tot: -0.00000 ]
	SubspaceRotationAdjust: set factor to 0.189
ElecMinimize: Iter:  38  F: -2004.966081649995886  |grad|_K:  8.791e-05  alpha:  1.460e-02  linmin:  8.168e-05  t[s]:   3503.46
	FillingsUpdate:  mu: +0.134541467  nElectrons: 347.000000  magneticMoment: [ Abs: 37.69942  Tot: -0.00000 ]
	SubspaceRotationAdjust: set factor to 0.151
ElecMinimize: Iter:  39  F: -2004.979903491190953  |grad|_K:  7.741e-05  alpha:  1.039e-02  linmin:  1.167e-05  t[s]:   3581.40
	FillingsUpdate:  mu: +0.130122872  nElectrons: 347.000000  magneticMoment: [ Abs: 37.79934  Tot: -0.00000 ]
	SubspaceRotationAdjust: set factor to 0.145
ElecMinimize: Iter:  40  F: -2004.990201960649074  |grad|_K:  6.466e-05  alpha:  9.896e-03  linmin:  6.225e-05  t[s]:   3658.78
	FillingsUpdate:  mu: +0.129146156  nElectrons: 347.000000  magneticMoment: [ Abs: 37.88865  Tot: +0.00000 ]
	SubspaceRotationAdjust: set factor to 0.163
ElecMinimize: Iter:  41  F: -2004.996720763350822  |grad|_K:  5.619e-05  alpha:  9.195e-03  linmin:  4.170e-05  t[s]:   3737.50
	FillingsUpdate:  mu: +0.114458638  nElectrons: 347.000000  magneticMoment: [ Abs: 37.96585  Tot: -0.00000 ]
	SubspaceRotationAdjust: set factor to 0.196
ElecMinimize: Iter:  42  F: -2005.001325245637645  |grad|_K:  5.106e-05  alpha:  8.508e-03  linmin:  3.270e-05  t[s]:   3814.37
	FillingsUpdate:  mu: +0.111475989  nElectrons: 347.000000  magneticMoment: [ Abs: 38.03311  Tot: +0.00000 ]
	SubspaceRotationAdjust: set factor to 0.219
ElecMinimize: Iter:  43  F: -2005.004758247625887  |grad|_K:  4.817e-05  alpha:  7.640e-03  linmin:  2.284e-05  t[s]:   3892.08
	FillingsUpdate:  mu: +0.116074869  nElectrons: 347.000000  magneticMoment: [ Abs: 38.09374  Tot: +0.00000 ]
	SubspaceRotationAdjust: set factor to 0.216
ElecMinimize: Iter:  44  F: -2005.007535089456951  |grad|_K:  4.625e-05  alpha:  6.914e-03  linmin:  2.314e-05  t[s]:   3969.98
	FillingsUpdate:  mu: +0.117540829  nElectrons: 347.000000  magneticMoment: [ Abs: 38.14785  Tot: -0.00000 ]
	SubspaceRotationAdjust: set factor to 0.193
ElecMinimize: Iter:  45  F: -2005.009889953095808  |grad|_K:  4.390e-05  alpha:  6.353e-03  linmin:  3.521e-05  t[s]:   4044.52
	FillingsUpdate:  mu: +0.121681194  nElectrons: 347.000000  magneticMoment: [ Abs: 38.19346  Tot: +0.00000 ]
	SubspaceRotationAdjust: set factor to 0.162
ElecMinimize: Iter:  46  F: -2005.011871973406642  |grad|_K:  4.044e-05  alpha:  5.952e-03  linmin:  5.668e-05  t[s]:   4122.83
	FillingsUpdate:  mu: +0.125127229  nElectrons: 347.000000  magneticMoment: [ Abs: 38.22957  Tot: +0.00000 ]
	SubspaceRotationAdjust: set factor to 0.134
	SubspaceRotationAdjust: resetting CG because factor has changed by 0.13396
ElecMinimize: 	State modified externally: resetting search direction.
ElecMinimize: Iter:  47  F: -2005.013485982317206  |grad|_K:  3.434e-05  alpha:  5.739e-03
ElecMinimize: 	Predicted alpha/alphaT>3.000000, increasing alphaT to 1.721779e-02.
ElecMinimize: 	Predicted alpha/alphaT>3.000000, increasing alphaT to 5.165336e-02.
ElecMinimize: 	Predicted alpha/alphaT>3.000000, increasing alphaT to 1.549601e-01.
	FillingsUpdate:  mu: +0.141168965  nElectrons: 347.000000  magneticMoment: [ Abs: 38.20483  Tot: -0.00000 ]
	SubspaceRotationAdjust: set factor to 0.0834
ElecMinimize: Iter:  48  F: -2005.047266878668097  |grad|_K:  2.674e-05  alpha:  1.617e-01  linmin: -3.016e-03  t[s]:   4354.70
	FillingsUpdate:  mu: +0.129911921  nElectrons: 347.000000  magneticMoment: [ Abs: 38.49855  Tot: +0.00000 ]
	SubspaceRotationAdjust: set factor to 0.1
ElecMinimize: Iter:  49  F: -2005.080678743812996  |grad|_K:  1.987e-05  alpha:  2.528e-01  linmin: -2.577e-03  t[s]:   4432.40
	FillingsUpdate:  mu: +0.122419192  nElectrons: 347.000000  magneticMoment: [ Abs: 38.80785  Tot: -0.00000 ]
	SubspaceRotationAdjust: set factor to 0.117
ElecMinimize: Iter:  50  F: -2005.122399226799189  |grad|_K:  2.115e-05  alpha:  5.490e-01  linmin: -1.281e-03  t[s]:   4510.16
	FillingsUpdate:  mu: +0.147850597  nElectrons: 347.000000  magneticMoment: [ Abs: 39.12594  Tot: +0.00000 ]
	SubspaceRotationAdjust: set factor to 0.0915
ElecMinimize: Iter:  51  F: -2005.159096008621646  |grad|_K:  2.345e-05  alpha:  4.471e-01  linmin: -3.060e-04  t[s]:   4587.18
	FillingsUpdate:  mu: +0.134708879  nElectrons: 347.000000  magneticMoment: [ Abs: 39.57234  Tot: -0.00000 ]
	SubspaceRotationAdjust: set factor to 0.0668
ElecMinimize: Iter:  52  F: -2005.181682409963287  |grad|_K:  1.866e-05  alpha:  2.623e-01  linmin:  3.152e-04  t[s]:   4665.27
	FillingsUpdate:  mu: +0.131832773  nElectrons: 347.000000  magneticMoment: [ Abs: 39.91648  Tot: -0.00000 ]
	SubspaceRotationAdjust: set factor to 0.0784
ElecMinimize: Iter:  53  F: -2005.203718708196902  |grad|_K:  1.432e-05  alpha:  3.680e-01  linmin: -3.633e-04  t[s]:   4742.70
	FillingsUpdate:  mu: +0.136871857  nElectrons: 347.000000  magneticMoment: [ Abs: 40.12439  Tot: -0.00000 ]
	SubspaceRotationAdjust: set factor to 0.0838
ElecMinimize: Iter:  54  F: -2005.217102287215312  |grad|_K:  1.162e-05  alpha:  3.650e-01  linmin: -1.610e-04  t[s]:   4820.95
	FillingsUpdate:  mu: +0.130075308  nElectrons: 347.000000  magneticMoment: [ Abs: 40.37483  Tot: +0.00000 ]
	SubspaceRotationAdjust: set factor to 0.0842
ElecMinimize: Iter:  55  F: -2005.227977618825889  |grad|_K:  1.022e-05  alpha:  4.551e-01  linmin: -3.900e-04  t[s]:   4894.34
	FillingsUpdate:  mu: +0.131504240  nElectrons: 347.000000  magneticMoment: [ Abs: 40.56388  Tot: -0.00000 ]
	SubspaceRotationAdjust: set factor to 0.0949
ElecMinimize: Iter:  56  F: -2005.235733170333788  |grad|_K:  8.795e-06  alpha:  4.156e-01  linmin: -6.787e-05  t[s]:   4974.03
	FillingsUpdate:  mu: +0.133203185  nElectrons: 347.000000  magneticMoment: [ Abs: 40.75871  Tot: -0.00000 ]
	SubspaceRotationAdjust: set factor to 0.107
ElecMinimize: Iter:  57  F: -2005.241723160892889  |grad|_K:  8.191e-06  alpha:  4.423e-01  linmin: -5.416e-05  t[s]:   5051.01
	FillingsUpdate:  mu: +0.131342337  nElectrons: 347.000000  magneticMoment: [ Abs: 40.94740  Tot: +0.00000 ]
	SubspaceRotationAdjust: set factor to 0.119
ElecMinimize: Iter:  58  F: -2005.246178573429688  |grad|_K:  7.170e-06  alpha:  3.807e-01  linmin: -6.616e-05  t[s]:   5125.79
	FillingsUpdate:  mu: +0.132329444  nElectrons: 347.000000  magneticMoment: [ Abs: 41.14437  Tot: -0.00000 ]
	SubspaceRotationAdjust: set factor to 0.129
ElecMinimize: Iter:  59  F: -2005.250414309199869  |grad|_K:  7.632e-06  alpha:  4.721e-01  linmin:  9.914e-05  t[s]:   5204.09
	FillingsUpdate:  mu: +0.133003975  nElectrons: 347.000000  magneticMoment: [ Abs: 41.38844  Tot: +0.00000 ]
	SubspaceRotationAdjust: set factor to 0.147
ElecMinimize: Iter:  60  F: -2005.255044884767585  |grad|_K:  7.399e-06  alpha:  4.615e-01  linmin:  9.502e-06  t[s]:   5277.70
	FillingsUpdate:  mu: +0.133496150  nElectrons: 347.000000  magneticMoment: [ Abs: 41.62035  Tot: +0.00000 ]
	SubspaceRotationAdjust: set factor to 0.158
ElecMinimize: Iter:  61  F: -2005.259146950779268  |grad|_K:  6.820e-06  alpha:  4.317e-01  linmin: -1.120e-04  t[s]:   5353.30
	FillingsUpdate:  mu: +0.136497899  nElectrons: 347.000000  magneticMoment: [ Abs: 41.80821  Tot: -0.00000 ]
	SubspaceRotationAdjust: set factor to 0.15
ElecMinimize: Iter:  62  F: -2005.262281540735557  |grad|_K:  7.206e-06  alpha:  3.781e-01  linmin:  2.383e-04  t[s]:   5431.53
	FillingsUpdate:  mu: +0.132558096  nElectrons: 347.000000  magneticMoment: [ Abs: 41.97991  Tot: +0.00000 ]
	SubspaceRotationAdjust: set factor to 0.124
ElecMinimize: Iter:  63  F: -2005.264875077660236  |grad|_K:  6.237e-06  alpha:  2.975e-01  linmin: -8.978e-05  t[s]:   5508.19
	FillingsUpdate:  mu: +0.134771114  nElectrons: 347.000000  magneticMoment: [ Abs: 42.13632  Tot: -0.00000 ]
	SubspaceRotationAdjust: set factor to 0.126
ElecMinimize: Iter:  64  F: -2005.267085031780198  |grad|_K:  4.990e-06  alpha:  3.237e-01  linmin:  1.712e-04  t[s]:   5585.29
	FillingsUpdate:  mu: +0.133935963  nElectrons: 347.000000  magneticMoment: [ Abs: 42.26964  Tot: +0.00000 ]
	SubspaceRotationAdjust: set factor to 0.151
ElecMinimize: Iter:  65  F: -2005.268836235767139  |grad|_K:  4.291e-06  alpha:  4.106e-01  linmin: -7.383e-05  t[s]:   5661.91
	FillingsUpdate:  mu: +0.133187718  nElectrons: 347.000000  magneticMoment: [ Abs: 42.37312  Tot: +0.00000 ]
	SubspaceRotationAdjust: set factor to 0.173
ElecMinimize: Iter:  66  F: -2005.270184379064403  |grad|_K:  4.119e-06  alpha:  4.171e-01  linmin: -7.257e-05  t[s]:   5739.91
	FillingsUpdate:  mu: +0.136605667  nElectrons: 347.000000  magneticMoment: [ Abs: 42.45950  Tot: +0.00000 ]
	SubspaceRotationAdjust: set factor to 0.164
ElecMinimize: Iter:  67  F: -2005.271266802482842  |grad|_K:  4.568e-06  alpha:  3.644e-01  linmin: -5.311e-05  t[s]:   5818.74
	FillingsUpdate:  mu: +0.134375118  nElectrons: 347.000000  magneticMoment: [ Abs: 42.52889  Tot: -0.00000 ]
	SubspaceRotationAdjust: set factor to 0.134
ElecMinimize: Iter:  68  F: -2005.272281684056452  |grad|_K:  4.281e-06  alpha:  2.813e-01  linmin: -7.585e-05  t[s]:   5896.20
	FillingsUpdate:  mu: +0.134465399  nElectrons: 347.000000  magneticMoment: [ Abs: 42.60037  Tot: +0.00000 ]
	SubspaceRotationAdjust: set factor to 0.133
ElecMinimize: Iter:  69  F: -2005.273373033595590  |grad|_K:  3.590e-06  alpha:  3.385e-01  linmin:  1.178e-05  t[s]:   5973.70
	FillingsUpdate:  mu: +0.134618099  nElectrons: 347.000000  magneticMoment: [ Abs: 42.64988  Tot: +0.00000 ]
	SubspaceRotationAdjust: set factor to 0.151
ElecMinimize: Iter:  70  F: -2005.274244616216947  |grad|_K:  3.113e-06  alpha:  3.890e-01  linmin: -1.700e-05  t[s]:   6052.01
	FillingsUpdate:  mu: +0.134381082  nElectrons: 347.000000  magneticMoment: [ Abs: 42.68096  Tot: -0.00000 ]
	SubspaceRotationAdjust: set factor to 0.167
ElecMinimize: Iter:  71  F: -2005.274889175826274  |grad|_K:  2.781e-06  alpha:  3.811e-01  linmin:  2.079e-05  t[s]:   6127.45
	FillingsUpdate:  mu: +0.134886898  nElectrons: 347.000000  magneticMoment: [ Abs: 42.69852  Tot: +0.00000 ]
	SubspaceRotationAdjust: set factor to 0.163
ElecMinimize: Iter:  72  F: -2005.275358753840237  |grad|_K:  2.556e-06  alpha:  3.498e-01  linmin: -3.247e-05  t[s]:   6204.42
	FillingsUpdate:  mu: +0.133416054  nElectrons: 347.000000  magneticMoment: [ Abs: 42.70583  Tot: +0.00000 ]
	SubspaceRotationAdjust: set factor to 0.149
ElecMinimize: Iter:  73  F: -2005.275698166026359  |grad|_K:  2.241e-06  alpha:  2.948e-01  linmin:  1.119e-04  t[s]:   6279.62
	FillingsUpdate:  mu: +0.133077549  nElectrons: 347.000000  magneticMoment: [ Abs: 42.70158  Tot: +0.00000 ]
	SubspaceRotationAdjust: set factor to 0.18
ElecMinimize: Iter:  74  F: -2005.275980253842135  |grad|_K:  1.861e-06  alpha:  3.261e-01  linmin: -1.101e-04  t[s]:   6357.17
	FillingsUpdate:  mu: +0.133785827  nElectrons: 347.000000  magneticMoment: [ Abs: 42.69099  Tot: +0.00000 ]
	SubspaceRotationAdjust: set factor to 0.218
ElecMinimize: Iter:  75  F: -2005.276209978396082  |grad|_K:  1.790e-06  alpha:  3.755e-01  linmin: -8.820e-05  t[s]:   6432.72
	FillingsUpdate:  mu: +0.133935630  nElectrons: 347.000000  magneticMoment: [ Abs: 42.67992  Tot: +0.00000 ]
	SubspaceRotationAdjust: set factor to 0.204
ElecMinimize: Iter:  76  F: -2005.276403753678778  |grad|_K:  2.004e-06  alpha:  3.446e-01  linmin: -4.983e-05  t[s]:   6508.93
	FillingsUpdate:  mu: +0.134879679  nElectrons: 347.000000  magneticMoment: [ Abs: 42.66486  Tot: +0.00000 ]
	SubspaceRotationAdjust: set factor to 0.169
ElecMinimize: Iter:  77  F: -2005.276569023316597  |grad|_K:  1.788e-06  alpha:  2.349e-01  linmin: -5.605e-06  t[s]:   6586.18
	FillingsUpdate:  mu: +0.134406038  nElectrons: 347.000000  magneticMoment: [ Abs: 42.64447  Tot: -0.00000 ]
	SubspaceRotationAdjust: set factor to 0.188
ElecMinimize: Iter:  78  F: -2005.276773033808922  |grad|_K:  1.610e-06  alpha:  3.650e-01  linmin: -6.129e-05  t[s]:   6662.59
	FillingsUpdate:  mu: +0.134116944  nElectrons: 347.000000  magneticMoment: [ Abs: 42.61964  Tot: +0.00000 ]
	SubspaceRotationAdjust: set factor to 0.215
ElecMinimize: Iter:  79  F: -2005.276966014755089  |grad|_K:  1.551e-06  alpha:  4.238e-01  linmin: -1.072e-05  t[s]:   6741.94
	FillingsUpdate:  mu: +0.134524533  nElectrons: 347.000000  magneticMoment: [ Abs: 42.59386  Tot: -0.00000 ]
	SubspaceRotationAdjust: set factor to 0.214
ElecMinimize: Iter:  80  F: -2005.277127001296321  |grad|_K:  1.753e-06  alpha:  3.828e-01  linmin:  6.193e-05  t[s]:   6816.63
	FillingsUpdate:  mu: +0.133672634  nElectrons: 347.000000  magneticMoment: [ Abs: 42.57401  Tot: -0.00000 ]
	SubspaceRotationAdjust: set factor to 0.177
ElecMinimize: Iter:  81  F: -2005.277255814797627  |grad|_K:  1.697e-06  alpha:  2.462e-01  linmin:  1.032e-05  t[s]:   6891.99
	FillingsUpdate:  mu: +0.133836928  nElectrons: 347.000000  magneticMoment: [ Abs: 42.54101  Tot: +0.00000 ]
	SubspaceRotationAdjust: set factor to 0.177
ElecMinimize: Iter:  82  F: -2005.277422976559365  |grad|_K:  1.526e-06  alpha:  3.357e-01  linmin:  1.390e-04  t[s]:   6968.08
	FillingsUpdate:  mu: +0.133765935  nElectrons: 347.000000  magneticMoment: [ Abs: 42.50789  Tot: -0.00000 ]
	SubspaceRotationAdjust: set factor to 0.206
ElecMinimize: Iter:  83  F: -2005.277598921864183  |grad|_K:  1.527e-06  alpha:  4.407e-01  linmin: -2.873e-05  t[s]:   7046.05
	FillingsUpdate:  mu: +0.133621942  nElectrons: 347.000000  magneticMoment: [ Abs: 42.47765  Tot: -0.00000 ]
	SubspaceRotationAdjust: set factor to 0.225
ElecMinimize: Iter:  84  F: -2005.277775262866498  |grad|_K:  1.599e-06  alpha:  4.330e-01  linmin: -5.202e-05  t[s]:   7121.69
	FillingsUpdate:  mu: +0.134285831  nElectrons: 347.000000  magneticMoment: [ Abs: 42.44910  Tot: +0.00000 ]
	SubspaceRotationAdjust: set factor to 0.201
ElecMinimize: Iter:  85  F: -2005.277924128469294  |grad|_K:  1.836e-06  alpha:  3.296e-01  linmin:  5.097e-05  t[s]:   7197.56
	FillingsUpdate:  mu: +0.133508201  nElectrons: 347.000000  magneticMoment: [ Abs: 42.43053  Tot: -0.00000 ]
	SubspaceRotationAdjust: set factor to 0.174
ElecMinimize: Iter:  86  F: -2005.278063957026689  |grad|_K:  1.630e-06  alpha:  2.427e-01  linmin: -4.200e-05  t[s]:   7275.29
	FillingsUpdate:  mu: +0.133261625  nElectrons: 347.000000  magneticMoment: [ Abs: 42.40661  Tot: +0.00000 ]
	SubspaceRotationAdjust: set factor to 0.197
ElecMinimize: Iter:  87  F: -2005.278242565839946  |grad|_K:  1.525e-06  alpha:  3.860e-01  linmin:  8.549e-05  t[s]:   7351.63
	FillingsUpdate:  mu: +0.133040935  nElectrons: 347.000000  magneticMoment: [ Abs: 42.38971  Tot: +0.00000 ]
	SubspaceRotationAdjust: set factor to 0.227
ElecMinimize: Iter:  88  F: -2005.278409929949476  |grad|_K:  1.558e-06  alpha:  4.181e-01  linmin:  3.928e-05  t[s]:   7428.24
	FillingsUpdate:  mu: +0.132949210  nElectrons: 347.000000  magneticMoment: [ Abs: 42.38445  Tot: +0.00000 ]
	SubspaceRotationAdjust: set factor to 0.218
ElecMinimize: Iter:  89  F: -2005.278557228881255  |grad|_K:  1.743e-06  alpha:  3.530e-01  linmin: -1.129e-04  t[s]:   7504.86
	FillingsUpdate:  mu: +0.132883953  nElectrons: 347.000000  magneticMoment: [ Abs: 42.37580  Tot: +0.00000 ]
	SubspaceRotationAdjust: set factor to 0.188
ElecMinimize: Iter:  90  F: -2005.278704123547868  |grad|_K:  1.753e-06  alpha:  2.731e-01  linmin:  1.341e-05  t[s]:   7582.36
	FillingsUpdate:  mu: +0.132000244  nElectrons: 347.000000  magneticMoment: [ Abs: 42.38085  Tot: +0.00000 ]
	SubspaceRotationAdjust: set factor to 0.219
ElecMinimize: Iter:  91  F: -2005.278910226012840  |grad|_K:  1.701e-06  alpha:  3.829e-01  linmin: -1.253e-04  t[s]:   7661.23
	FillingsUpdate:  mu: +0.131494893  nElectrons: 347.000000  magneticMoment: [ Abs: 42.39366  Tot: +0.00000 ]
	SubspaceRotationAdjust: set factor to 0.25
ElecMinimize: Iter:  92  F: -2005.279141116788878  |grad|_K:  1.865e-06  alpha:  4.488e-01  linmin:  1.477e-05  t[s]:   7737.10
	FillingsUpdate:  mu: +0.131953251  nElectrons: 347.000000  magneticMoment: [ Abs: 42.40779  Tot: +0.00000 ]
	SubspaceRotationAdjust: set factor to 0.263
ElecMinimize: Iter:  93  F: -2005.279376669517660  |grad|_K:  2.164e-06  alpha:  3.873e-01  linmin:  9.154e-05  t[s]:   7812.29
	FillingsUpdate:  mu: +0.130747823  nElectrons: 347.000000  magneticMoment: [ Abs: 42.43316  Tot: -0.00000 ]
	SubspaceRotationAdjust: set factor to 0.311
ElecMinimize: Iter:  94  F: -2005.279616809116078  |grad|_K:  2.080e-06  alpha:  3.032e-01  linmin: -9.189e-05  t[s]:   7888.03
	FillingsUpdate:  mu: +0.130715121  nElectrons: 347.000000  magneticMoment: [ Abs: 42.46099  Tot: +0.00000 ]
	SubspaceRotationAdjust: set factor to 0.393
ElecMinimize: Iter:  95  F: -2005.279884627783076  |grad|_K:  2.093e-06  alpha:  3.496e-01  linmin: -1.105e-05  t[s]:   7963.09
	FillingsUpdate:  mu: +0.132244239  nElectrons: 347.000000  magneticMoment: [ Abs: 42.48661  Tot: +0.00000 ]
	SubspaceRotationAdjust: set factor to 0.434
ElecMinimize: Iter:  96  F: -2005.280116151223183  |grad|_K:  2.230e-06  alpha:  3.015e-01  linmin:  6.761e-05  t[s]:   8038.94
	FillingsUpdate:  mu: +0.132398629  nElectrons: 347.000000  magneticMoment: [ Abs: 42.51018  Tot: -0.00000 ]
	SubspaceRotationAdjust: set factor to 0.575
ElecMinimize: Iter:  97  F: -2005.280326654035207  |grad|_K:  2.102e-06  alpha:  2.481e-01  linmin: -9.460e-05  t[s]:   8115.69
	FillingsUpdate:  mu: +0.132462086  nElectrons: 347.000000  magneticMoment: [ Abs: 42.52828  Tot: +0.00000 ]
	SubspaceRotationAdjust: set factor to 0.625
ElecMinimize: Iter:  98  F: -2005.280566168355335  |grad|_K:  2.345e-06  alpha:  3.044e-01  linmin: -1.115e-04  t[s]:   8192.06
	FillingsUpdate:  mu: +0.133106733  nElectrons: 347.000000  magneticMoment: [ Abs: 42.54122  Tot: -0.00000 ]
	SubspaceRotationAdjust: set factor to 0.722
ElecMinimize: Iter:  99  F: -2005.280809636463346  |grad|_K:  2.457e-06  alpha:  2.506e-01  linmin: -4.704e-05  t[s]:   8270.31
	FillingsUpdate:  mu: +0.130555734  nElectrons: 347.000000  magneticMoment: [ Abs: 42.55429  Tot: +0.00000 ]
	SubspaceRotationAdjust: set factor to 0.816
ElecMinimize: Iter: 100  F: -2005.281050273642450  |grad|_K:  2.336e-06  alpha:  2.261e-01  linmin:  1.494e-05  t[s]:   8345.38
	FillingsUpdate:  mu: +0.130475997  nElectrons: 347.000000  magneticMoment: [ Abs: 42.54879  Tot: -0.00000 ]
	SubspaceRotationAdjust: set factor to 1.05
	SubspaceRotationAdjust: resetting CG because factor has changed by 7.82298
ElecMinimize: 	State modified externally: resetting search direction.
ElecMinimize: Iter: 101  F: -2005.281299591101515  |grad|_K:  2.403e-06  alpha:  2.637e-01
	FillingsUpdate:  mu: +0.131714717  nElectrons: 347.000000  magneticMoment: [ Abs: 42.53654  Tot: -0.00000 ]
	SubspaceRotationAdjust: set factor to 1.3
ElecMinimize: Iter: 102  F: -2005.281652195901870  |grad|_K:  2.248e-06  alpha:  3.506e-01  linmin:  2.354e-06  t[s]:   8514.08
	FillingsUpdate:  mu: +0.131978373  nElectrons: 347.000000  magneticMoment: [ Abs: 42.51481  Tot: -0.00000 ]
	SubspaceRotationAdjust: set factor to 0.843
ElecMinimize: Iter: 103  F: -2005.282018254087461  |grad|_K:  3.521e-06  alpha:  4.234e-01  linmin:  4.971e-04  t[s]:   8589.45
	FillingsUpdate:  mu: +0.132177565  nElectrons: 347.000000  magneticMoment: [ Abs: 42.50176  Tot: +0.00000 ]
	SubspaceRotationAdjust: set factor to 1.31
ElecMinimize: Iter: 104  F: -2005.282163105234304  |grad|_K:  1.943e-06  alpha:  5.460e-02  linmin: -2.024e-03  t[s]:   8666.23
	FillingsUpdate:  mu: +0.131345142  nElectrons: 347.000000  magneticMoment: [ Abs: 42.49122  Tot: -0.00000 ]
	SubspaceRotationAdjust: set factor to 0.775
ElecMinimize: Iter: 105  F: -2005.282289512973193  |grad|_K:  2.471e-06  alpha:  1.478e-01  linmin: -9.880e-05  t[s]:   8742.90
	FillingsUpdate:  mu: +0.129612658  nElectrons: 347.000000  magneticMoment: [ Abs: 42.48626  Tot: -0.00000 ]
	SubspaceRotationAdjust: set factor to 0.639
ElecMinimize: Iter: 106  F: -2005.282380588645310  |grad|_K:  1.966e-06  alpha:  8.418e-02  linmin: -4.566e-05  t[s]:   8820.77
	FillingsUpdate:  mu: +0.130477767  nElectrons: 347.000000  magneticMoment: [ Abs: 42.48091  Tot: -0.00000 ]
	SubspaceRotationAdjust: set factor to 0.584
ElecMinimize: Iter: 107  F: -2005.282468446341227  |grad|_K:  1.939e-06  alpha:  1.328e-01  linmin:  6.230e-04  t[s]:   8896.83
	FillingsUpdate:  mu: +0.132155314  nElectrons: 347.000000  magneticMoment: [ Abs: 42.47244  Tot: +0.00000 ]
	SubspaceRotationAdjust: set factor to 0.484
ElecMinimize: Iter: 108  F: -2005.282539515016197  |grad|_K:  1.808e-06  alpha:  1.136e-01  linmin:  1.105e-04  t[s]:   8970.31
	FillingsUpdate:  mu: +0.132501145  nElectrons: 347.000000  magneticMoment: [ Abs: 42.46450  Tot: +0.00000 ]
	SubspaceRotationAdjust: set factor to 0.443
ElecMinimize: Iter: 109  F: -2005.282626544202685  |grad|_K:  1.888e-06  alpha:  1.540e-01  linmin: -3.944e-05  t[s]:   9048.80
	FillingsUpdate:  mu: +0.130996432  nElectrons: 347.000000  magneticMoment: [ Abs: 42.46400  Tot: -0.00000 ]
	SubspaceRotationAdjust: set factor to 0.493
ElecMinimize: Iter: 110  F: -2005.282703518979133  |grad|_K:  1.501e-06  alpha:  1.240e-01  linmin: -3.989e-05  t[s]:   9124.62
	FillingsUpdate:  mu: +0.130644102  nElectrons: 347.000000  magneticMoment: [ Abs: 42.46520  Tot: -0.00000 ]
	SubspaceRotationAdjust: set factor to 0.423
ElecMinimize: Iter: 111  F: -2005.282762854293651  |grad|_K:  1.552e-06  alpha:  1.505e-01  linmin: -7.535e-06  t[s]:   9201.47
	FillingsUpdate:  mu: +0.131215940  nElectrons: 347.000000  magneticMoment: [ Abs: 42.46305  Tot: +0.00000 ]
	SubspaceRotationAdjust: set factor to 0.57
ElecMinimize: Iter: 112  F: -2005.282825572624461  |grad|_K:  1.367e-06  alpha:  1.494e-01  linmin:  1.284e-05  t[s]:   9277.80
	FillingsUpdate:  mu: +0.132344258  nElectrons: 347.000000  magneticMoment: [ Abs: 42.46040  Tot: -0.00000 ]
	SubspaceRotationAdjust: set factor to 0.547
ElecMinimize: Iter: 113  F: -2005.282870194786710  |grad|_K:  1.342e-06  alpha:  1.372e-01  linmin:  5.733e-05  t[s]:   9353.58
	FillingsUpdate:  mu: +0.131864629  nElectrons: 347.000000  magneticMoment: [ Abs: 42.46316  Tot: +0.00000 ]
	SubspaceRotationAdjust: set factor to 0.782
ElecMinimize: Iter: 114  F: -2005.282919612044907  |grad|_K:  1.277e-06  alpha:  1.585e-01  linmin: -2.075e-06  t[s]:   9432.65
	FillingsUpdate:  mu: +0.130681340  nElectrons: 347.000000  magneticMoment: [ Abs: 42.46886  Tot: -0.00000 ]
	SubspaceRotationAdjust: set factor to 0.699
ElecMinimize: Iter: 115  F: -2005.282959971014861  |grad|_K:  1.336e-06  alpha:  1.425e-01  linmin: -5.615e-05  t[s]:   9503.96
	FillingsUpdate:  mu: +0.130599397  nElectrons: 347.000000  magneticMoment: [ Abs: 42.47166  Tot: +0.00000 ]
	SubspaceRotationAdjust: set factor to 0.942
ElecMinimize: Iter: 116  F: -2005.283010367211546  |grad|_K:  1.130e-06  alpha:  1.610e-01  linmin: -1.246e-05  t[s]:   9581.46
	FillingsUpdate:  mu: +0.131681388  nElectrons: 347.000000  magneticMoment: [ Abs: 42.47393  Tot: +0.00000 ]
	SubspaceRotationAdjust: set factor to 0.891
ElecMinimize: Iter: 117  F: -2005.283044209414356  |grad|_K:  1.215e-06  alpha:  1.519e-01  linmin:  5.804e-05  t[s]:   9657.92
	FillingsUpdate:  mu: +0.131584644  nElectrons: 347.000000  magneticMoment: [ Abs: 42.48317  Tot: +0.00000 ]
	SubspaceRotationAdjust: set factor to 0.816
ElecMinimize: Iter: 118  F: -2005.283077759939260  |grad|_K:  1.180e-06  alpha:  1.313e-01  linmin:  9.377e-06  t[s]:   9733.53
	FillingsUpdate:  mu: +0.131162839  nElectrons: 347.000000  magneticMoment: [ Abs: 42.49055  Tot: +0.00000 ]
	SubspaceRotationAdjust: set factor to 0.997
ElecMinimize: Iter: 119  F: -2005.283113352342980  |grad|_K:  9.408e-07  alpha:  1.470e-01  linmin: -2.320e-05  t[s]:   9809.01
	FillingsUpdate:  mu: +0.131464779  nElectrons: 347.000000  magneticMoment: [ Abs: 42.49385  Tot: +0.00000 ]
	SubspaceRotationAdjust: set factor to 0.758
ElecMinimize: Iter: 120  F: -2005.283141320542200  |grad|_K:  1.199e-06  alpha:  1.803e-01  linmin: -1.164e-04  t[s]:   9886.35
	FillingsUpdate:  mu: +0.131128208  nElectrons: 347.000000  magneticMoment: [ Abs: 42.50146  Tot: -0.00000 ]
	SubspaceRotationAdjust: set factor to 0.83
ElecMinimize: Iter: 121  F: -2005.283172335520248  |grad|_K:  8.676e-07  alpha:  1.222e-01  linmin:  2.641e-07  t[s]:   9962.78
	FillingsUpdate:  mu: +0.131531724  nElectrons: 347.000000  magneticMoment: [ Abs: 42.50662  Tot: -0.00000 ]
	SubspaceRotationAdjust: set factor to 0.802
ElecMinimize: Iter: 122  F: -2005.283200144919874  |grad|_K:  9.363e-07  alpha:  2.124e-01  linmin:  1.189e-05  t[s]:  10041.50
	FillingsUpdate:  mu: +0.131670163  nElectrons: 347.000000  magneticMoment: [ Abs: 42.50834  Tot: -0.00000 ]
	SubspaceRotationAdjust: set factor to 0.817
ElecMinimize: Iter: 123  F: -2005.283223038346932  |grad|_K:  8.904e-07  alpha:  1.507e-01  linmin: -4.765e-06  t[s]:  10119.49
	FillingsUpdate:  mu: +0.130897328  nElectrons: 347.000000  magneticMoment: [ Abs: 42.51249  Tot: -0.00000 ]
	SubspaceRotationAdjust: set factor to 0.749
ElecMinimize: Iter: 124  F: -2005.283243645020775  |grad|_K:  8.569e-07  alpha:  1.492e-01  linmin: -2.363e-05  t[s]:  10196.75
	FillingsUpdate:  mu: +0.131051802  nElectrons: 347.000000  magneticMoment: [ Abs: 42.51413  Tot: +0.00000 ]
	SubspaceRotationAdjust: set factor to 0.997
ElecMinimize: Iter: 125  F: -2005.283270186969503  |grad|_K:  7.765e-07  alpha:  2.069e-01  linmin:  8.458e-07  t[s]:  10273.26
	FillingsUpdate:  mu: +0.131776529  nElectrons: 347.000000  magneticMoment: [ Abs: 42.51219  Tot: +0.00000 ]
	SubspaceRotationAdjust: set factor to 0.848
ElecMinimize: Iter: 126  F: -2005.283287591320459  |grad|_K:  9.309e-07  alpha:  1.652e-01  linmin:  2.838e-05  t[s]:  10351.41
	FillingsUpdate:  mu: +0.131237892  nElectrons: 347.000000  magneticMoment: [ Abs: 42.51325  Tot: -0.00000 ]
	SubspaceRotationAdjust: set factor to 0.896
ElecMinimize: Iter: 127  F: -2005.283309562740897  |grad|_K:  7.622e-07  alpha:  1.461e-01  linmin: -8.469e-06  t[s]:  10425.51
	FillingsUpdate:  mu: +0.130923491  nElectrons: 347.000000  magneticMoment: [ Abs: 42.51006  Tot: -0.00000 ]
	SubspaceRotationAdjust: set factor to 0.868
ElecMinimize: Iter: 128  F: -2005.283330569888221  |grad|_K:  7.943e-07  alpha:  2.075e-01  linmin:  2.162e-06  t[s]:  10502.50
	FillingsUpdate:  mu: +0.131376070  nElectrons: 347.000000  magneticMoment: [ Abs: 42.50463  Tot: -0.00000 ]
	SubspaceRotationAdjust: set factor to 0.953
ElecMinimize: Iter: 129  F: -2005.283353901768351  |grad|_K:  7.457e-07  alpha:  2.124e-01  linmin:  4.383e-06  t[s]:  10576.29
	FillingsUpdate:  mu: +0.131207555  nElectrons: 347.000000  magneticMoment: [ Abs: 42.50228  Tot: +0.00000 ]
	SubspaceRotationAdjust: set factor to 0.793
ElecMinimize: Iter: 130  F: -2005.283371327212990  |grad|_K:  8.669e-07  alpha:  1.799e-01  linmin:  1.513e-05  t[s]:  10652.63
	FillingsUpdate:  mu: +0.131340517  nElectrons: 347.000000  magneticMoment: [ Abs: 42.49570  Tot: -0.00000 ]
	SubspaceRotationAdjust: set factor to 0.711
ElecMinimize: Iter: 131  F: -2005.283387120823591  |grad|_K:  6.529e-07  alpha:  1.210e-01  linmin: -1.402e-07  t[s]:  10728.21
	FillingsUpdate:  mu: +0.130941483  nElectrons: 347.000000  magneticMoment: [ Abs: 42.49049  Tot: +0.00000 ]
	SubspaceRotationAdjust: set factor to 0.779
ElecMinimize: Iter: 132  F: -2005.283404144285669  |grad|_K:  6.288e-07  alpha:  2.294e-01  linmin:  9.716e-07  t[s]:  10802.75
	FillingsUpdate:  mu: +0.130983545  nElectrons: 347.000000  magneticMoment: [ Abs: 42.48728  Tot: -0.00000 ]
	SubspaceRotationAdjust: set factor to 0.769
ElecMinimize: Iter: 133  F: -2005.283417495958929  |grad|_K:  5.796e-07  alpha:  1.939e-01  linmin:  6.139e-06  t[s]:  10878.07
	FillingsUpdate:  mu: +0.131399422  nElectrons: 347.000000  magneticMoment: [ Abs: 42.48307  Tot: -0.00000 ]
	SubspaceRotationAdjust: set factor to 0.687
ElecMinimize: Iter: 134  F: -2005.283427280366141  |grad|_K:  5.881e-07  alpha:  1.672e-01  linmin:  2.501e-05  t[s]:  10952.07
	FillingsUpdate:  mu: +0.131000291  nElectrons: 347.000000  magneticMoment: [ Abs: 42.48201  Tot: +0.00000 ]
	SubspaceRotationAdjust: set factor to 0.705
ElecMinimize: Iter: 135  F: -2005.283436443789469  |grad|_K:  4.333e-07  alpha:  1.526e-01  linmin: -9.297e-06  t[s]:  11030.27
	FillingsUpdate:  mu: +0.130823620  nElectrons: 347.000000  magneticMoment: [ Abs: 42.48080  Tot: +0.00000 ]
	SubspaceRotationAdjust: set factor to 0.809
ElecMinimize: Iter: 136  F: -2005.283444267960476  |grad|_K:  4.179e-07  alpha:  2.390e-01  linmin:  4.302e-07  t[s]:  11107.72
	FillingsUpdate:  mu: +0.131151282  nElectrons: 347.000000  magneticMoment: [ Abs: 42.47934  Tot: +0.00000 ]
	SubspaceRotationAdjust: set factor to 0.72
ElecMinimize: Iter: 137  F: -2005.283448982081154  |grad|_K:  3.732e-07  alpha:  1.546e-01  linmin: -2.354e-06  t[s]:  11186.45
	FillingsUpdate:  mu: +0.131092237  nElectrons: 347.000000  magneticMoment: [ Abs: 42.48043  Tot: +0.00000 ]
	SubspaceRotationAdjust: set factor to 0.648
ElecMinimize: Iter: 138  F: -2005.283452705494255  |grad|_K:  3.275e-07  alpha:  1.535e-01  linmin:  1.768e-05  t[s]:  11261.12
	FillingsUpdate:  mu: +0.131034201  nElectrons: 347.000000  magneticMoment: [ Abs: 42.48058  Tot: +0.00000 ]
	SubspaceRotationAdjust: set factor to 0.722
ElecMinimize: Iter: 139  F: -2005.283456226090721  |grad|_K:  2.570e-07  alpha:  1.889e-01  linmin: -1.023e-06  t[s]:  11340.52
	FillingsUpdate:  mu: +0.131083146  nElectrons: 347.000000  magneticMoment: [ Abs: 42.48076  Tot: +0.00000 ]
	SubspaceRotationAdjust: set factor to 0.77
ElecMinimize: Iter: 140  F: -2005.283458812702747  |grad|_K:  2.564e-07  alpha:  2.249e-01  linmin:  3.512e-07  t[s]:  11414.80
	FillingsUpdate:  mu: +0.131040271  nElectrons: 347.000000  magneticMoment: [ Abs: 42.48219  Tot: +0.00000 ]
	SubspaceRotationAdjust: set factor to 0.676
ElecMinimize: Iter: 141  F: -2005.283460536484654  |grad|_K:  2.340e-07  alpha:  1.503e-01  linmin:  6.178e-07  t[s]:  11492.90
	FillingsUpdate:  mu: +0.131174668  nElectrons: 347.000000  magneticMoment: [ Abs: 42.48289  Tot: +0.00000 ]
	SubspaceRotationAdjust: set factor to 0.72
ElecMinimize: Iter: 142  F: -2005.283462418362888  |grad|_K:  2.140e-07  alpha:  1.974e-01  linmin:  8.124e-06  t[s]:  11573.43
	FillingsUpdate:  mu: +0.131040836  nElectrons: 347.000000  magneticMoment: [ Abs: 42.48403  Tot: +0.00000 ]
	SubspaceRotationAdjust: set factor to 0.758
ElecMinimize: Iter: 143  F: -2005.283464105034000  |grad|_K:  1.935e-07  alpha:  2.117e-01  linmin:  1.393e-06  t[s]:  11648.50
	FillingsUpdate:  mu: +0.130932825  nElectrons: 347.000000  magneticMoment: [ Abs: 42.48543  Tot: -0.00000 ]
	SubspaceRotationAdjust: set factor to 0.804
ElecMinimize: Iter: 144  F: -2005.283465775283048  |grad|_K:  2.203e-07  alpha:  2.563e-01  linmin: -1.937e-06  t[s]:  11725.69
	FillingsUpdate:  mu: +0.131108872  nElectrons: 347.000000  magneticMoment: [ Abs: 42.48553  Tot: +0.00000 ]
	SubspaceRotationAdjust: set factor to 0.676
ElecMinimize: Iter: 145  F: -2005.283467040629375  |grad|_K:  2.089e-07  alpha:  1.493e-01  linmin: -6.374e-06  t[s]:  11803.71
	FillingsUpdate:  mu: +0.131095939  nElectrons: 347.000000  magneticMoment: [ Abs: 42.48679  Tot: +0.00000 ]
	SubspaceRotationAdjust: set factor to 0.723
ElecMinimize: Iter: 146  F: -2005.283468643009428  |grad|_K:  1.991e-07  alpha:  2.107e-01  linmin:  4.856e-06  t[s]:  11880.28
	FillingsUpdate:  mu: +0.131030921  nElectrons: 347.000000  magneticMoment: [ Abs: 42.48727  Tot: +0.00000 ]
	SubspaceRotationAdjust: set factor to 0.718
ElecMinimize: Iter: 147  F: -2005.283470236532594  |grad|_K:  1.930e-07  alpha:  2.311e-01  linmin:  1.468e-06  t[s]:  11955.83
	FillingsUpdate:  mu: +0.131105542  nElectrons: 347.000000  magneticMoment: [ Abs: 42.48730  Tot: -0.00000 ]
	SubspaceRotationAdjust: set factor to 0.821
ElecMinimize: Iter: 148  F: -2005.283471967348987  |grad|_K:  2.059e-07  alpha:  2.670e-01  linmin:  1.146e-06  t[s]:  12031.89
	FillingsUpdate:  mu: +0.131069025  nElectrons: 347.000000  magneticMoment: [ Abs: 42.48798  Tot: -0.00000 ]
	SubspaceRotationAdjust: set factor to 0.717
ElecMinimize: Iter: 149  F: -2005.283473374775895  |grad|_K:  2.340e-07  alpha:  1.905e-01  linmin:  2.305e-06  t[s]:  12108.61
	FillingsUpdate:  mu: +0.131157972  nElectrons: 347.000000  magneticMoment: [ Abs: 42.48705  Tot: +0.00000 ]
	SubspaceRotationAdjust: set factor to 0.694
ElecMinimize: Iter: 150  F: -2005.283475132260037  |grad|_K:  2.206e-07  alpha:  1.844e-01  linmin:  3.243e-06  t[s]:  12185.26
	FillingsUpdate:  mu: +0.130974122  nElectrons: 347.000000  magneticMoment: [ Abs: 42.48673  Tot: +0.00000 ]
	SubspaceRotationAdjust: set factor to 0.658
ElecMinimize: Iter: 151  F: -2005.283477174399877  |grad|_K:  2.321e-07  alpha:  2.413e-01  linmin:  1.327e-06  t[s]:  12263.41
	FillingsUpdate:  mu: +0.131027292  nElectrons: 347.000000  magneticMoment: [ Abs: 42.48563  Tot: +0.00000 ]
	SubspaceRotationAdjust: set factor to 0.756
ElecMinimize: Iter: 152  F: -2005.283479719920933  |grad|_K:  2.212e-07  alpha:  2.715e-01  linmin: -1.011e-06  t[s]:  12340.71
	FillingsUpdate:  mu: +0.131151723  nElectrons: 347.000000  magneticMoment: [ Abs: 42.48405  Tot: +0.00000 ]
	SubspaceRotationAdjust: set factor to 0.797
ElecMinimize: Iter: 153  F: -2005.283482053070202  |grad|_K:  2.416e-07  alpha:  2.740e-01  linmin:  1.075e-06  t[s]:  12419.11
	FillingsUpdate:  mu: +0.130967207  nElectrons: 347.000000  magneticMoment: [ Abs: 42.48332  Tot: +0.00000 ]
	SubspaceRotationAdjust: set factor to 0.722
ElecMinimize: Iter: 154  F: -2005.283484089709646  |grad|_K:  2.542e-07  alpha:  2.006e-01  linmin: -8.465e-07  t[s]:  12496.89
	FillingsUpdate:  mu: +0.131069118  nElectrons: 347.000000  magneticMoment: [ Abs: 42.48118  Tot: +0.00000 ]
	SubspaceRotationAdjust: set factor to 0.654
ElecMinimize: Iter: 155  F: -2005.283486145649476  |grad|_K:  2.599e-07  alpha:  1.827e-01  linmin: -1.223e-06  t[s]:  12573.29
	FillingsUpdate:  mu: +0.131073795  nElectrons: 347.000000  magneticMoment: [ Abs: 42.48022  Tot: -0.00000 ]
	SubspaceRotationAdjust: set factor to 0.639
ElecMinimize: Iter: 156  F: -2005.283488466353901  |grad|_K:  2.266e-07  alpha:  1.972e-01  linmin: -1.121e-06  t[s]:  12650.35
	FillingsUpdate:  mu: +0.131079901  nElectrons: 347.000000  magneticMoment: [ Abs: 42.47870  Tot: +0.00000 ]
	SubspaceRotationAdjust: set factor to 0.756
ElecMinimize: Iter: 157  F: -2005.283490985824983  |grad|_K:  2.302e-07  alpha:  2.816e-01  linmin: -2.054e-06  t[s]:  12727.78
	FillingsUpdate:  mu: +0.131064751  nElectrons: 347.000000  magneticMoment: [ Abs: 42.47690  Tot: +0.00000 ]
	SubspaceRotationAdjust: set factor to 0.703
ElecMinimize: Iter: 158  F: -2005.283493059848979  |grad|_K:  2.429e-07  alpha:  2.248e-01  linmin: -2.212e-06  t[s]:  12805.48
	FillingsUpdate:  mu: +0.130918054  nElectrons: 347.000000  magneticMoment: [ Abs: 42.47678  Tot: -0.00000 ]
	SubspaceRotationAdjust: set factor to 0.63
ElecMinimize: Iter: 159  F: -2005.283494796016384  |grad|_K:  2.274e-07  alpha:  1.690e-01  linmin: -1.457e-06  t[s]:  12884.55
	FillingsUpdate:  mu: +0.131063700  nElectrons: 347.000000  magneticMoment: [ Abs: 42.47562  Tot: +0.00000 ]
	SubspaceRotationAdjust: set factor to 0.59
ElecMinimize: Iter: 160  F: -2005.283496531728133  |grad|_K:  1.999e-07  alpha:  1.927e-01  linmin:  4.343e-06  t[s]:  12962.18
	FillingsUpdate:  mu: +0.131049661  nElectrons: 347.000000  magneticMoment: [ Abs: 42.47502  Tot: -0.00000 ]
	SubspaceRotationAdjust: set factor to 0.712
ElecMinimize: Iter: 161  F: -2005.283498363827448  |grad|_K:  1.850e-07  alpha:  2.635e-01  linmin:  3.790e-07  t[s]:  13037.82
	FillingsUpdate:  mu: +0.130918561  nElectrons: 347.000000  magneticMoment: [ Abs: 42.47533  Tot: -0.00000 ]
	SubspaceRotationAdjust: set factor to 0.668
ElecMinimize: Iter: 162  F: -2005.283499693970953  |grad|_K:  1.903e-07  alpha:  2.234e-01  linmin: -2.965e-06  t[s]:  13110.97
	FillingsUpdate:  mu: +0.131036820  nElectrons: 347.000000  magneticMoment: [ Abs: 42.47487  Tot: +0.00000 ]
	SubspaceRotationAdjust: set factor to 0.606
ElecMinimize: Iter: 163  F: -2005.283500748518463  |grad|_K:  1.688e-07  alpha:  1.670e-01  linmin:  8.668e-07  t[s]:  13186.84
	FillingsUpdate:  mu: +0.131039886  nElectrons: 347.000000  magneticMoment: [ Abs: 42.47557  Tot: -0.00000 ]
	SubspaceRotationAdjust: set factor to 0.598
ElecMinimize: Iter: 164  F: -2005.283501831190961  |grad|_K:  1.548e-07  alpha:  2.182e-01  linmin:  6.158e-06  t[s]:  13264.39
	FillingsUpdate:  mu: +0.130991528  nElectrons: 347.000000  magneticMoment: [ Abs: 42.47601  Tot: -0.00000 ]
	SubspaceRotationAdjust: set factor to 0.694
ElecMinimize: Iter: 165  F: -2005.283502906468584  |grad|_K:  1.442e-07  alpha:  2.579e-01  linmin:  7.284e-07  t[s]:  13344.87
	FillingsUpdate:  mu: +0.131023521  nElectrons: 347.000000  magneticMoment: [ Abs: 42.47600  Tot: +0.00000 ]
	SubspaceRotationAdjust: set factor to 0.704
ElecMinimize: Iter: 166  F: -2005.283503850613670  |grad|_K:  1.647e-07  alpha:  2.610e-01  linmin:  1.065e-06  t[s]:  13421.81
	FillingsUpdate:  mu: +0.130978605  nElectrons: 347.000000  magneticMoment: [ Abs: 42.47681  Tot: -0.00000 ]
	SubspaceRotationAdjust: set factor to 0.62
ElecMinimize: Iter: 167  F: -2005.283504685177832  |grad|_K:  1.578e-07  alpha:  1.765e-01  linmin:  9.889e-07  t[s]:  13499.03
	FillingsUpdate:  mu: +0.131081914  nElectrons: 347.000000  magneticMoment: [ Abs: 42.47665  Tot: -0.00000 ]
	SubspaceRotationAdjust: set factor to 0.627
ElecMinimize: Iter: 168  F: -2005.283505671309058  |grad|_K:  1.521e-07  alpha:  2.276e-01  linmin:  6.015e-06  t[s]:  13577.00
	FillingsUpdate:  mu: +0.131012570  nElectrons: 347.000000  magneticMoment: [ Abs: 42.47681  Tot: -0.00000 ]
	SubspaceRotationAdjust: set factor to 0.657
ElecMinimize: Iter: 169  F: -2005.283506717038108  |grad|_K:  1.455e-07  alpha:  2.598e-01  linmin: -1.725e-06  t[s]:  13653.82
	FillingsUpdate:  mu: +0.130954982  nElectrons: 347.000000  magneticMoment: [ Abs: 42.47724  Tot: -0.00000 ]
	SubspaceRotationAdjust: set factor to 0.725
ElecMinimize: Iter: 170  F: -2005.283507736545744  |grad|_K:  1.516e-07  alpha:  2.764e-01  linmin:  1.382e-06  t[s]:  13728.97
	FillingsUpdate:  mu: +0.131065572  nElectrons: 347.000000  magneticMoment: [ Abs: 42.47688  Tot: -0.00000 ]
	SubspaceRotationAdjust: set factor to 0.628
ElecMinimize: Iter: 171  F: -2005.283508525275920  |grad|_K:  1.580e-07  alpha:  1.970e-01  linmin:  2.141e-06  t[s]:  13804.58
	FillingsUpdate:  mu: +0.130992458  nElectrons: 347.000000  magneticMoment: [ Abs: 42.47730  Tot: +0.00000 ]
	SubspaceRotationAdjust: set factor to 0.602
ElecMinimize: Iter: 172  F: -2005.283509370958427  |grad|_K:  1.472e-07  alpha:  1.947e-01  linmin: -1.207e-06  t[s]:  13882.55
	FillingsUpdate:  mu: +0.130986882  nElectrons: 347.000000  magneticMoment: [ Abs: 42.47680  Tot: +0.00000 ]
	SubspaceRotationAdjust: set factor to 0.597
ElecMinimize: Iter: 173  F: -2005.283510317615082  |grad|_K:  1.432e-07  alpha:  2.509e-01  linmin: -4.835e-06  t[s]:  13960.00
	FillingsUpdate:  mu: +0.131041275  nElectrons: 347.000000  magneticMoment: [ Abs: 42.47639  Tot: +0.00000 ]
	SubspaceRotationAdjust: set factor to 0.687
ElecMinimize: Iter: 174  F: -2005.283511341134954  |grad|_K:  1.427e-07  alpha:  2.864e-01  linmin: -9.610e-07  t[s]:  14039.81
	FillingsUpdate:  mu: +0.131021853  nElectrons: 347.000000  magneticMoment: [ Abs: 42.47632  Tot: -0.00000 ]
	SubspaceRotationAdjust: set factor to 0.679
ElecMinimize: Iter: 175  F: -2005.283512277510454  |grad|_K:  1.605e-07  alpha:  2.640e-01  linmin: -7.448e-07  t[s]:  14117.21
	FillingsUpdate:  mu: +0.131052697  nElectrons: 347.000000  magneticMoment: [ Abs: 42.47523  Tot: +0.00000 ]
	SubspaceRotationAdjust: set factor to 0.606
ElecMinimize: Iter: 176  F: -2005.283513147916665  |grad|_K:  1.627e-07  alpha:  1.942e-01  linmin: -1.742e-06  t[s]:  14192.94
	FillingsUpdate:  mu: +0.130918133  nElectrons: 347.000000  magneticMoment: [ Abs: 42.47494  Tot: +0.00000 ]
	SubspaceRotationAdjust: set factor to 0.583
ElecMinimize: Iter: 177  F: -2005.283514166988880  |grad|_K:  1.553e-07  alpha:  2.209e-01  linmin: -5.916e-06  t[s]:  14271.04
	FillingsUpdate:  mu: +0.130989104  nElectrons: 347.000000  magneticMoment: [ Abs: 42.47423  Tot: +0.00000 ]
	SubspaceRotationAdjust: set factor to 0.627
ElecMinimize: Iter: 178  F: -2005.283515270140015  |grad|_K:  1.514e-07  alpha:  2.623e-01  linmin: -4.979e-08  t[s]:  14347.12
	FillingsUpdate:  mu: +0.131070233  nElectrons: 347.000000  magneticMoment: [ Abs: 42.47355  Tot: -0.00000 ]
	SubspaceRotationAdjust: set factor to 0.696
ElecMinimize: Iter: 179  F: -2005.283516500362111  |grad|_K:  1.659e-07  alpha:  3.081e-01  linmin: -5.030e-07  t[s]:  14423.32
	FillingsUpdate:  mu: +0.130943392  nElectrons: 347.000000  magneticMoment: [ Abs: 42.47377  Tot: +0.00000 ]
	SubspaceRotationAdjust: set factor to 0.632
ElecMinimize: Iter: 180  F: -2005.283517564033673  |grad|_K:  1.819e-07  alpha:  2.223e-01  linmin: -1.403e-06  t[s]:  14497.46
	FillingsUpdate:  mu: +0.131004575  nElectrons: 347.000000  magneticMoment: [ Abs: 42.47314  Tot: +0.00000 ]
	SubspaceRotationAdjust: set factor to 0.59
ElecMinimize: Iter: 181  F: -2005.283518808888630  |grad|_K:  1.885e-07  alpha:  2.160e-01  linmin: -4.462e-07  t[s]:  14573.11
	FillingsUpdate:  mu: +0.130985585  nElectrons: 347.000000  magneticMoment: [ Abs: 42.47369  Tot: +0.00000 ]
	SubspaceRotationAdjust: set factor to 0.589
ElecMinimize: Iter: 182  F: -2005.283520333749948  |grad|_K:  1.832e-07  alpha:  2.464e-01  linmin: -3.036e-06  t[s]:  14649.61
	FillingsUpdate:  mu: +0.130943239  nElectrons: 347.000000  magneticMoment: [ Abs: 42.47416  Tot: +0.00000 ]
	SubspaceRotationAdjust: set factor to 0.674
ElecMinimize: Iter: 183  F: -2005.283522160287021  |grad|_K:  2.009e-07  alpha:  3.122e-01  linmin:  1.124e-07  t[s]:  14729.54
	FillingsUpdate:  mu: +0.130970600  nElectrons: 347.000000  magneticMoment: [ Abs: 42.47402  Tot: -0.00000 ]
	SubspaceRotationAdjust: set factor to 0.656
ElecMinimize: Iter: 184  F: -2005.283524169284192  |grad|_K:  2.418e-07  alpha:  2.860e-01  linmin: -1.641e-06  t[s]:  14806.40
	FillingsUpdate:  mu: +0.130886043  nElectrons: 347.000000  magneticMoment: [ Abs: 42.47532  Tot: -0.00000 ]
	SubspaceRotationAdjust: set factor to 0.597
ElecMinimize: Iter: 185  F: -2005.283526293410659  |grad|_K:  2.495e-07  alpha:  2.089e-01  linmin: -2.430e-06  t[s]:  14885.86
	FillingsUpdate:  mu: +0.131072555  nElectrons: 347.000000  magneticMoment: [ Abs: 42.47569  Tot: +0.00000 ]
	SubspaceRotationAdjust: set factor to 0.57
ElecMinimize: Iter: 186  F: -2005.283528938949985  |grad|_K:  2.597e-07  alpha:  2.440e-01  linmin:  9.923e-06  t[s]:  14965.76
	FillingsUpdate:  mu: +0.130978877  nElectrons: 347.000000  magneticMoment: [ Abs: 42.47743  Tot: +0.00000 ]
	SubspaceRotationAdjust: set factor to 0.631
ElecMinimize: Iter: 187  F: -2005.283532435660618  |grad|_K:  2.725e-07  alpha:  2.991e-01  linmin:  1.087e-05  t[s]:  15042.02
	FillingsUpdate:  mu: +0.130831033  nElectrons: 347.000000  magneticMoment: [ Abs: 42.47977  Tot: +0.00000 ]
	SubspaceRotationAdjust: set factor to 0.665
ElecMinimize: Iter: 188  F: -2005.283536266840656  |grad|_K:  3.096e-07  alpha:  2.975e-01  linmin:  5.234e-06  t[s]:  15120.17
	FillingsUpdate:  mu: +0.131064088  nElectrons: 347.000000  magneticMoment: [ Abs: 42.48047  Tot: +0.00000 ]
	SubspaceRotationAdjust: set factor to 0.623
ElecMinimize: Iter: 189  F: -2005.283539904775353  |grad|_K:  3.269e-07  alpha:  2.174e-01  linmin:  3.431e-06  t[s]:  15197.36
	FillingsUpdate:  mu: +0.131011083  nElectrons: 347.000000  magneticMoment: [ Abs: 42.48282  Tot: -0.00000 ]
	SubspaceRotationAdjust: set factor to 0.622
ElecMinimize: Iter: 190  F: -2005.283544187142752  |grad|_K:  3.345e-07  alpha:  2.305e-01  linmin: -2.907e-06  t[s]:  15277.22
	FillingsUpdate:  mu: +0.130953968  nElectrons: 347.000000  magneticMoment: [ Abs: 42.48398  Tot: -0.00000 ]
	SubspaceRotationAdjust: set factor to 0.673
ElecMinimize: Iter: 191  F: -2005.283549159448057  |grad|_K:  3.246e-07  alpha:  2.553e-01  linmin:  1.839e-05  t[s]:  15356.25
	FillingsUpdate:  mu: +0.131002521  nElectrons: 347.000000  magneticMoment: [ Abs: 42.48477  Tot: +0.00000 ]
	SubspaceRotationAdjust: set factor to 0.782
ElecMinimize: Iter: 192  F: -2005.283554097799197  |grad|_K:  3.472e-07  alpha:  2.718e-01  linmin:  2.011e-05  t[s]:  15435.81
	FillingsUpdate:  mu: +0.130957061  nElectrons: 347.000000  magneticMoment: [ Abs: 42.48659  Tot: -0.00000 ]
	SubspaceRotationAdjust: set factor to 0.758
ElecMinimize: Iter: 193  F: -2005.283558274177722  |grad|_K:  3.606e-07  alpha:  2.006e-01  linmin:  5.480e-07  t[s]:  15517.09
	FillingsUpdate:  mu: +0.131111544  nElectrons: 347.000000  magneticMoment: [ Abs: 42.48640  Tot: +0.00000 ]
	SubspaceRotationAdjust: set factor to 0.784
ElecMinimize: Iter: 194  F: -2005.283562501945198  |grad|_K:  3.502e-07  alpha:  1.865e-01  linmin:  1.227e-05  t[s]:  15592.96
[...]
ElecMinimize: Iter:  30  F: -2005.316337867800939  |grad|_K:  2.080e-07  alpha:  2.816e-01  linmin: -8.412e-06  t[s]:  47911.80
	FillingsUpdate:  mu: +0.131612471  nElectrons: 347.000000  magneticMoment: [ Abs: 42.16471  Tot: -0.00000 ]
	SubspaceRotationAdjust: set factor to 0.369
ElecMinimize: Iter:  31  F: -2005.316339410855107  |grad|_K:  1.752e-07  alpha:  2.047e-01  linmin: -5.683e-08  t[s]:  47991.28
	FillingsUpdate:  mu: +0.131606766  nElectrons: 347.000000  magneticMoment: [ Abs: 42.16461  Tot: -0.00000 ]
	SubspaceRotationAdjust: set factor to 0.428
ElecMinimize: Iter:  32  F: -2005.316341091001277  |grad|_K:  1.553e-07  alpha:  3.142e-01  linmin: -2.369e-06  t[s]:  48066.90
	FillingsUpdate:  mu: +0.131606765  nElectrons: 347.000000  magneticMoment: [ Abs: 42.16464  Tot: +0.00000 ]
	SubspaceRotationAdjust: set factor to 0.495
ElecMinimize: Iter:  33  F: -2005.316342800877010  |grad|_K:  1.627e-07  alpha:  4.072e-01  linmin:  3.447e-07  t[s]:  48146.04
	FillingsUpdate:  mu: +0.131627233  nElectrons: 347.000000  magneticMoment: [ Abs: 42.16481  Tot: +0.00000 ]
	SubspaceRotationAdjust: set factor to 0.466
ElecMinimize: Iter:  34  F: -2005.316344186746619  |grad|_K:  1.999e-07  alpha:  3.007e-01  linmin:  1.917e-06  t[s]:  48223.34
	FillingsUpdate:  mu: +0.131590953  nElectrons: 347.000000  magneticMoment: [ Abs: 42.16462  Tot: +0.00000 ]
	SubspaceRotationAdjust: set factor to 0.395
ElecMinimize: Iter:  35  F: -2005.316345640339023  |grad|_K:  1.844e-07  alpha:  2.090e-01  linmin:  1.256e-07  t[s]:  48298.89
	FillingsUpdate:  mu: +0.131583160  nElectrons: 347.000000  magneticMoment: [ Abs: 42.16469  Tot: +0.00000 ]
	SubspaceRotationAdjust: set factor to 0.436
ElecMinimize: Iter:  36  F: -2005.316347750341492  |grad|_K:  1.803e-07  alpha:  3.565e-01  linmin:  1.067e-06  t[s]:  48374.94
	FillingsUpdate:  mu: +0.131583698  nElectrons: 347.000000  magneticMoment: [ Abs: 42.16476  Tot: -0.00000 ]
	SubspaceRotationAdjust: set factor to 0.484
ElecMinimize: Iter:  37  F: -2005.316350101908483  |grad|_K:  1.849e-07  alpha:  4.153e-01  linmin:  4.231e-07  t[s]:  48451.51
	FillingsUpdate:  mu: +0.131560003  nElectrons: 347.000000  magneticMoment: [ Abs: 42.16450  Tot: -0.00000 ]
	SubspaceRotationAdjust: set factor to 0.462
ElecMinimize: Iter:  38  F: -2005.316352008976764  |grad|_K:  2.139e-07  alpha:  3.203e-01  linmin:  3.203e-06  t[s]:  48526.28
	FillingsUpdate:  mu: +0.131572639  nElectrons: 347.000000  magneticMoment: [ Abs: 42.16448  Tot: +0.00000 ]
	SubspaceRotationAdjust: set factor to 0.371
ElecMinimize: Iter:  39  F: -2005.316353528844957  |grad|_K:  1.922e-07  alpha:  1.904e-01  linmin: -4.176e-06  t[s]:  48602.09
	FillingsUpdate:  mu: +0.131538261  nElectrons: 347.000000  magneticMoment: [ Abs: 42.16406  Tot: +0.00000 ]
	SubspaceRotationAdjust: set factor to 0.406
ElecMinimize: Iter:  40  F: -2005.316355404304659  |grad|_K:  1.621e-07  alpha:  2.916e-01  linmin:  5.842e-06  t[s]:  48679.01
	FillingsUpdate:  mu: +0.131531951  nElectrons: 347.000000  magneticMoment: [ Abs: 42.16375  Tot: -0.00000 ]
	SubspaceRotationAdjust: set factor to 0.471
ElecMinimize: Iter:  41  F: -2005.316357117876123  |grad|_K:  1.519e-07  alpha:  3.750e-01  linmin:  3.761e-06  t[s]:  48758.78
	FillingsUpdate:  mu: +0.131555909  nElectrons: 347.000000  magneticMoment: [ Abs: 42.16358  Tot: +0.00000 ]
	SubspaceRotationAdjust: set factor to 0.453
ElecMinimize: Iter:  42  F: -2005.316358268975819  |grad|_K:  1.636e-07  alpha:  2.865e-01  linmin: -4.927e-07  t[s]:  48834.63
	FillingsUpdate:  mu: +0.131537004  nElectrons: 347.000000  magneticMoment: [ Abs: 42.16311  Tot: -0.00000 ]
	SubspaceRotationAdjust: set factor to 0.38
ElecMinimize: Iter:  43  F: -2005.316359153360054  |grad|_K:  1.415e-07  alpha:  1.897e-01  linmin: -7.240e-07  t[s]:  48909.76
	FillingsUpdate:  mu: +0.131540198  nElectrons: 347.000000  magneticMoment: [ Abs: 42.16265  Tot: -0.00000 ]
	SubspaceRotationAdjust: set factor to 0.428
ElecMinimize: Iter:  44  F: -2005.316360209611958  |grad|_K:  1.202e-07  alpha:  3.026e-01  linmin: -9.928e-06  t[s]:  48986.36
	FillingsUpdate:  mu: +0.131546224  nElectrons: 347.000000  magneticMoment: [ Abs: 42.16222  Tot: -0.00000 ]
	SubspaceRotationAdjust: set factor to 0.498
ElecMinimize: Iter:  45  F: -2005.316361156380026  |grad|_K:  1.147e-07  alpha:  3.757e-01  linmin: -1.313e-06  t[s]:  49063.25
	FillingsUpdate:  mu: +0.131547516  nElectrons: 347.000000  magneticMoment: [ Abs: 42.16178  Tot: -0.00000 ]
	SubspaceRotationAdjust: set factor to 0.483
ElecMinimize: Iter:  46  F: -2005.316361867342493  |grad|_K:  1.305e-07  alpha:  3.104e-01  linmin:  2.611e-07  t[s]:  49141.83
	FillingsUpdate:  mu: +0.131571529  nElectrons: 347.000000  magneticMoment: [ Abs: 42.16161  Tot: -0.00000 ]
	SubspaceRotationAdjust: set factor to 0.392
ElecMinimize: Iter:  47  F: -2005.316362404756774  |grad|_K:  1.172e-07  alpha:  1.814e-01  linmin:  3.180e-06  t[s]:  49221.13
	FillingsUpdate:  mu: +0.131571934  nElectrons: 347.000000  magneticMoment: [ Abs: 42.16120  Tot: -0.00000 ]
	SubspaceRotationAdjust: set factor to 0.424
ElecMinimize: Iter:  48  F: -2005.316363108722271  |grad|_K:  1.003e-07  alpha:  2.947e-01  linmin:  5.100e-06  t[s]:  49296.49
	FillingsUpdate:  mu: +0.131579483  nElectrons: 347.000000  magneticMoment: [ Abs: 42.16099  Tot: -0.00000 ]
	SubspaceRotationAdjust: set factor to 0.488
ElecMinimize: Iter:  49  F: -2005.316363762794253  |grad|_K:  9.296e-08  alpha:  3.736e-01  linmin:  6.032e-06  t[s]:  49371.98
ElecMinimize: Converged (|Delta F|<1.000000e-06 for 5 iters).
Setting wave functions to eigenvectors of Hamiltonian
IonicMinimize: 	Wolfe criterion not satisfied: alpha: 0.383786  (E-E0)/|gdotd0|: 0.333993  gdotd/gdotd0: -2.24231 (taking cubic step)

-------- Electronic minimization -----------
	FillingsUpdate:  mu: +0.134459533  nElectrons: 347.000000  magneticMoment: [ Abs: 42.16400  Tot: -0.00000 ]
ElecMinimize: Iter:   0  F: -2005.197534043385758  |grad|_K:  5.909e-05  alpha:  1.000e+00
	FillingsUpdate:  mu: +0.137203170  nElectrons: 347.000000  magneticMoment: [ Abs: 42.16984  Tot: +0.00000 ]
	SubspaceRotationAdjust: set factor to 0.454
ElecMinimize: Iter:   1  F: -2005.309720358611912  |grad|_K:  1.184e-05  alpha:  1.871e-01  linmin:  3.450e-03  t[s]:  49507.71
	FillingsUpdate:  mu: +0.130057934  nElectrons: 347.000000  magneticMoment: [ Abs: 42.17255  Tot: +0.00000 ]
	SubspaceRotationAdjust: set factor to 0.284
ElecMinimize: Iter:   2  F: -2005.313359943709202  |grad|_K:  8.268e-06  alpha:  1.466e-01  linmin:  1.386e-03  t[s]:  49583.83
	FillingsUpdate:  mu: +0.131054516  nElectrons: 347.000000  magneticMoment: [ Abs: 42.16450  Tot: -0.00000 ]
	SubspaceRotationAdjust: set factor to 0.23
ElecMinimize: Iter:   3  F: -2005.315072989850705  |grad|_K:  4.357e-06  alpha:  1.483e-01  linmin: -5.331e-04  t[s]:  49658.72
	FillingsUpdate:  mu: +0.131712338  nElectrons: 347.000000  magneticMoment: [ Abs: 42.16442  Tot: -0.00000 ]
	SubspaceRotationAdjust: set factor to 0.281
ElecMinimize: Iter:   4  F: -2005.315810857427323  |grad|_K:  2.745e-06  alpha:  2.190e-01  linmin: -5.073e-06  t[s]:  49734.91
	FillingsUpdate:  mu: +0.131837647  nElectrons: 347.000000  magneticMoment: [ Abs: 42.16704  Tot: -0.00000 ]
	SubspaceRotationAdjust: set factor to 0.237
ElecMinimize: Iter:   5  F: -2005.316156031305582  |grad|_K:  2.045e-06  alpha:  2.638e-01  linmin:  2.013e-04  t[s]:  49811.46
	FillingsUpdate:  mu: +0.130987966  nElectrons: 347.000000  magneticMoment: [ Abs: 42.16743  Tot: +0.00000 ]
	SubspaceRotationAdjust: set factor to 0.251
ElecMinimize: Iter:   6  F: -2005.316349175992400  |grad|_K:  1.503e-06  alpha:  2.684e-01  linmin: -1.630e-05  t[s]:  49886.62
	FillingsUpdate:  mu: +0.130855619  nElectrons: 347.000000  magneticMoment: [ Abs: 42.16785  Tot: -0.00000 ]
	SubspaceRotationAdjust: set factor to 0.303
ElecMinimize: Iter:   7  F: -2005.316464432815565  |grad|_K:  1.253e-06  alpha:  2.924e-01  linmin: -5.359e-07  t[s]:  49964.67
	FillingsUpdate:  mu: +0.131220982  nElectrons: 347.000000  magneticMoment: [ Abs: 42.16885  Tot: -0.00000 ]
	SubspaceRotationAdjust: set factor to 0.289
ElecMinimize: Iter:   8  F: -2005.316546694817362  |grad|_K:  1.036e-06  alpha:  3.010e-01  linmin:  1.532e-05  t[s]:  50041.46
	FillingsUpdate:  mu: +0.130861889  nElectrons: 347.000000  magneticMoment: [ Abs: 42.16947  Tot: +0.00000 ]
	SubspaceRotationAdjust: set factor to 0.276
ElecMinimize: Iter:   9  F: -2005.316597877796312  |grad|_K:  8.651e-07  alpha:  2.743e-01  linmin: -6.284e-06  t[s]:  50116.33
	FillingsUpdate:  mu: +0.130899779  nElectrons: 347.000000  magneticMoment: [ Abs: 42.17065  Tot: -0.00000 ]
	SubspaceRotationAdjust: set factor to 0.339
ElecMinimize: Iter:  10  F: -2005.316639076647334  |grad|_K:  6.758e-07  alpha:  3.158e-01  linmin:  6.618e-07  t[s]:  50191.96
	FillingsUpdate:  mu: +0.131057468  nElectrons: 347.000000  magneticMoment: [ Abs: 42.17155  Tot: -0.00000 ]
	SubspaceRotationAdjust: set factor to 0.339
ElecMinimize: Iter:  11  F: -2005.316663617992390  |grad|_K:  5.920e-07  alpha:  3.087e-01  linmin: -1.207e-06  t[s]:  50268.81
	FillingsUpdate:  mu: +0.130821852  nElectrons: 347.000000  magneticMoment: [ Abs: 42.17214  Tot: -0.00000 ]
	SubspaceRotationAdjust: set factor to 0.264
ElecMinimize: Iter:  12  F: -2005.316678814799616  |grad|_K:  4.873e-07  alpha:  2.492e-01  linmin: -5.023e-06  t[s]:  50345.39
	FillingsUpdate:  mu: +0.130899912  nElectrons: 347.000000  magneticMoment: [ Abs: 42.17296  Tot: +0.00000 ]
	SubspaceRotationAdjust: set factor to 0.273
ElecMinimize: Iter:  13  F: -2005.316689556041638  |grad|_K:  3.536e-07  alpha:  2.596e-01  linmin: -3.367e-06  t[s]:  50420.32
	FillingsUpdate:  mu: +0.130912684  nElectrons: 347.000000  magneticMoment: [ Abs: 42.17370  Tot: +0.00000 ]
	SubspaceRotationAdjust: set factor to 0.322
ElecMinimize: Iter:  14  F: -2005.316696955499538  |grad|_K:  2.907e-07  alpha:  3.397e-01  linmin: -1.164e-06  t[s]:  50497.72
	FillingsUpdate:  mu: +0.130796069  nElectrons: 347.000000  magneticMoment: [ Abs: 42.17424  Tot: -0.00000 ]
	SubspaceRotationAdjust: set factor to 0.293
ElecMinimize: Iter:  15  F: -2005.316701729387887  |grad|_K:  2.743e-07  alpha:  3.244e-01  linmin: -4.174e-06  t[s]:  50575.47
	FillingsUpdate:  mu: +0.130881893  nElectrons: 347.000000  magneticMoment: [ Abs: 42.17473  Tot: -0.00000 ]
	SubspaceRotationAdjust: set factor to 0.273
ElecMinimize: Iter:  16  F: -2005.316705270986631  |grad|_K:  2.241e-07  alpha:  2.705e-01  linmin: -1.131e-05  t[s]:  50649.86
	FillingsUpdate:  mu: +0.130844753  nElectrons: 347.000000  magneticMoment: [ Abs: 42.17532  Tot: +0.00000 ]
	SubspaceRotationAdjust: set factor to 0.333
ElecMinimize: Iter:  17  F: -2005.316708735284465  |grad|_K:  2.071e-07  alpha:  3.960e-01  linmin:  2.106e-06  t[s]:  50725.56
	FillingsUpdate:  mu: +0.130789276  nElectrons: 347.000000  magneticMoment: [ Abs: 42.17590  Tot: -0.00000 ]
	SubspaceRotationAdjust: set factor to 0.362
ElecMinimize: Iter:  18  F: -2005.316711621778950  |grad|_K:  2.098e-07  alpha:  3.867e-01  linmin:  3.279e-06  t[s]:  50803.53
	FillingsUpdate:  mu: +0.130878793  nElectrons: 347.000000  magneticMoment: [ Abs: 42.17639  Tot: +0.00000 ]
	SubspaceRotationAdjust: set factor to 0.307
ElecMinimize: Iter:  19  F: -2005.316714040982106  |grad|_K:  2.152e-07  alpha:  3.163e-01  linmin: -1.287e-05  t[s]:  50882.30
	FillingsUpdate:  mu: +0.130791307  nElectrons: 347.000000  magneticMoment: [ Abs: 42.17685  Tot: -0.00000 ]
	SubspaceRotationAdjust: set factor to 0.267
ElecMinimize: Iter:  20  F: -2005.316716267047696  |grad|_K:  1.693e-07  alpha:  2.757e-01  linmin:  3.204e-07  t[s]:  50960.43
	FillingsUpdate:  mu: +0.130794298  nElectrons: 347.000000  magneticMoment: [ Abs: 42.17717  Tot: -0.00000 ]
	SubspaceRotationAdjust: set factor to 0.303
ElecMinimize: Iter:  21  F: -2005.316718139741852  |grad|_K:  1.438e-07  alpha:  3.750e-01  linmin: -2.958e-06  t[s]:  51038.12
	FillingsUpdate:  mu: +0.130821886  nElectrons: 347.000000  magneticMoment: [ Abs: 42.17732  Tot: +0.00000 ]
	SubspaceRotationAdjust: set factor to 0.308
ElecMinimize: Iter:  22  F: -2005.316719283283419  |grad|_K:  1.188e-07  alpha:  3.176e-01  linmin: -2.504e-06  t[s]:  51115.41
	FillingsUpdate:  mu: +0.130773855  nElectrons: 347.000000  magneticMoment: [ Abs: 42.17735  Tot: -0.00000 ]
	SubspaceRotationAdjust: set factor to 0.274
ElecMinimize: Iter:  23  F: -2005.316720049276682  |grad|_K:  1.001e-07  alpha:  3.119e-01  linmin:  3.024e-06  t[s]:  51192.99
	FillingsUpdate:  mu: +0.130809472  nElectrons: 347.000000  magneticMoment: [ Abs: 42.17725  Tot: -0.00000 ]
	SubspaceRotationAdjust: set factor to 0.261
ElecMinimize: Iter:  24  F: -2005.316720595348215  |grad|_K:  8.190e-08  alpha:  3.129e-01  linmin:  9.805e-08  t[s]:  51272.39
	FillingsUpdate:  mu: +0.130796701  nElectrons: 347.000000  magneticMoment: [ Abs: 42.17709  Tot: +0.00000 ]
	SubspaceRotationAdjust: set factor to 0.307
ElecMinimize: Iter:  25  F: -2005.316720992543651  |grad|_K:  7.168e-08  alpha:  3.399e-01  linmin: -2.581e-06  t[s]:  51349.86
	FillingsUpdate:  mu: +0.130783990  nElectrons: 347.000000  magneticMoment: [ Abs: 42.17687  Tot: -0.00000 ]
	SubspaceRotationAdjust: set factor to 0.352
ElecMinimize: Iter:  26  F: -2005.316721315623226  |grad|_K:  6.563e-08  alpha:  3.608e-01  linmin: -3.180e-05  t[s]:  51426.07
	FillingsUpdate:  mu: +0.130815050  nElectrons: 347.000000  magneticMoment: [ Abs: 42.17658  Tot: +0.00000 ]
	SubspaceRotationAdjust: set factor to 0.336
ElecMinimize: Iter:  27  F: -2005.316721583672233  |grad|_K:  6.853e-08  alpha:  3.567e-01  linmin: -9.786e-06  t[s]:  51503.11
ElecMinimize: Converged (|Delta F|<1.000000e-06 for 5 iters).
Setting wave functions to eigenvectors of Hamiltonian

# Ionic positions in lattice coordinates:
ion Ni  -0.009953131096746   0.001909124149501   0.148557214779827 1
ion Ni  -0.251113172124247   0.253618968083493   0.051619516089232 1
ion Ni  -0.252272358563487   0.751966967431590   0.051457659046127 1
ion V   0.502105871890818   0.001513142987603   0.152314784221766 1
ion V  -0.003061695367646   0.498063587997908   0.152060212979523 1
ion V   0.000000000000000   0.000000000000000  -0.050000000000000 0
ion V   0.500000000000000   0.500000000000000  -0.050000000000000 0
ion V   0.250000000000000   0.750000000000000  -0.150000000000000 0
ion V  -0.250000000000000   0.250000000000000  -0.150000000000000 0
ion Co   0.506837765510118   0.496802195351039   0.148166955166628 1
ion Co   0.248969842784242   0.250782140678853   0.051426943070695 1
ion Co   0.500000000000000   0.000000000000000  -0.050000000000000 0
ion Co   0.000000000000000   0.500000000000000  -0.050000000000000 0
ion Co  -0.250000000000000   0.750000000000000  -0.150000000000000 0
ion Cr   0.248820744396929   0.753230140476098   0.051849898276889 1
ion Cr   0.250000000000000   0.250000000000000  -0.150000000000000 0
ion O   0.259859748239738   0.260476844372486   0.147589960699810 1
ion O   0.258496070320127   0.737788576993342   0.144519334301978 1
ion O  -0.254669324067028   0.255247889768052   0.147360430803942 1
ion O  -0.256305864517054   0.739101698361445   0.146323575546976 1
ion O   0.009446342088097  -0.015290848780617   0.056645602516734 1
ion O   0.490076389657988  -0.017374906220252   0.050006950284235 1
ion O   0.009148697371991   0.521627032337976   0.050355447345533 1
ion O   0.487432537643818   0.524012355000326   0.044879419092341 1
ion O   0.250000000000000   0.250000000000000  -0.050000000000000 0
ion O   0.250000000000000   0.750000000000000  -0.050000000000000 0
ion O  -0.250000000000000   0.250000000000000  -0.050000000000000 0
ion O  -0.250000000000000   0.750000000000000  -0.050000000000000 0
ion O   0.000000000000000   0.000000000000000  -0.150000000000000 0
ion O   0.500000000000000   0.000000000000000  -0.150000000000000 0
ion O   0.000000000000000   0.500000000000000  -0.150000000000000 0
ion O   0.500000000000000   0.500000000000000  -0.150000000000000 0
ion O  -0.006273093771253  -0.000998332280179   0.228016595954823 1

# Forces in Lattice coordinates:
force Ni  -0.000152332652153   0.003553524717435  -0.058502135971803 1
force Ni  -0.001908318854093  -0.000000448256416  -0.009038924152212 1
force Ni   0.002268388461915   0.001958351497600   0.012600849180286 1
force V   0.005923595139262   0.005049041815955  -0.015503371925602 1
force V  -0.002772237814144  -0.002373151752001   0.016680041836276 1
force V  -0.138151865897932   0.021705417247558   0.791095286949334 0
force V   0.073240096995206  -0.047650432079049   0.225228731662028 0
force V   0.022585107856465  -0.010752224256249  -0.463235031786037 0
force V   0.015867259195738  -0.010503956925607  -0.205215744499252 0
force Co   0.002326260022322  -0.003635570390370   0.001229036377701 1
force Co  -0.004484451809037   0.000703476633868   0.010452633074867 1
force Co   0.068159605369434   0.022983241973558   0.379059597933293 0
force Co  -0.079457498416677  -0.020487368868210   0.462956388602608 0
force Co   0.036232502041886   0.007372066619705  -0.008310842579469 0
force Cr  -0.002979885054774   0.010950973048426  -0.016458357132357 1
force Cr   0.012944513788554   0.000641920637500  -1.379346362990026 0
force O   0.001093827552997  -0.007808275212356  -0.018017337415468 1
force O  -0.002530260865723   0.004985779426138   0.002580772632427 1
force O  -0.010093253013116  -0.001354151476252  -0.039655968564075 1
force O  -0.003308680995491   0.002581709119176  -0.048202982250169 1
force O   0.002380039843448  -0.002486960056367  -0.048631179977860 1
force O  -0.000565335470384  -0.001392768531318  -0.016380575235516 1
force O  -0.000896617146987   0.002588649432111  -0.001412215131966 1
force O   0.004153549935852  -0.002243381270936   0.019603442840502 1
force O   0.015129560361771   0.009745010046849   0.904358572119068 0
force O   0.027622450793287  -0.031006932590039   0.090692954604095 0
force O  -0.056190344810193   0.061682761091667  -0.065441202974439 0
force O  -0.023679234633212  -0.009316836413855  -0.062699868922312 0
force O   0.039200982570327   0.015166236722226  -0.263789681782441 0
force O  -0.024630521946585   0.011229674120526  -0.131714855341889 0
force O   0.013441100010652   0.004532489494675  -0.180139938803009 0
force O  -0.004881576194377  -0.012125535819913  -0.126592806670451 0
force O  -0.017189247151121  -0.005324094009061   0.065871401954201 1

# Energy components:
   Eewald =     5716.4821806849258792
       EH =     7526.3927063998416997
     Eloc =   -15403.6419331248471281
      Enl =     -525.9125835115371501
   Epulay =       -0.0004802615331704
      Exc =     -246.1642494192433333
       KE =      926.4960583872006055
        U =        1.0325537264576228
-------------------------------------
     Etot =    -2005.3157471187359988
       TS =        0.0009744649361401
-------------------------------------
        F =    -2005.3167215836722335

IonicMinimize: Iter:   9  F: -2005.316721583672233  |grad|_K:  5.629e-04  alpha:  8.728e-02  linmin: -8.544e-03  t[s]:  51514.38
IonicMinimize: Converged (|Delta F|<1.000000e-04 for 3 iters).

#--- Lowdin population analysis ---
# oxidation-state Ni +3.485 +3.233 +3.493
# magnetic-moments Ni -0.055 +0.659 -0.917
# oxidation-state V +1.147 +1.155 +0.964 +1.054 +1.049 +1.046
# magnetic-moments V -2.857 +2.818 -2.900 +2.631 -2.938 +2.903
# oxidation-state Co +1.208 +1.194 +1.202 +1.206 +1.216
# magnetic-moments Co -2.562 +2.630 +2.646 -2.651 +2.663
# oxidation-state Cr +2.892 +2.905
# magnetic-moments Cr +3.134 -3.855
# oxidation-state O -0.919 -0.811 -0.823 -0.817 -0.756 -0.850 -0.848 -0.821 -1.007 -0.940 -0.921 -0.952 -0.954 -0.987 -0.988 -0.954 -0.412
# magnetic-moments O +0.063 -0.072 +0.073 -0.185 -0.094 -0.043 -0.132 -0.165 -0.019 -0.013 +0.006 +0.007 +0.073 +0.108 +0.015 +0.036 -0.849


Dumping 'run.ionpos' ... done
Dumping 'run.lattice' ... done
Dumping 'run.Ecomponents' ... done
End date and time: Sat May 17 11:36:46 2025  (Duration: 0-14:18:37.53)
Done!
