
*************** JDFTx 1.7.0  ***************

Start date and time: Tue May 20 12:50:17 2025
Executable /data2/jt577/jdftx_eat_withLibXC/build/jdftx with command-line: -i /data2/jt577/May_2025/Relax_Mag_litU/rel9+1_6/OH/runs/calc_/run.in
Running on hosts (process indices):  node3301 (0-8)
Divided in process groups (process indices):  0 (0)  1 (1)  2 (2)  3 (3)  4 (4)  5 (5)  6 (6)  7 (7)  8 (8)
Resource initialization completed at t[s]:      0.00
Run totals: 9 processes, 63 threads, 0 GPUs


Input parsed successfully to the following command list (including defaults):

add-mix 
add-U 	Ni d 0.235196 \
	V d 0.113923 \
	Co d 0.121273
basis kpoint-dependent
coords-type Lattice
core-overlap-check vector
coulomb-interaction Periodic
davidson-band-ratio 1.1
dump End IonicPositions Lattice Ecomponents
dump-name run.$VAR
elec-cutoff 30
elec-eigen-algo Davidson
elec-ex-corr gga-x-rpbe gga-c-pbe
elec-smearing Fermi 0.001
electronic-minimize  \
	dirUpdateScheme      FletcherReeves \
	linminMethod         DirUpdateRecommended \
	nIterations          1000 \
	history              15 \
	knormThreshold       0 \
	energyDiffThreshold  1e-06 \
	nEnergyDiff          5 \
	alphaTstart          1 \
	alphaTmin            1e-10 \
	updateTestStepSize   yes \
	alphaTreduceFactor   0.1 \
	alphaTincreaseFactor 3 \
	nAlphaAdjustMax      3 \
	wolfeEnergy          0.0001 \
	wolfeGradient        0.9 \
	fdTest               no
exchange-regularization WignerSeitzTruncated
fluid None
fluid-ex-corr (null) lda-PZ
fluid-gummel-loop 10 1.000000e-05
fluid-minimize  \
	dirUpdateScheme      PolakRibiere \
	linminMethod         DirUpdateRecommended \
	nIterations          100 \
	history              15 \
	knormThreshold       0 \
	energyDiffThreshold  0 \
	nEnergyDiff          2 \
	alphaTstart          1 \
	alphaTmin            1e-10 \
	updateTestStepSize   yes \
	alphaTreduceFactor   0.1 \
	alphaTincreaseFactor 3 \
	nAlphaAdjustMax      3 \
	wolfeEnergy          0.0001 \
	wolfeGradient        0.9 \
	fdTest               no
fluid-solvent H2O 55.338 ScalarEOS \
	epsBulk 78.4 \
	pMol 0.92466 \
	epsInf 1.77 \
	Pvap 1.06736e-10 \
	sigmaBulk 4.62e-05 \
	Rvdw 2.61727 \
	Res 1.42 \
	tauNuc 343133 \
	poleEl 15 7 1
forces-output-coords Positions
initial-magnetic-moments  \
	Ni 1 1 -1 -1 -1 1 \
	V -1 1 -1 1 1 -1 -1 -1 1 \
	Co 1
initial-state run.$VAR
ion Ni  0.000000000000000   0.000000000000000   0.150000000000000 1
ion Ni  0.500000000000000   0.000000000000000  -0.050000000000000 0
ion Ni  0.000000000000000   0.500000000000000  -0.050000000000000 0
ion Ni  0.250000000000000   0.250000000000000  -0.150000000000000 0
ion Ni  0.250000000000000   0.750000000000000  -0.150000000000000 0
ion Ni -0.250000000000000   0.250000000000000  -0.150000000000000 0
ion V  0.500000000000000   0.000000000000000   0.150000000000000 1
ion V  0.000000000000000   0.500000000000000   0.150000000000000 1
ion V  0.500000000000000   0.500000000000000   0.150000000000000 1
ion V  0.250000000000000   0.250000000000000   0.050000000000000 1
ion V  0.250000000000000   0.750000000000000   0.050000000000000 1
ion V -0.250000000000000   0.250000000000000   0.050000000000000 1
ion V -0.250000000000000   0.750000000000000   0.050000000000000 1
ion V  0.000000000000000   0.000000000000000  -0.050000000000000 0
ion V  0.500000000000000   0.500000000000000  -0.050000000000000 0
ion Co -0.250000000000000   0.750000000000000  -0.150000000000000 0
ion O  0.250000000000000   0.250000000000000   0.150000000000000 1
ion O  0.250000000000000   0.750000000000000   0.150000000000000 1
ion O -0.250000000000000   0.250000000000000   0.150000000000000 1
ion O -0.250000000000000   0.750000000000000   0.150000000000000 1
ion O  0.000000000000000   0.000000000000000   0.050000000000000 1
ion O  0.500000000000000   0.000000000000000   0.050000000000000 1
ion O  0.000000000000000   0.500000000000000   0.050000000000000 1
ion O  0.500000000000000   0.500000000000000   0.050000000000000 1
ion O  0.250000000000000   0.250000000000000  -0.050000000000000 0
ion O  0.250000000000000   0.750000000000000  -0.050000000000000 0
ion O -0.250000000000000   0.250000000000000  -0.050000000000000 0
ion O -0.250000000000000   0.750000000000000  -0.050000000000000 0
ion O  0.000000000000000   0.000000000000000  -0.150000000000000 0
ion O  0.500000000000000   0.000000000000000  -0.150000000000000 0
ion O  0.000000000000000   0.500000000000000  -0.150000000000000 0
ion O  0.500000000000000   0.500000000000000  -0.150000000000000 0
ion O -0.008040138212305  -0.008269777577920   0.235000196603227 1
ion H  0.095742872057713   0.094897636790041   0.252810710255288 1
ion-species SG15/$ID_ONCV_PBE.upf
ion-width 0
ionic-minimize  \
	dirUpdateScheme      L-BFGS \
	linminMethod         DirUpdateRecommended \
	nIterations          1000 \
	history              15 \
	knormThreshold       0.0001 \
	energyDiffThreshold  0.0001 \
	nEnergyDiff          3 \
	alphaTstart          1 \
	alphaTmin            1e-10 \
	updateTestStepSize   yes \
	alphaTreduceFactor   0.1 \
	alphaTincreaseFactor 3 \
	nAlphaAdjustMax      3 \
	wolfeEnergy          0.0001 \
	wolfeGradient        0.9 \
	fdTest               no
kpoint   0.500000000000   0.500000000000   0.500000000000  1.00000000000000
kpoint-folding 3 3 1 
latt-move-scale 1 1 1
latt-scale 1 1 1 
lattice  \
	   8.140000000000001    8.140000000000001    0.000000000000000  \
	   8.140000000000001   -8.140000000000001    0.000000000000000  \
	   0.000000000000000    0.000000000000000   40.700000000000003 
lattice-minimize  \
	dirUpdateScheme      L-BFGS \
	linminMethod         DirUpdateRecommended \
	nIterations          0 \
	history              15 \
	knormThreshold       0 \
	energyDiffThreshold  1e-06 \
	nEnergyDiff          2 \
	alphaTstart          1 \
	alphaTmin            1e-10 \
	updateTestStepSize   yes \
	alphaTreduceFactor   0.1 \
	alphaTincreaseFactor 3 \
	nAlphaAdjustMax      3 \
	wolfeEnergy          0.0001 \
	wolfeGradient        0.9 \
	fdTest               no
lcao-params -1 1e-06 0.001
pcm-variant GLSSA13
spintype z-spin
subspace-rotation-factor 1 yes
symmetries none
symmetry-threshold 0.0001


Applied RMS atom displacement 0 bohrs to make symmetries exact.

---------- Initializing the Grid ----------
R = 
[         8.14         8.14            0  ]
[         8.14        -8.14            0  ]
[            0            0         40.7  ]
unit cell volume = 5393.53
G =
[   0.385945   0.385945         -0  ]
[   0.385945  -0.385945         -0  ]
[         -0         -0   0.154378  ]
Minimum fftbox size, Smin = [  60  60  204  ]
Chosen fftbox size, S = [  60  60  210  ]

---------- Exchange Correlation functional ----------
Initialized LibXC exchange functional 'Hammer, Hansen, and Norskov'
Initialized LibXC correlation functional 'Perdew, Burke & Ernzerhof'

---------- Setting up pseudopotentials ----------
Width of ionic core gaussian charges (only for fluid interactions / plotting) set to 0

Reading pseudopotential file '/data2/jt577/jdftx_eat_withLibXC/build/pseudopotentials/SG15/Ni_ONCV_PBE.upf':
  'Ni' pseudopotential, 'PBE' functional
  Generated using ONCVPSP code by D. R. Hamann
  Author: Martin Schlipf and Francois Gygi  Date: 150915.
  18 valence electrons, 4 orbitals, 6 projectors, 1292 radial grid points, with lMax = 2
  Transforming local potential to a uniform radial grid of dG=0.02 with 1419 points.
  Transforming nonlocal projectors to a uniform radial grid of dG=0.02 with 528 points.
    3S    l: 0   occupation:  2.0   eigenvalue: -4.081355
    3P    l: 1   occupation:  6.0   eigenvalue: -2.623460
    4S    l: 0   occupation:  2.0   eigenvalue: -0.207378
    3D    l: 2   occupation:  8.0   eigenvalue: -0.326118
  Transforming atomic orbitals to a uniform radial grid of dG=0.02 with 528 points.
  WARNING: large normalization error in atomic orbital 1s (integral: 0.000006).
  Core radius for overlap checks: 1.99 bohrs.
  Reading pulay file /data2/jt577/jdftx_eat_withLibXC/build/pseudopotentials/SG15/Ni_ONCV_PBE.pulay ... using dE_dnG = -7.250568e-04 computed for Ecut = 30.

Reading pseudopotential file '/data2/jt577/jdftx_eat_withLibXC/build/pseudopotentials/SG15/V_ONCV_PBE.upf':
  'V' pseudopotential, 'PBE' functional
  Generated using ONCVPSP code by D. R. Hamann
  Author: Martin Schlipf and Francois Gygi  Date: 150915.
  13 valence electrons, 4 orbitals, 6 projectors, 1536 radial grid points, with lMax = 2
  Transforming local potential to a uniform radial grid of dG=0.02 with 1419 points.
  Transforming nonlocal projectors to a uniform radial grid of dG=0.02 with 528 points.
    3S    l: 0   occupation:  2.0   eigenvalue: -2.581105
    3P    l: 1   occupation:  6.0   eigenvalue: -1.618486
    4S    l: 0   occupation:  2.0   eigenvalue: -0.172804
    3D    l: 2   occupation:  3.0   eigenvalue: -0.189795
  Transforming atomic orbitals to a uniform radial grid of dG=0.02 with 528 points.
  Core radius for overlap checks: 1.80 bohrs.
  Reading pulay file /data2/jt577/jdftx_eat_withLibXC/build/pseudopotentials/SG15/V_ONCV_PBE.pulay ... using dE_dnG = -1.698632e-04 computed for Ecut = 30.

Reading pseudopotential file '/data2/jt577/jdftx_eat_withLibXC/build/pseudopotentials/SG15/Co_ONCV_PBE.upf':
  'Co' pseudopotential, 'PBE' functional
  Generated using ONCVPSP code by D. R. Hamann
  Author: Martin Schlipf and Francois Gygi  Date: 150915.
  17 valence electrons, 4 orbitals, 6 projectors, 1388 radial grid points, with lMax = 2
  Transforming local potential to a uniform radial grid of dG=0.02 with 1419 points.
  Transforming nonlocal projectors to a uniform radial grid of dG=0.02 with 528 points.
    3S    l: 0   occupation:  2.0   eigenvalue: -3.763303
    3P    l: 1   occupation:  6.0   eigenvalue: -2.412101
    4S    l: 0   occupation:  2.0   eigenvalue: -0.201022
    3D    l: 2   occupation:  7.0   eigenvalue: -0.301498
  Transforming atomic orbitals to a uniform radial grid of dG=0.02 with 528 points.
  Core radius for overlap checks: 1.94 bohrs.
  Reading pulay file /data2/jt577/jdftx_eat_withLibXC/build/pseudopotentials/SG15/Co_ONCV_PBE.pulay ... using dE_dnG = -9.787391e-05 computed for Ecut = 30.

Reading pseudopotential file '/data2/jt577/jdftx_eat_withLibXC/build/pseudopotentials/SG15/O_ONCV_PBE.upf':
  'O' pseudopotential, 'PBE' functional
  Generated using ONCVPSP code by D. R. Hamann
  Author: Martin Schlipf and Francois Gygi  Date: 150915.
  6 valence electrons, 2 orbitals, 4 projectors, 936 radial grid points, with lMax = 1
  Transforming local potential to a uniform radial grid of dG=0.02 with 1419 points.
  Transforming nonlocal projectors to a uniform radial grid of dG=0.02 with 528 points.
    2S    l: 0   occupation:  2.0   eigenvalue: -0.880572
    2P    l: 1   occupation:  4.0   eigenvalue: -0.331869
  Transforming atomic orbitals to a uniform radial grid of dG=0.02 with 528 points.
  Core radius for overlap checks: 1.29 bohrs.
  Reading pulay file /data2/jt577/jdftx_eat_withLibXC/build/pseudopotentials/SG15/O_ONCV_PBE.pulay ... using dE_dnG = -8.209514e-03 computed for Ecut = 30.

Reading pseudopotential file '/data2/jt577/jdftx_eat_withLibXC/build/pseudopotentials/SG15/H_ONCV_PBE.upf':
  'H' pseudopotential, 'PBE' functional
  Generated using ONCVPSP code by D. R. Hamann
  Author: Martin Schlipf and Francois Gygi  Date: 150915.
  1 valence electrons, 1 orbitals, 2 projectors, 1166 radial grid points, with lMax = 0
  Transforming local potential to a uniform radial grid of dG=0.02 with 1419 points.
  Transforming nonlocal projectors to a uniform radial grid of dG=0.02 with 528 points.
    1S    l: 0   occupation:  1.0   eigenvalue: -0.238602
  Transforming atomic orbitals to a uniform radial grid of dG=0.02 with 528 points.
  Core radius for overlap checks: 1.01 bohrs.
  Reading pulay file /data2/jt577/jdftx_eat_withLibXC/build/pseudopotentials/SG15/H_ONCV_PBE.pulay ... using dE_dnG = -8.245991e-05 computed for Ecut = 30.

Initialized 5 species with 34 total atoms.

Folded 1 k-points by 3x3x1 to 9 k-points.

---------- Setting up k-points, bands, fillings ----------
No reducable k-points. 
Computing the number of bands and number of electrons
Calculating initial fillings.
nElectrons: 345.000000   nBands: 229   nStates: 18

----- Setting up reduced wavefunction bases (one per k-point) -----
average nbasis = 42312.000 , ideal nbasis = 42330.081

---------- Setting up ewald sum ----------
Optimum gaussian width for ewald sums = 3.887061 bohr.
Real space sum over 605 unit cells with max indices [  5  5  2  ]
Reciprocal space sum over 5915 terms with max indices [  6  6  17  ]

---------- Allocating electronic variables ----------
Initializing wave functions:  linear combination of atomic orbitals
Ni (M=1) pseudo-atom majority spin occupations:   s ( 1 0.5 )  p ( 3 )  d ( 5 )
Ni (M=1) pseudo-atom minority spin occupations:   s ( 1 0 )  p ( 3 )  d ( 4.5 )
V (M=1) pseudo-atom majority spin occupations:   s ( 1 0 )  p ( 3 )  d ( 3 )
V (M=1) pseudo-atom minority spin occupations:   s ( 1 0 )  p ( 3 )  d ( 2 )
Co (M=1) pseudo-atom majority spin occupations:   s ( 1 0 )  p ( 3 )  d ( 5 )
Co (M=1) pseudo-atom minority spin occupations:   s ( 1 0 )  p ( 3 )  d ( 4 )
O pseudo-atom occupations:   s ( 2 )  p ( 4 )
H pseudo-atom occupations:   s ( 1 )
	FillingsUpdate:  mu: -0.496774970  nElectrons: 345.000000  magneticMoment: [ Abs: 1.11028  Tot: +0.00000 ]
LCAOMinimize: Iter:   0  F: -1847.0691079616806292  |grad|_K:  1.015e-02  alpha:  1.000e+00
LCAOMinimize: 	Step increased F by 5.213646e+00, reducing alpha to 1.088828e-02.
	FillingsUpdate:  mu: -0.439486455  nElectrons: 345.000000  magneticMoment: [ Abs: 1.21863  Tot: +0.00000 ]
LCAOMinimize: Iter:   1  F: -1848.2220848747097079  |grad|_K:  1.072e-02  alpha:  1.089e-02  linmin: -4.437e-02  cgtest:  9.038e-01  t[s]:     76.75
LCAOMinimize: 	Predicted alpha/alphaT>3.000000, increasing alphaT to 3.266485e-02.
LCAOMinimize: 	Wrong curvature in test step, increasing alphaT to 9.799455e-02.
	FillingsUpdate:  mu: -0.302746473  nElectrons: 345.000000  magneticMoment: [ Abs: 1.81909  Tot: -0.00000 ]
LCAOMinimize: Iter:   2  F: -1852.4949947311170035  |grad|_K:  1.377e-02  alpha: -7.047e-01  linmin: -6.084e-02  cgtest:  6.549e-01  t[s]:    102.42
LCAOMinimize: 	Step increased F by 7.073890e+01, reducing alpha to 1.576836e-02.
	FillingsUpdate:  mu: +0.417246160  nElectrons: 345.000000  magneticMoment: [ Abs: 2.77240  Tot: -0.00000 ]
LCAOMinimize: Iter:   3  F: -1854.0286439276590045  |grad|_K:  3.582e-02  alpha:  1.577e-02  linmin:  5.151e-02  cgtest:  6.299e-02  t[s]:    139.29
LCAOMinimize: 	Bad step direction: g.d > 0.
LCAOMinimize: 	Undoing step.
LCAOMinimize: 	Step failed: resetting search direction.
	FillingsUpdate:  mu: +0.417246160  nElectrons: 345.000000  magneticMoment: [ Abs: 2.77240  Tot: -0.00000 ]
LCAOMinimize: Iter:   4  F: -1854.0286439276590045  |grad|_K:  3.582e-02  alpha:  0.000e+00
	FillingsUpdate:  mu: -0.270408883  nElectrons: 345.000000  magneticMoment: [ Abs: 5.14834  Tot: -0.00000 ]
LCAOMinimize: Iter:   5  F: -1861.0298127501655472  |grad|_K:  1.277e-02  alpha:  1.104e-02  linmin: -8.524e-03  cgtest:  2.048e-02  t[s]:    175.55
LCAOMinimize: 	Predicted alpha/alphaT>3.000000, increasing alphaT to 3.312012e-02.
	FillingsUpdate:  mu: -0.106626161  nElectrons: 345.000000  magneticMoment: [ Abs: 6.00055  Tot: +0.00000 ]
LCAOMinimize: Iter:   6  F: -1866.4273043888579195  |grad|_K:  2.755e-02  alpha:  6.116e-02  linmin: -3.269e-03  cgtest:  5.314e-01  t[s]:    202.54
	FillingsUpdate:  mu: -0.170614815  nElectrons: 345.000000  magneticMoment: [ Abs: 7.45416  Tot: +0.00000 ]
LCAOMinimize: Iter:   7  F: -1869.6250404748664096  |grad|_K:  1.931e-02  alpha:  4.257e-03  linmin: -2.152e-02  cgtest:  1.118e+00  t[s]:    223.57
LCAOMinimize: Encountered beta<0, resetting CG.
	FillingsUpdate:  mu: -0.216017393  nElectrons: 345.000000  magneticMoment: [ Abs: 8.03316  Tot: +0.00000 ]
LCAOMinimize: Iter:   8  F: -1870.7056924899843580  |grad|_K:  1.054e-02  alpha:  5.515e-03  linmin: -6.495e-02  cgtest:  1.479e+00  t[s]:    245.16
LCAOMinimize: Encountered beta<0, resetting CG.
LCAOMinimize: 	Wrong curvature in test step, increasing alphaT to 1.654389e-02.
	FillingsUpdate:  mu: -0.202247957  nElectrons: 345.000000  magneticMoment: [ Abs: 8.28968  Tot: +0.00000 ]
LCAOMinimize: Iter:   9  F: -1871.3344257669014041  |grad|_K:  1.131e-02  alpha: -3.546e-02  linmin: -7.568e-02  cgtest:  8.742e-01  t[s]:    266.16
LCAOMinimize: 	Step increased F by 1.410404e+01, reducing alpha to 1.635980e-02.
	FillingsUpdate:  mu: -0.272035847  nElectrons: 345.000000  magneticMoment: [ Abs: 8.88056  Tot: -0.00000 ]
LCAOMinimize: Iter:  10  F: -1873.3691659852117937  |grad|_K:  8.409e-03  alpha:  1.636e-02  linmin: -5.940e-02  cgtest:  8.223e-01  t[s]:    302.50
LCAOMinimize: Encountered beta<0, resetting CG.
LCAOMinimize: 	Predicted alpha/alphaT>3.000000, increasing alphaT to 4.907940e-02.
LCAOMinimize: 	Wrong curvature in test step, increasing alphaT to 1.472382e-01.
	FillingsUpdate:  mu: -0.154366159  nElectrons: 345.000000  magneticMoment: [ Abs: 9.81676  Tot: +0.00000 ]
LCAOMinimize: Iter:  11  F: -1876.6759157155770481  |grad|_K:  8.048e-03  alpha: -4.196e+01  linmin: -1.078e-01  cgtest:  7.251e-01  t[s]:    328.04
LCAOMinimize: 	Step increased F by 1.541094e+01, reducing alpha to 9.713415e-03.
	FillingsUpdate:  mu: -0.125783586  nElectrons: 345.000000  magneticMoment: [ Abs: 9.92239  Tot: -0.00000 ]
LCAOMinimize: Iter:  12  F: -1877.5743867970661540  |grad|_K:  9.200e-03  alpha:  9.713e-03  linmin: -8.088e-02  cgtest:  8.066e-01  t[s]:    364.42
LCAOMinimize: 	Wrong curvature in test step, increasing alphaT to 2.914025e-02.
	FillingsUpdate:  mu: -0.097044126  nElectrons: 345.000000  magneticMoment: [ Abs: 10.22081  Tot: -0.00000 ]
LCAOMinimize: Iter:  13  F: -1878.8155344302219873  |grad|_K:  8.604e-03  alpha: -1.823e-01  linmin: -9.300e-02  cgtest:  8.955e-01  t[s]:    384.35
LCAOMinimize: 	Step increased F by 8.716711e+00, reducing alpha to 1.403597e-02.
	FillingsUpdate:  mu: -0.052908971  nElectrons: 345.000000  magneticMoment: [ Abs: 10.47650  Tot: +0.00000 ]
LCAOMinimize: Iter:  14  F: -1879.9071992924307324  |grad|_K:  7.835e-03  alpha:  1.404e-02  linmin: -1.007e-01  cgtest:  8.657e-01  t[s]:    421.93
LCAOMinimize: 	Predicted alpha/alphaT>3.000000, increasing alphaT to 4.210791e-02.
	FillingsUpdate:  mu: +0.091871643  nElectrons: 345.000000  magneticMoment: [ Abs: 9.65583  Tot: +0.00000 ]
LCAOMinimize: Iter:  15  F: -1881.8536422803995265  |grad|_K:  8.660e-03  alpha:  7.175e-02  linmin:  1.615e-02  cgtest: -2.270e-01  t[s]:    449.36
	FillingsUpdate:  mu: +0.112406630  nElectrons: 345.000000  magneticMoment: [ Abs: 9.84479  Tot: +0.00000 ]
LCAOMinimize: Iter:  16  F: -1882.1783648059888492  |grad|_K:  8.752e-03  alpha:  6.270e-03  linmin: -3.045e-02  cgtest:  9.774e-01  t[s]:    470.96
LCAOMinimize: 	Predicted alpha/alphaT>3.000000, increasing alphaT to 1.881034e-02.
	FillingsUpdate:  mu: -0.009793384  nElectrons: 345.000000  magneticMoment: [ Abs: 11.84681  Tot: -0.00000 ]
LCAOMinimize: Iter:  17  F: -1883.4256812925830218  |grad|_K:  8.366e-03  alpha:  4.673e-02  linmin:  2.510e-02  cgtest: -4.903e-01  t[s]:    497.87
	FillingsUpdate:  mu: +0.015756329  nElectrons: 345.000000  magneticMoment: [ Abs: 13.47028  Tot: +0.00000 ]
LCAOMinimize: Iter:  18  F: -1883.7347851142510535  |grad|_K:  6.601e-03  alpha:  1.598e-02  linmin: -7.311e-03  cgtest:  6.697e-01  t[s]:    518.65
	FillingsUpdate:  mu: +0.258609895  nElectrons: 345.000000  magneticMoment: [ Abs: 14.19659  Tot: -0.00000 ]
LCAOMinimize: Iter:  19  F: -1884.3285729576600716  |grad|_K:  1.019e-02  alpha:  4.538e-02  linmin:  2.689e-02  cgtest: -3.404e-01  t[s]:    539.68
	FillingsUpdate:  mu: +0.275565570  nElectrons: 345.000000  magneticMoment: [ Abs: 14.10936  Tot: -0.00000 ]
LCAOMinimize: Iter:  20  F: -1884.3308720860002268  |grad|_K:  9.937e-03  alpha:  2.673e-03  linmin:  6.033e-03  cgtest:  9.533e-01  t[s]:    560.67
LCAOMinimize: 	Predicted alpha/alphaT>3.000000, increasing alphaT to 8.018847e-03.
	FillingsUpdate:  mu: +0.096404331  nElectrons: 345.000000  magneticMoment: [ Abs: 13.33013  Tot: +0.00000 ]
LCAOMinimize: Iter:  21  F: -1884.7984542337569565  |grad|_K:  4.767e-03  alpha:  9.813e-03  linmin: -1.737e-02  cgtest:  9.843e-02  t[s]:    587.47
	FillingsUpdate:  mu: +0.013593626  nElectrons: 345.000000  magneticMoment: [ Abs: 13.46334  Tot: -0.00000 ]
LCAOMinimize: Iter:  22  F: -1885.0041196577187748  |grad|_K:  2.515e-03  alpha:  1.800e-02  linmin: -1.532e-02  cgtest: -1.021e-02  t[s]:    608.49
	FillingsUpdate:  mu: +0.077849656  nElectrons: 345.000000  magneticMoment: [ Abs: 14.80079  Tot: -0.00000 ]
LCAOMinimize: Iter:  23  F: -1885.1447831855052755  |grad|_K:  3.056e-03  alpha:  4.353e-02  linmin:  3.322e-04  cgtest:  6.606e-03  t[s]:    629.61
	FillingsUpdate:  mu: +0.085182035  nElectrons: 345.000000  magneticMoment: [ Abs: 15.44749  Tot: -0.00000 ]
LCAOMinimize: Iter:  24  F: -1885.2708910565006590  |grad|_K:  3.914e-03  alpha:  2.551e-02  linmin: -4.242e-04  cgtest:  2.171e-01  t[s]:    650.72
	FillingsUpdate:  mu: +0.045932961  nElectrons: 345.000000  magneticMoment: [ Abs: 16.33866  Tot: -0.00000 ]
LCAOMinimize: Iter:  25  F: -1885.4678793261946339  |grad|_K:  1.110e-03  alpha:  2.651e-02  linmin:  3.212e-03  cgtest:  4.190e-01  t[s]:    671.89
LCAOMinimize: Encountered beta<0, resetting CG.
	FillingsUpdate:  mu: +0.045112146  nElectrons: 345.000000  magneticMoment: [ Abs: 16.76612  Tot: +0.00000 ]
LCAOMinimize: Iter:  26  F: -1885.4878233581462155  |grad|_K:  1.449e-03  alpha:  3.388e-02  linmin: -3.335e-04  cgtest:  4.057e-02  t[s]:    693.19
	FillingsUpdate:  mu: +0.045169765  nElectrons: 345.000000  magneticMoment: [ Abs: 17.29841  Tot: +0.00000 ]
LCAOMinimize: Iter:  27  F: -1885.5125892621736057  |grad|_K:  1.009e-03  alpha:  2.555e-02  linmin: -6.912e-04  cgtest: -1.042e-01  t[s]:    714.43
LCAOMinimize: 	Predicted alpha/alphaT>3.000000, increasing alphaT to 7.665962e-02.
	FillingsUpdate:  mu: +0.052339764  nElectrons: 345.000000  magneticMoment: [ Abs: 18.94813  Tot: -0.00000 ]
LCAOMinimize: Iter:  28  F: -1885.5650157107243103  |grad|_K:  1.423e-03  alpha:  1.035e-01  linmin: -5.640e-04  cgtest: -6.261e-03  t[s]:    741.70
	FillingsUpdate:  mu: +0.073759425  nElectrons: 345.000000  magneticMoment: [ Abs: 19.74385  Tot: -0.00000 ]
LCAOMinimize: Iter:  29  F: -1885.5842397489768700  |grad|_K:  1.325e-03  alpha:  3.333e-02  linmin:  2.597e-03  cgtest: -5.800e-01  t[s]:    762.88
	FillingsUpdate:  mu: +0.065537341  nElectrons: 345.000000  magneticMoment: [ Abs: 20.86607  Tot: -0.00000 ]
LCAOMinimize: Iter:  30  F: -1885.6011564783548238  |grad|_K:  1.047e-03  alpha:  3.370e-02  linmin: -3.931e-04  cgtest:  8.811e-01  t[s]:    784.38
LCAOMinimize: Encountered beta<0, resetting CG.
LCAOMinimize: None of the convergence criteria satisfied after 30 iterations.


---- Citations for features of the code used in this run ----

   Software package:
      R. Sundararaman, K. Letchworth-Weaver, K.A. Schwarz, D. Gunceler, Y. Ozhabes and T.A. Arias, 'JDFTx: software for joint density-functional theory', SoftwareX 6, 278 (2017)

   Simplified rotationally-invariant DFT+U:
      S. L. Dudarev et al., Phys. Rev. B 57, 1505 (1998)

   LibXC library of exchange-correlation functions:
      M. A. L. Marques, M. J. T. Oliveira and T. Burnus, Comput. Phys. Commun. 183, 2272 (2012)

   Hammer, Hansen, and Norskov exchange functional:
      B. Hammer, L. B. Hansen, and J. K. Nørskov, Phys. Rev. B 59, 7413 (1999)

   Perdew, Burke & Ernzerhof correlation functional:
      J. P. Perdew, K. Burke, and M. Ernzerhof, Phys. Rev. Lett. 77, 3865 (1996)

   Pseudopotentials:
      M Schlipf and F Gygi, Comput. Phys. Commun. 196, 36 (2015)

   Total energy minimization with Auxiliary Hamiltonian:
      C. Freysoldt, S. Boeck, and J. Neugebauer, Phys. Rev. B 79, 241103(R) (2009)

This list may not be complete. Please suggest additional citations or
report any other bugs at https://github.com/shankar1729/jdftx/issues

Initialization completed successfully at t[s]:    792.08


-------- Electronic minimization -----------
	FillingsUpdate:  mu: +0.065537344  nElectrons: 345.000000  magneticMoment: [ Abs: 20.86607  Tot: -0.00000 ]
ElecMinimize: Iter:   0  F: -1885.601156478360963  |grad|_K:  1.031e-03  alpha:  1.000e+00
	FillingsUpdate:  mu: +0.519401275  nElectrons: 345.000000  magneticMoment: [ Abs: 23.19975  Tot: -0.00000 ]
	SubspaceRotationAdjust: set factor to 0.984
ElecMinimize: Iter:   1  F: -1934.446259682210666  |grad|_K:  1.523e-03  alpha:  4.731e-01  linmin:  8.863e-03  t[s]:    862.83
ElecMinimize: 	Step increased F by 3.244342e+01, reducing alpha to 9.019938e-03.
	FillingsUpdate:  mu: +0.336930535  nElectrons: 345.000000  magneticMoment: [ Abs: 22.15567  Tot: -0.00000 ]
	SubspaceRotationAdjust: set factor to 1.5
ElecMinimize: Iter:   2  F: -1937.917485923251434  |grad|_K:  8.393e-04  alpha:  9.020e-03  linmin: -2.611e-03  t[s]:    941.21
	FillingsUpdate:  mu: +0.424672754  nElectrons: 345.000000  magneticMoment: [ Abs: 21.91368  Tot: +0.00000 ]
	SubspaceRotationAdjust: set factor to 1.31
ElecMinimize: Iter:   3  F: -1941.707106429620808  |grad|_K:  9.697e-04  alpha:  2.251e-02  linmin: -1.465e-03  t[s]:    988.87
ElecMinimize: 	Predicted alpha/alphaT>3.000000, increasing alphaT to 6.752308e-02.
	FillingsUpdate:  mu: +0.395138124  nElectrons: 345.000000  magneticMoment: [ Abs: 23.02347  Tot: -0.00000 ]
	SubspaceRotationAdjust: set factor to 0.969
ElecMinimize: Iter:   4  F: -1960.533347219535017  |grad|_K:  7.061e-04  alpha:  8.598e-02  linmin: -3.242e-04  t[s]:   1049.69
	FillingsUpdate:  mu: +0.394435358  nElectrons: 345.000000  magneticMoment: [ Abs: 23.74393  Tot: -0.00000 ]
	SubspaceRotationAdjust: set factor to 1.36
ElecMinimize: Iter:   5  F: -1962.624907944410552  |grad|_K:  4.448e-04  alpha:  1.824e-02  linmin: -1.191e-03  t[s]:   1097.17
	FillingsUpdate:  mu: +0.499364827  nElectrons: 345.000000  magneticMoment: [ Abs: 24.92639  Tot: +0.00000 ]
	SubspaceRotationAdjust: set factor to 0.855
ElecMinimize: Iter:   6  F: -1964.308918017304677  |grad|_K:  6.998e-04  alpha:  2.737e-02  linmin: -1.759e-03  t[s]:   1144.39
	FillingsUpdate:  mu: +0.381562860  nElectrons: 345.000000  magneticMoment: [ Abs: 26.19457  Tot: +0.00000 ]
	SubspaceRotationAdjust: set factor to 0.616
ElecMinimize: Iter:   7  F: -1966.208026716986524  |grad|_K:  5.081e-04  alpha:  6.806e-03  linmin: -2.292e-03  t[s]:   1192.16
	FillingsUpdate:  mu: +0.347535124  nElectrons: 345.000000  magneticMoment: [ Abs: 26.81153  Tot: -0.00000 ]
	SubspaceRotationAdjust: set factor to 0.494
ElecMinimize: Iter:   8  F: -1966.931945989015048  |grad|_K:  4.235e-04  alpha:  7.250e-03  linmin:  5.897e-05  t[s]:   1239.49
	FillingsUpdate:  mu: +0.394707582  nElectrons: 345.000000  magneticMoment: [ Abs: 26.75918  Tot: +0.00000 ]
	SubspaceRotationAdjust: set factor to 0.352
ElecMinimize: Iter:   9  F: -1967.231754025754981  |grad|_K:  4.328e-04  alpha:  9.846e-03  linmin: -8.890e-06  t[s]:   1287.21
	FillingsUpdate:  mu: +0.362477315  nElectrons: 345.000000  magneticMoment: [ Abs: 26.58081  Tot: -0.00000 ]
	SubspaceRotationAdjust: set factor to 0.244
ElecMinimize: Iter:  10  F: -1967.506942744272692  |grad|_K:  4.038e-04  alpha:  8.514e-03  linmin: -1.127e-04  t[s]:   1335.04
	FillingsUpdate:  mu: +0.319123204  nElectrons: 345.000000  magneticMoment: [ Abs: 26.63807  Tot: +0.00000 ]
	SubspaceRotationAdjust: set factor to 0.164
ElecMinimize: Iter:  11  F: -1967.779477604716476  |grad|_K:  3.788e-04  alpha:  9.235e-03  linmin:  3.952e-04  t[s]:   1383.45
	FillingsUpdate:  mu: +0.289421123  nElectrons: 345.000000  magneticMoment: [ Abs: 26.72135  Tot: +0.00000 ]
	SubspaceRotationAdjust: set factor to 0.114
	SubspaceRotationAdjust: resetting CG because factor has changed by 0.114468
ElecMinimize: 	State modified externally: resetting search direction.
ElecMinimize: Iter:  12  F: -1967.894261176955297  |grad|_K:  2.977e-04  alpha:  5.746e-03
ElecMinimize: 	Predicted alpha/alphaT>3.000000, increasing alphaT to 1.723704e-02.
ElecMinimize: 	Predicted alpha/alphaT>3.000000, increasing alphaT to 5.171111e-02.
	FillingsUpdate:  mu: +0.173506353  nElectrons: 345.000000  magneticMoment: [ Abs: 27.24941  Tot: +0.00000 ]
	SubspaceRotationAdjust: set factor to 0.148
ElecMinimize: Iter:  13  F: -1969.685449439403328  |grad|_K:  1.237e-04  alpha:  9.996e-02  linmin: -2.606e-02  t[s]:   1530.12
	FillingsUpdate:  mu: +0.182109698  nElectrons: 345.000000  magneticMoment: [ Abs: 27.22802  Tot: -0.00000 ]
	SubspaceRotationAdjust: set factor to 0.14
ElecMinimize: Iter:  14  F: -1970.415374072585337  |grad|_K:  8.571e-05  alpha:  2.024e-01  linmin: -2.021e-03  t[s]:   1578.13
	FillingsUpdate:  mu: +0.141231363  nElectrons: 345.000000  magneticMoment: [ Abs: 26.46278  Tot: -0.00000 ]
	SubspaceRotationAdjust: set factor to 0.139
ElecMinimize: Iter:  15  F: -1970.695896792138456  |grad|_K:  7.161e-05  alpha:  1.998e-01  linmin:  1.234e-04  t[s]:   1626.05
	FillingsUpdate:  mu: +0.153101485  nElectrons: 345.000000  magneticMoment: [ Abs: 26.21489  Tot: -0.00000 ]
	SubspaceRotationAdjust: set factor to 0.134
ElecMinimize: Iter:  16  F: -1970.893285132446408  |grad|_K:  6.799e-05  alpha:  2.251e-01  linmin:  1.661e-04  t[s]:   1673.85
	FillingsUpdate:  mu: +0.124487838  nElectrons: 345.000000  magneticMoment: [ Abs: 26.37085  Tot: +0.00000 ]
	SubspaceRotationAdjust: set factor to 0.159
ElecMinimize: Iter:  17  F: -1971.022420242102726  |grad|_K:  5.371e-05  alpha:  1.658e-01  linmin: -4.466e-06  t[s]:   1721.05
	FillingsUpdate:  mu: +0.151107228  nElectrons: 345.000000  magneticMoment: [ Abs: 26.66694  Tot: -0.00000 ]
	SubspaceRotationAdjust: set factor to 0.167
ElecMinimize: Iter:  18  F: -1971.125826027584026  |grad|_K:  5.678e-05  alpha:  2.051e-01  linmin: -3.376e-05  t[s]:   1768.29
	FillingsUpdate:  mu: +0.126170684  nElectrons: 345.000000  magneticMoment: [ Abs: 26.77472  Tot: +0.00000 ]
	SubspaceRotationAdjust: set factor to 0.209
ElecMinimize: Iter:  19  F: -1971.218632039980093  |grad|_K:  4.576e-05  alpha:  1.610e-01  linmin: -1.539e-05  t[s]:   1815.70
	FillingsUpdate:  mu: +0.148525211  nElectrons: 345.000000  magneticMoment: [ Abs: 26.75741  Tot: -0.00000 ]
	SubspaceRotationAdjust: set factor to 0.202
ElecMinimize: Iter:  20  F: -1971.284102032277133  |grad|_K:  5.268e-05  alpha:  1.780e-01  linmin:  2.693e-05  t[s]:   1863.46
	FillingsUpdate:  mu: +0.103921667  nElectrons: 345.000000  magneticMoment: [ Abs: 26.98325  Tot: -0.00000 ]
	SubspaceRotationAdjust: set factor to 0.227
ElecMinimize: Iter:  21  F: -1971.342152061809657  |grad|_K:  4.395e-05  alpha:  1.237e-01  linmin: -2.955e-05  t[s]:   1910.86
	FillingsUpdate:  mu: +0.125658749  nElectrons: 345.000000  magneticMoment: [ Abs: 27.48538  Tot: +0.00000 ]
	SubspaceRotationAdjust: set factor to 0.19
ElecMinimize: Iter:  22  F: -1971.402273934237201  |grad|_K:  5.931e-05  alpha:  1.773e-01  linmin:  1.187e-05  t[s]:   1958.45
	FillingsUpdate:  mu: +0.115752645  nElectrons: 345.000000  magneticMoment: [ Abs: 27.79591  Tot: -0.00000 ]
	SubspaceRotationAdjust: set factor to 0.195
ElecMinimize: Iter:  23  F: -1971.464874298046425  |grad|_K:  4.902e-05  alpha:  9.855e-02  linmin:  1.312e-05  t[s]:   2006.86
	FillingsUpdate:  mu: +0.148680824  nElectrons: 345.000000  magneticMoment: [ Abs: 28.02201  Tot: +0.00000 ]
	SubspaceRotationAdjust: set factor to 0.193
ElecMinimize: Iter:  24  F: -1971.533156380821993  |grad|_K:  6.385e-05  alpha:  1.988e-01  linmin:  1.096e-04  t[s]:   2054.76
ElecMinimize: 	Step increased F by 6.490594e-03, reducing alpha to 2.501292e-04.
ElecMinimize: 	Step increased F by 9.271643e-03, reducing alpha to 2.501292e-05.
ElecMinimize: 	Step increased F by 9.554285e-03, reducing alpha to 2.501292e-06.
ElecMinimize: 	Step failed to reduce F after 3 attempts. Quitting step.
ElecMinimize: 	Undoing step.
ElecMinimize: 	Step failed: resetting search direction.
	FillingsUpdate:  mu: +0.148350335  nElectrons: 345.000000  magneticMoment: [ Abs: 28.01997  Tot: +0.00000 ]
	SubspaceRotationAdjust: set factor to 0.192
ElecMinimize: Iter:  25  F: -1971.523598951128179  |grad|_K:  6.359e-05  alpha:  2.501e-06
	FillingsUpdate:  mu: +0.131956487  nElectrons: 345.000000  magneticMoment: [ Abs: 28.05190  Tot: -0.00000 ]
	SubspaceRotationAdjust: set factor to 0.128
ElecMinimize: Iter:  26  F: -1971.601569111087201  |grad|_K:  5.957e-05  alpha:  1.252e-01  linmin:  1.347e-03  t[s]:   2243.88
	FillingsUpdate:  mu: +0.112724707  nElectrons: 345.000000  magneticMoment: [ Abs: 27.95727  Tot: -0.00000 ]
	SubspaceRotationAdjust: set factor to 0.0895
ElecMinimize: Iter:  27  F: -1971.662473916721865  |grad|_K:  2.593e-05  alpha:  1.032e-01  linmin: -9.614e-04  t[s]:   2291.92
ElecMinimize: 	Predicted alpha/alphaT>3.000000, increasing alphaT to 3.095428e-01.
	FillingsUpdate:  mu: +0.111838407  nElectrons: 345.000000  magneticMoment: [ Abs: 28.05069  Tot: +0.00000 ]
	SubspaceRotationAdjust: set factor to 0.107
ElecMinimize: Iter:  28  F: -1971.711190403237651  |grad|_K:  1.674e-05  alpha:  4.041e-01  linmin: -1.777e-05  t[s]:   2353.59
	FillingsUpdate:  mu: +0.113257964  nElectrons: 345.000000  magneticMoment: [ Abs: 28.13275  Tot: -0.00000 ]
	SubspaceRotationAdjust: set factor to 0.0839
ElecMinimize: Iter:  29  F: -1971.727477070148097  |grad|_K:  1.867e-05  alpha:  3.284e-01  linmin:  1.028e-04  t[s]:   2401.77
	FillingsUpdate:  mu: +0.105868633  nElectrons: 345.000000  magneticMoment: [ Abs: 28.19915  Tot: -0.00000 ]
	SubspaceRotationAdjust: set factor to 0.0705
ElecMinimize: Iter:  30  F: -1971.742378706316003  |grad|_K:  1.404e-05  alpha:  2.507e-01  linmin: -1.367e-04  t[s]:   2449.84
	FillingsUpdate:  mu: +0.102560512  nElectrons: 345.000000  magneticMoment: [ Abs: 28.34222  Tot: +0.00000 ]
	SubspaceRotationAdjust: set factor to 0.0922
ElecMinimize: Iter:  31  F: -1971.754321058389223  |grad|_K:  1.071e-05  alpha:  3.415e-01  linmin: -4.255e-06  t[s]:   2497.23
	FillingsUpdate:  mu: +0.100918707  nElectrons: 345.000000  magneticMoment: [ Abs: 28.49236  Tot: -0.00000 ]
	SubspaceRotationAdjust: set factor to 0.1
ElecMinimize: Iter:  32  F: -1971.762134337053567  |grad|_K:  9.523e-06  alpha:  3.874e-01  linmin: -1.985e-04  t[s]:   2545.76
	FillingsUpdate:  mu: +0.104830488  nElectrons: 345.000000  magneticMoment: [ Abs: 28.60811  Tot: -0.00000 ]
	SubspaceRotationAdjust: set factor to 0.0993
ElecMinimize: Iter:  33  F: -1971.767509495083686  |grad|_K:  8.673e-06  alpha:  3.321e-01  linmin: -1.437e-04  t[s]:   2593.58
	FillingsUpdate:  mu: +0.103960455  nElectrons: 345.000000  magneticMoment: [ Abs: 28.81437  Tot: -0.00000 ]
	SubspaceRotationAdjust: set factor to 0.0985
ElecMinimize: Iter:  34  F: -1971.774196883598734  |grad|_K:  1.014e-05  alpha:  4.950e-01  linmin: -2.202e-05  t[s]:   2641.08
	FillingsUpdate:  mu: +0.103829484  nElectrons: 345.000000  magneticMoment: [ Abs: 29.09514  Tot: -0.00000 ]
	SubspaceRotationAdjust: set factor to 0.115
ElecMinimize: Iter:  35  F: -1971.783227324478275  |grad|_K:  1.107e-05  alpha:  4.983e-01  linmin: -4.371e-05  t[s]:   2688.29
	FillingsUpdate:  mu: +0.104162690  nElectrons: 345.000000  magneticMoment: [ Abs: 29.39021  Tot: -0.00000 ]
	SubspaceRotationAdjust: set factor to 0.119
ElecMinimize: Iter:  36  F: -1971.792789158411097  |grad|_K:  1.037e-05  alpha:  4.344e-01  linmin:  2.476e-05  t[s]:   2736.36
	FillingsUpdate:  mu: +0.101270921  nElectrons: 345.000000  magneticMoment: [ Abs: 29.57581  Tot: +0.00000 ]
	SubspaceRotationAdjust: set factor to 0.131
ElecMinimize: Iter:  37  F: -1971.797998173689166  |grad|_K:  6.953e-06  alpha:  2.582e-01  linmin: -1.339e-04  t[s]:   2784.25
	FillingsUpdate:  mu: +0.101823040  nElectrons: 345.000000  magneticMoment: [ Abs: 29.67432  Tot: +0.00000 ]
	SubspaceRotationAdjust: set factor to 0.164
ElecMinimize: Iter:  38  F: -1971.800269934090238  |grad|_K:  5.619e-06  alpha:  2.585e-01  linmin:  1.017e-04  t[s]:   2832.00
	FillingsUpdate:  mu: +0.102555988  nElectrons: 345.000000  magneticMoment: [ Abs: 29.74873  Tot: +0.00000 ]
	SubspaceRotationAdjust: set factor to 0.2
ElecMinimize: Iter:  39  F: -1971.801537404424835  |grad|_K:  4.722e-06  alpha:  2.348e-01  linmin:  2.068e-05  t[s]:   2880.63
	FillingsUpdate:  mu: +0.103028840  nElectrons: 345.000000  magneticMoment: [ Abs: 29.84006  Tot: +0.00000 ]
	SubspaceRotationAdjust: set factor to 0.2
ElecMinimize: Iter:  40  F: -1971.802511684154524  |grad|_K:  4.805e-06  alpha:  2.509e-01  linmin:  3.498e-05  t[s]:   2928.61
	FillingsUpdate:  mu: +0.102995009  nElectrons: 345.000000  magneticMoment: [ Abs: 29.98987  Tot: -0.00000 ]
	SubspaceRotationAdjust: set factor to 0.201
ElecMinimize: Iter:  41  F: -1971.803562508379173  |grad|_K:  5.305e-06  alpha:  2.619e-01  linmin:  8.897e-05  t[s]:   2976.25
	FillingsUpdate:  mu: +0.102531515  nElectrons: 345.000000  magneticMoment: [ Abs: 30.19880  Tot: +0.00000 ]
	SubspaceRotationAdjust: set factor to 0.214
ElecMinimize: Iter:  42  F: -1971.804718260466871  |grad|_K:  5.799e-06  alpha:  2.375e-01  linmin:  1.409e-05  t[s]:   3024.15
	FillingsUpdate:  mu: +0.102261175  nElectrons: 345.000000  magneticMoment: [ Abs: 30.48503  Tot: -0.00000 ]
	SubspaceRotationAdjust: set factor to 0.277
ElecMinimize: Iter:  43  F: -1971.806108107552518  |grad|_K:  6.616e-06  alpha:  2.368e-01  linmin: -5.485e-05  t[s]:   3071.57
	FillingsUpdate:  mu: +0.102968153  nElectrons: 345.000000  magneticMoment: [ Abs: 30.85570  Tot: +0.00000 ]
	SubspaceRotationAdjust: set factor to 0.36
ElecMinimize: Iter:  44  F: -1971.807835943421878  |grad|_K:  7.575e-06  alpha:  2.236e-01  linmin: -4.161e-05  t[s]:   3118.96
	FillingsUpdate:  mu: +0.103670071  nElectrons: 345.000000  magneticMoment: [ Abs: 31.24484  Tot: -0.00000 ]
	SubspaceRotationAdjust: set factor to 0.464
ElecMinimize: Iter:  45  F: -1971.809661371409220  |grad|_K:  8.242e-06  alpha:  1.805e-01  linmin: -9.227e-05  t[s]:   3166.06
	FillingsUpdate:  mu: +0.104324272  nElectrons: 345.000000  magneticMoment: [ Abs: 31.62756  Tot: +0.00000 ]
	SubspaceRotationAdjust: set factor to 0.591
ElecMinimize: Iter:  46  F: -1971.811575902389222  |grad|_K:  8.772e-06  alpha:  1.590e-01  linmin: -1.205e-04  t[s]:   3213.69
	FillingsUpdate:  mu: +0.104141732  nElectrons: 345.000000  magneticMoment: [ Abs: 31.98652  Tot: -0.00000 ]
	SubspaceRotationAdjust: set factor to 0.748
ElecMinimize: Iter:  47  F: -1971.813569451921012  |grad|_K:  9.032e-06  alpha:  1.454e-01  linmin: -1.213e-04  t[s]:   3261.07
	FillingsUpdate:  mu: +0.103390448  nElectrons: 345.000000  magneticMoment: [ Abs: 32.32687  Tot: +0.00000 ]
	SubspaceRotationAdjust: set factor to 0.927
	SubspaceRotationAdjust: resetting CG because factor has changed by 8.09694
ElecMinimize: 	State modified externally: resetting search direction.
ElecMinimize: Iter:  48  F: -1971.815619443867718  |grad|_K:  9.314e-06  alpha:  1.404e-01
	FillingsUpdate:  mu: +0.107741774  nElectrons: 345.000000  magneticMoment: [ Abs: 32.37727  Tot: -0.00000 ]
	SubspaceRotationAdjust: set factor to 0.684
ElecMinimize: Iter:  49  F: -1971.821539115368068  |grad|_K:  1.296e-05  alpha:  3.845e-01  linmin: -2.070e-04  t[s]:   3376.15
	FillingsUpdate:  mu: +0.103635675  nElectrons: 345.000000  magneticMoment: [ Abs: 32.33267  Tot: -0.00000 ]
	SubspaceRotationAdjust: set factor to 0.471
ElecMinimize: Iter:  50  F: -1971.824532195868869  |grad|_K:  1.107e-05  alpha:  9.570e-02  linmin: -1.934e-04  t[s]:   3423.12
	FillingsUpdate:  mu: +0.103611235  nElectrons: 345.000000  magneticMoment: [ Abs: 32.47961  Tot: +0.00000 ]
	SubspaceRotationAdjust: set factor to 0.334
ElecMinimize: Iter:  51  F: -1971.827756776448723  |grad|_K:  1.068e-05  alpha:  1.497e-01  linmin:  3.908e-04  t[s]:   3470.66
	FillingsUpdate:  mu: +0.106026925  nElectrons: 345.000000  magneticMoment: [ Abs: 32.61244  Tot: +0.00000 ]
	SubspaceRotationAdjust: set factor to 0.443
ElecMinimize: Iter:  52  F: -1971.830665316738305  |grad|_K:  7.662e-06  alpha:  1.532e-01  linmin: -1.237e-04  t[s]:   3518.01
	FillingsUpdate:  mu: +0.106542713  nElectrons: 345.000000  magneticMoment: [ Abs: 32.64094  Tot: +0.00000 ]
	SubspaceRotationAdjust: set factor to 0.348
ElecMinimize: Iter:  53  F: -1971.832265423035324  |grad|_K:  6.570e-06  alpha:  1.532e-01  linmin:  1.029e-06  t[s]:   3565.61
	FillingsUpdate:  mu: +0.105654489  nElectrons: 345.000000  magneticMoment: [ Abs: 32.75549  Tot: +0.00000 ]
	SubspaceRotationAdjust: set factor to 0.5
ElecMinimize: Iter:  54  F: -1971.833566540566153  |grad|_K:  4.777e-06  alpha:  1.723e-01  linmin: -2.519e-05  t[s]:   3613.03
	FillingsUpdate:  mu: +0.105478784  nElectrons: 345.000000  magneticMoment: [ Abs: 32.91218  Tot: -0.00000 ]
	SubspaceRotationAdjust: set factor to 0.375
ElecMinimize: Iter:  55  F: -1971.834561407624051  |grad|_K:  5.712e-06  alpha:  2.472e-01  linmin: -4.202e-04  t[s]:   3660.30
	FillingsUpdate:  mu: +0.106658609  nElectrons: 345.000000  magneticMoment: [ Abs: 33.05927  Tot: -0.00000 ]
	SubspaceRotationAdjust: set factor to 0.391
ElecMinimize: Iter:  56  F: -1971.835628544168458  |grad|_K:  4.889e-06  alpha:  1.822e-01  linmin:  5.785e-05  t[s]:   3707.72
	FillingsUpdate:  mu: +0.108178786  nElectrons: 345.000000  magneticMoment: [ Abs: 33.33816  Tot: +0.00000 ]
	SubspaceRotationAdjust: set factor to 0.291
ElecMinimize: Iter:  57  F: -1971.837041114128624  |grad|_K:  7.115e-06  alpha:  3.531e-01  linmin:  7.624e-04  t[s]:   3755.03
	FillingsUpdate:  mu: +0.109864004  nElectrons: 345.000000  magneticMoment: [ Abs: 33.68274  Tot: +0.00000 ]
	SubspaceRotationAdjust: set factor to 0.358
ElecMinimize: Iter:  58  F: -1971.838543199317428  |grad|_K:  6.701e-06  alpha:  1.930e-01  linmin:  5.428e-05  t[s]:   3802.43
	FillingsUpdate:  mu: +0.109876091  nElectrons: 345.000000  magneticMoment: [ Abs: 34.05448  Tot: -0.00000 ]
	SubspaceRotationAdjust: set factor to 0.387
ElecMinimize: Iter:  59  F: -1971.840598179589506  |grad|_K:  6.674e-06  alpha:  2.627e-01  linmin: -3.733e-05  t[s]:   3849.91
	FillingsUpdate:  mu: +0.107136371  nElectrons: 345.000000  magneticMoment: [ Abs: 34.28466  Tot: -0.00000 ]
	SubspaceRotationAdjust: set factor to 0.375
ElecMinimize: Iter:  60  F: -1971.842165097627003  |grad|_K:  7.850e-06  alpha:  1.925e-01  linmin:  6.843e-05  t[s]:   3897.60
	FillingsUpdate:  mu: +0.106597422  nElectrons: 345.000000  magneticMoment: [ Abs: 34.59692  Tot: +0.00000 ]
	SubspaceRotationAdjust: set factor to 0.315
ElecMinimize: Iter:  61  F: -1971.844202141751794  |grad|_K:  9.885e-06  alpha:  1.912e-01  linmin:  4.473e-04  t[s]:   3944.60
	FillingsUpdate:  mu: +0.107544263  nElectrons: 345.000000  magneticMoment: [ Abs: 34.74261  Tot: -0.00000 ]
	SubspaceRotationAdjust: set factor to 0.282
ElecMinimize: Iter:  62  F: -1971.845346711388856  |grad|_K:  9.746e-06  alpha:  6.186e-02  linmin: -8.554e-04  t[s]:   3992.28
	FillingsUpdate:  mu: +0.107654862  nElectrons: 345.000000  magneticMoment: [ Abs: 34.90233  Tot: -0.00000 ]
	SubspaceRotationAdjust: set factor to 0.269
ElecMinimize: Iter:  63  F: -1971.846842326537171  |grad|_K:  8.421e-06  alpha:  7.373e-02  linmin: -4.058e-04  t[s]:   4039.67
	FillingsUpdate:  mu: +0.107750739  nElectrons: 345.000000  magneticMoment: [ Abs: 35.02340  Tot: +0.00000 ]
	SubspaceRotationAdjust: set factor to 0.258
ElecMinimize: Iter:  64  F: -1971.847964930481339  |grad|_K:  7.654e-06  alpha:  8.354e-02  linmin: -8.290e-05  t[s]:   4087.08
	FillingsUpdate:  mu: +0.106746520  nElectrons: 345.000000  magneticMoment: [ Abs: 35.12470  Tot: -0.00000 ]
	SubspaceRotationAdjust: set factor to 0.249
ElecMinimize: Iter:  65  F: -1971.848819738790098  |grad|_K:  7.552e-06  alpha:  8.231e-02  linmin:  1.615e-04  t[s]:   4134.60
	FillingsUpdate:  mu: +0.108138378  nElectrons: 345.000000  magneticMoment: [ Abs: 35.23092  Tot: -0.00000 ]
	SubspaceRotationAdjust: set factor to 0.211
ElecMinimize: Iter:  66  F: -1971.849669928954427  |grad|_K:  8.313e-06  alpha:  8.739e-02  linmin:  7.503e-05  t[s]:   4181.86
	FillingsUpdate:  mu: +0.109526692  nElectrons: 345.000000  magneticMoment: [ Abs: 35.33968  Tot: -0.00000 ]
	SubspaceRotationAdjust: set factor to 0.197
ElecMinimize: Iter:  67  F: -1971.850751386532465  |grad|_K:  8.204e-06  alpha:  9.043e-02  linmin: -8.104e-05  t[s]:   4229.01
	FillingsUpdate:  mu: +0.108644101  nElectrons: 345.000000  magneticMoment: [ Abs: 35.40351  Tot: +0.00000 ]
	SubspaceRotationAdjust: set factor to 0.292
ElecMinimize: Iter:  68  F: -1971.851797923103959  |grad|_K:  6.737e-06  alpha:  8.787e-02  linmin: -1.211e-04  t[s]:   4276.88
	FillingsUpdate:  mu: +0.111629199  nElectrons: 345.000000  magneticMoment: [ Abs: 35.43841  Tot: +0.00000 ]
	SubspaceRotationAdjust: set factor to 0.336
ElecMinimize: Iter:  69  F: -1971.852612709199548  |grad|_K:  6.615e-06  alpha:  1.002e-01  linmin: -1.932e-04  t[s]:   4324.27
	FillingsUpdate:  mu: +0.113428003  nElectrons: 345.000000  magneticMoment: [ Abs: 35.51005  Tot: +0.00000 ]
	SubspaceRotationAdjust: set factor to 0.467
ElecMinimize: Iter:  70  F: -1971.853456535407759  |grad|_K:  5.864e-06  alpha:  1.073e-01  linmin: -9.768e-05  t[s]:   4372.04
	FillingsUpdate:  mu: +0.112572759  nElectrons: 345.000000  magneticMoment: [ Abs: 35.57682  Tot: -0.00000 ]
	SubspaceRotationAdjust: set factor to 0.448
ElecMinimize: Iter:  71  F: -1971.854068174771555  |grad|_K:  6.715e-06  alpha:  1.005e-01  linmin:  2.205e-05  t[s]:   4419.89
	FillingsUpdate:  mu: +0.112521747  nElectrons: 345.000000  magneticMoment: [ Abs: 35.59369  Tot: +0.00000 ]
	SubspaceRotationAdjust: set factor to 0.641
ElecMinimize: Iter:  72  F: -1971.854850516561100  |grad|_K:  6.119e-06  alpha:  9.953e-02  linmin: -7.024e-05  t[s]:   4467.12
	FillingsUpdate:  mu: +0.112917752  nElectrons: 345.000000  magneticMoment: [ Abs: 35.57470  Tot: -0.00000 ]
	SubspaceRotationAdjust: set factor to 0.534
ElecMinimize: Iter:  73  F: -1971.855485717893771  |grad|_K:  7.500e-06  alpha:  9.586e-02  linmin:  8.142e-06  t[s]:   4514.37
	FillingsUpdate:  mu: +0.113456355  nElectrons: 345.000000  magneticMoment: [ Abs: 35.61759  Tot: +0.00000 ]
	SubspaceRotationAdjust: set factor to 0.733
ElecMinimize: Iter:  74  F: -1971.856193193722447  |grad|_K:  5.895e-06  alpha:  7.210e-02  linmin:  4.015e-07  t[s]:   4561.65
	FillingsUpdate:  mu: +0.114334058  nElectrons: 345.000000  magneticMoment: [ Abs: 35.64413  Tot: +0.00000 ]
	SubspaceRotationAdjust: set factor to 0.669
ElecMinimize: Iter:  75  F: -1971.856941834553254  |grad|_K:  7.080e-06  alpha:  1.215e-01  linmin: -1.181e-04  t[s]:   4609.61
	FillingsUpdate:  mu: +0.115610730  nElectrons: 345.000000  magneticMoment: [ Abs: 35.59991  Tot: +0.00000 ]
	SubspaceRotationAdjust: set factor to 0.676
ElecMinimize: Iter:  76  F: -1971.857471663547585  |grad|_K:  6.653e-06  alpha:  5.607e-02  linmin: -9.890e-05  t[s]:   4656.85
	FillingsUpdate:  mu: +0.115460759  nElectrons: 345.000000  magneticMoment: [ Abs: 35.56128  Tot: -0.00000 ]
	SubspaceRotationAdjust: set factor to 0.667
ElecMinimize: Iter:  77  F: -1971.858250873932320  |grad|_K:  7.425e-06  alpha:  9.799e-02  linmin:  3.576e-05  t[s]:   4703.77
	FillingsUpdate:  mu: +0.114969672  nElectrons: 345.000000  magneticMoment: [ Abs: 35.55364  Tot: +0.00000 ]
	SubspaceRotationAdjust: set factor to 0.781
ElecMinimize: Iter:  78  F: -1971.858865479584210  |grad|_K:  6.445e-06  alpha:  6.898e-02  linmin: -6.302e-05  t[s]:   4751.50
	FillingsUpdate:  mu: +0.115582568  nElectrons: 345.000000  magneticMoment: [ Abs: 35.47937  Tot: -0.00000 ]
	SubspaceRotationAdjust: set factor to 0.761
ElecMinimize: Iter:  79  F: -1971.859564223024108  |grad|_K:  7.521e-06  alpha:  1.052e-01  linmin:  9.677e-04  t[s]:   4798.83
	FillingsUpdate:  mu: +0.115412652  nElectrons: 345.000000  magneticMoment: [ Abs: 35.45865  Tot: -0.00000 ]
	SubspaceRotationAdjust: set factor to 0.673
ElecMinimize: Iter:  80  F: -1971.859816961678462  |grad|_K:  7.868e-06  alpha:  2.710e-02  linmin: -7.890e-04  t[s]:   4846.09
	FillingsUpdate:  mu: +0.115707457  nElectrons: 345.000000  magneticMoment: [ Abs: 35.41633  Tot: +0.00000 ]
	SubspaceRotationAdjust: set factor to 0.601
ElecMinimize: Iter:  81  F: -1971.860544678250335  |grad|_K:  7.428e-06  alpha:  5.338e-02  linmin: -6.805e-05  t[s]:   4894.01
	FillingsUpdate:  mu: +0.115501986  nElectrons: 345.000000  magneticMoment: [ Abs: 35.37522  Tot: -0.00000 ]
	SubspaceRotationAdjust: set factor to 0.489
ElecMinimize: Iter:  82  F: -1971.860977187163599  |grad|_K:  7.704e-06  alpha:  4.267e-02  linmin:  8.120e-05  t[s]:   4941.26
	FillingsUpdate:  mu: +0.115540249  nElectrons: 345.000000  magneticMoment: [ Abs: 35.33977  Tot: -0.00000 ]
	SubspaceRotationAdjust: set factor to 0.387
ElecMinimize: Iter:  83  F: -1971.861335158880820  |grad|_K:  7.608e-06  alpha:  3.478e-02  linmin:  2.770e-05  t[s]:   4988.54
	FillingsUpdate:  mu: +0.115721381  nElectrons: 345.000000  magneticMoment: [ Abs: 35.30736  Tot: -0.00000 ]
	SubspaceRotationAdjust: set factor to 0.324
ElecMinimize: Iter:  84  F: -1971.861707682577162  |grad|_K:  6.993e-06  alpha:  3.694e-02  linmin: -1.034e-04  t[s]:   5036.09
	FillingsUpdate:  mu: +0.116095680  nElectrons: 345.000000  magneticMoment: [ Abs: 35.27880  Tot: +0.00000 ]
	SubspaceRotationAdjust: set factor to 0.334
ElecMinimize: Iter:  85  F: -1971.862125529059540  |grad|_K:  5.939e-06  alpha:  4.673e-02  linmin: -3.488e-04  t[s]:   5084.20
	FillingsUpdate:  mu: +0.116751247  nElectrons: 345.000000  magneticMoment: [ Abs: 35.25682  Tot: +0.00000 ]
	SubspaceRotationAdjust: set factor to 0.479
ElecMinimize: Iter:  86  F: -1971.862571867066890  |grad|_K:  4.919e-06  alpha:  6.532e-02  linmin: -4.402e-04  t[s]:   5132.55
	FillingsUpdate:  mu: +0.116687682  nElectrons: 345.000000  magneticMoment: [ Abs: 35.23246  Tot: -0.00000 ]
	SubspaceRotationAdjust: set factor to 0.566
ElecMinimize: Iter:  87  F: -1971.863019150539230  |grad|_K:  5.089e-06  alpha:  9.529e-02  linmin: -2.376e-04  t[s]:   5180.83
	FillingsUpdate:  mu: +0.116775178  nElectrons: 345.000000  magneticMoment: [ Abs: 35.17963  Tot: -0.00000 ]
	SubspaceRotationAdjust: set factor to 0.742
ElecMinimize: Iter:  88  F: -1971.863453398134880  |grad|_K:  4.989e-06  alpha:  9.146e-02  linmin:  8.411e-05  t[s]:   5228.70
	FillingsUpdate:  mu: +0.115853821  nElectrons: 345.000000  magneticMoment: [ Abs: 35.13613  Tot: -0.00000 ]
	SubspaceRotationAdjust: set factor to 0.682
ElecMinimize: Iter:  89  F: -1971.863824051759593  |grad|_K:  5.931e-06  alpha:  8.659e-02  linmin:  5.112e-05  t[s]:   5277.00
	FillingsUpdate:  mu: +0.115397302  nElectrons: 345.000000  magneticMoment: [ Abs: 35.12820  Tot: -0.00000 ]
	SubspaceRotationAdjust: set factor to 0.773
ElecMinimize: Iter:  90  F: -1971.864196544714105  |grad|_K:  5.476e-06  alpha:  6.143e-02  linmin: -2.322e-06  t[s]:   5325.18
	FillingsUpdate:  mu: +0.114443723  nElectrons: 345.000000  magneticMoment: [ Abs: 35.13335  Tot: +0.00000 ]
	SubspaceRotationAdjust: set factor to 0.732
ElecMinimize: Iter:  91  F: -1971.864606604806113  |grad|_K:  5.992e-06  alpha:  7.783e-02  linmin: -3.876e-05  t[s]:   5373.29
	FillingsUpdate:  mu: +0.115449489  nElectrons: 345.000000  magneticMoment: [ Abs: 35.12445  Tot: -0.00000 ]
	SubspaceRotationAdjust: set factor to 0.903
ElecMinimize: Iter:  92  F: -1971.864981894341554  |grad|_K:  5.519e-06  alpha:  5.881e-02  linmin:  2.619e-06  t[s]:   5421.59
	FillingsUpdate:  mu: +0.115255234  nElectrons: 345.000000  magneticMoment: [ Abs: 35.13503  Tot: +0.00000 ]
	SubspaceRotationAdjust: set factor to 0.902
ElecMinimize: Iter:  93  F: -1971.865380775235508  |grad|_K:  6.072e-06  alpha:  7.504e-02  linmin:  9.330e-06  t[s]:   5469.64
	FillingsUpdate:  mu: +0.115165440  nElectrons: 345.000000  magneticMoment: [ Abs: 35.16957  Tot: -0.00000 ]
	SubspaceRotationAdjust: set factor to 1.14
ElecMinimize: Iter:  94  F: -1971.865706536783819  |grad|_K:  5.546e-06  alpha:  5.154e-02  linmin: -5.639e-06  t[s]:   5517.22
	FillingsUpdate:  mu: +0.114492232  nElectrons: 345.000000  magneticMoment: [ Abs: 35.20009  Tot: +0.00000 ]
	SubspaceRotationAdjust: set factor to 1.21
ElecMinimize: Iter:  95  F: -1971.866089435743334  |grad|_K:  5.824e-06  alpha:  7.106e-02  linmin:  6.722e-06  t[s]:   5564.25
	FillingsUpdate:  mu: +0.115140909  nElectrons: 345.000000  magneticMoment: [ Abs: 35.21935  Tot: -0.00000 ]
	SubspaceRotationAdjust: set factor to 1.13
ElecMinimize: Iter:  96  F: -1971.866400936279206  |grad|_K:  6.264e-06  alpha:  5.199e-02  linmin:  9.673e-06  t[s]:   5611.47
	FillingsUpdate:  mu: +0.114849283  nElectrons: 345.000000  magneticMoment: [ Abs: 35.27014  Tot: +0.00000 ]
	SubspaceRotationAdjust: set factor to 1.31
ElecMinimize: Iter:  97  F: -1971.866733012662507  |grad|_K:  5.845e-06  alpha:  4.864e-02  linmin: -1.933e-05  t[s]:   5659.19
	FillingsUpdate:  mu: +0.115030266  nElectrons: 345.000000  magneticMoment: [ Abs: 35.32972  Tot: -0.00000 ]
	SubspaceRotationAdjust: set factor to 1.51
ElecMinimize: Iter:  98  F: -1971.867042145605865  |grad|_K:  5.926e-06  alpha:  5.118e-02  linmin: -9.554e-05  t[s]:   5706.75
	FillingsUpdate:  mu: +0.115333670  nElectrons: 345.000000  magneticMoment: [ Abs: 35.37335  Tot: -0.00000 ]
	SubspaceRotationAdjust: set factor to 1.68
ElecMinimize: Iter:  99  F: -1971.867431148526975  |grad|_K:  5.979e-06  alpha:  6.133e-02  linmin:  4.095e-05  t[s]:   5754.75
	FillingsUpdate:  mu: +0.115761539  nElectrons: 345.000000  magneticMoment: [ Abs: 35.39671  Tot: +0.00000 ]
	SubspaceRotationAdjust: set factor to 1.59
ElecMinimize: Iter: 100  F: -1971.867759341042756  |grad|_K:  6.443e-06  alpha:  5.319e-02  linmin:  9.781e-06  t[s]:   5802.21
	FillingsUpdate:  mu: +0.116317703  nElectrons: 345.000000  magneticMoment: [ Abs: 35.43003  Tot: +0.00000 ]
	SubspaceRotationAdjust: set factor to 1.93
ElecMinimize: Iter: 101  F: -1971.868078791315838  |grad|_K:  5.782e-06  alpha:  4.440e-02  linmin: -2.621e-05  t[s]:   5850.04
	FillingsUpdate:  mu: +0.115963987  nElectrons: 345.000000  magneticMoment: [ Abs: 35.45464  Tot: +0.00000 ]
	SubspaceRotationAdjust: set factor to 1.92
ElecMinimize: Iter: 102  F: -1971.868406727078764  |grad|_K:  6.154e-06  alpha:  5.543e-02  linmin: -1.539e-05  t[s]:   5897.65
	FillingsUpdate:  mu: +0.116264532  nElectrons: 345.000000  magneticMoment: [ Abs: 35.45323  Tot: +0.00000 ]
	SubspaceRotationAdjust: set factor to 2.07
ElecMinimize: Iter: 103  F: -1971.868693540867525  |grad|_K:  5.769e-06  alpha:  4.299e-02  linmin:  6.779e-07  t[s]:   5945.61
	FillingsUpdate:  mu: +0.115434047  nElectrons: 345.000000  magneticMoment: [ Abs: 35.45934  Tot: +0.00000 ]
	SubspaceRotationAdjust: set factor to 2.14
ElecMinimize: Iter: 104  F: -1971.868984208500706  |grad|_K:  5.711e-06  alpha:  5.001e-02  linmin:  9.547e-06  t[s]:   5993.31
	FillingsUpdate:  mu: +0.114939628  nElectrons: 345.000000  magneticMoment: [ Abs: 35.46702  Tot: +0.00000 ]
	SubspaceRotationAdjust: set factor to 2.33
ElecMinimize: Iter: 105  F: -1971.869218816984812  |grad|_K:  5.596e-06  alpha:  4.143e-02  linmin: -8.900e-06  t[s]:   6040.92
	FillingsUpdate:  mu: +0.114987532  nElectrons: 345.000000  magneticMoment: [ Abs: 35.44392  Tot: -0.00000 ]
	SubspaceRotationAdjust: set factor to 2.43
ElecMinimize: Iter: 106  F: -1971.869483336386111  |grad|_K:  5.678e-06  alpha:  4.829e-02  linmin:  3.730e-05  t[s]:   6088.94
	FillingsUpdate:  mu: +0.115501006  nElectrons: 345.000000  magneticMoment: [ Abs: 35.41499  Tot: -0.00000 ]
	SubspaceRotationAdjust: set factor to 2.3
ElecMinimize: Iter: 107  F: -1971.869723479226650  |grad|_K:  5.898e-06  alpha:  4.335e-02  linmin:  9.370e-06  t[s]:   6136.87
	FillingsUpdate:  mu: +0.115741588  nElectrons: 345.000000  magneticMoment: [ Abs: 35.40886  Tot: -0.00000 ]
	SubspaceRotationAdjust: set factor to 2.64
ElecMinimize: Iter: 108  F: -1971.869939017648221  |grad|_K:  5.322e-06  alpha:  3.559e-02  linmin: -1.764e-07  t[s]:   6184.93
	FillingsUpdate:  mu: +0.115674039  nElectrons: 345.000000  magneticMoment: [ Abs: 35.39206  Tot: +0.00000 ]
	SubspaceRotationAdjust: set factor to 2.41
ElecMinimize: Iter: 109  F: -1971.870166983893114  |grad|_K:  5.685e-06  alpha:  4.612e-02  linmin:  1.518e-05  t[s]:   6232.69
	FillingsUpdate:  mu: +0.116116120  nElectrons: 345.000000  magneticMoment: [ Abs: 35.35650  Tot: -0.00000 ]
	SubspaceRotationAdjust: set factor to 2.17
ElecMinimize: Iter: 110  F: -1971.870360103034955  |grad|_K:  5.501e-06  alpha:  3.424e-02  linmin:  2.655e-06  t[s]:   6280.59
	FillingsUpdate:  mu: +0.115873148  nElectrons: 345.000000  magneticMoment: [ Abs: 35.33424  Tot: +0.00000 ]
	SubspaceRotationAdjust: set factor to 2.54
ElecMinimize: Iter: 111  F: -1971.870553954495108  |grad|_K:  4.748e-06  alpha:  3.661e-02  linmin: -2.859e-05  t[s]:   6327.76
	FillingsUpdate:  mu: +0.115708105  nElectrons: 345.000000  magneticMoment: [ Abs: 35.32814  Tot: +0.00000 ]
	SubspaceRotationAdjust: set factor to 2.31
ElecMinimize: Iter: 112  F: -1971.870728087523048  |grad|_K:  5.265e-06  alpha:  4.359e-02  linmin: -1.835e-05  t[s]:   6375.00
	FillingsUpdate:  mu: +0.115889651  nElectrons: 345.000000  magneticMoment: [ Abs: 35.31414  Tot: -0.00000 ]
	SubspaceRotationAdjust: set factor to 2.49
ElecMinimize: Iter: 113  F: -1971.870909195826698  |grad|_K:  4.735e-06  alpha:  3.705e-02  linmin:  1.701e-06  t[s]:   6422.04
	FillingsUpdate:  mu: +0.115827532  nElectrons: 345.000000  magneticMoment: [ Abs: 35.31700  Tot: +0.00000 ]
	SubspaceRotationAdjust: set factor to 2.25
ElecMinimize: Iter: 114  F: -1971.871089901197138  |grad|_K:  5.047e-06  alpha:  4.614e-02  linmin:  3.196e-06  t[s]:   6469.59
	FillingsUpdate:  mu: +0.115728831  nElectrons: 345.000000  magneticMoment: [ Abs: 35.33604  Tot: -0.00000 ]
	SubspaceRotationAdjust: set factor to 2.48
ElecMinimize: Iter: 115  F: -1971.871240926720702  |grad|_K:  4.476e-06  alpha:  3.412e-02  linmin: -4.922e-06  t[s]:   6517.49
	FillingsUpdate:  mu: +0.115164538  nElectrons: 345.000000  magneticMoment: [ Abs: 35.34372  Tot: +0.00000 ]
	SubspaceRotationAdjust: set factor to 2.41
ElecMinimize: Iter: 116  F: -1971.871408004551995  |grad|_K:  4.612e-06  alpha:  4.770e-02  linmin:  1.529e-05  t[s]:   6564.71
	FillingsUpdate:  mu: +0.115330101  nElectrons: 345.000000  magneticMoment: [ Abs: 35.33861  Tot: -0.00000 ]
	SubspaceRotationAdjust: set factor to 2.22
ElecMinimize: Iter: 117  F: -1971.871542583833843  |grad|_K:  4.665e-06  alpha:  3.622e-02  linmin:  6.602e-06  t[s]:   6611.77
	FillingsUpdate:  mu: +0.115801577  nElectrons: 345.000000  magneticMoment: [ Abs: 35.34929  Tot: +0.00000 ]
	SubspaceRotationAdjust: set factor to 2.58
ElecMinimize: Iter: 118  F: -1971.871688122569822  |grad|_K:  4.134e-06  alpha:  3.836e-02  linmin:  4.468e-07  t[s]:   6659.58
	FillingsUpdate:  mu: +0.116251850  nElectrons: 345.000000  magneticMoment: [ Abs: 35.36633  Tot: +0.00000 ]
	SubspaceRotationAdjust: set factor to 2.6
ElecMinimize: Iter: 119  F: -1971.871803077336608  |grad|_K:  4.306e-06  alpha:  3.846e-02  linmin: -2.867e-05  t[s]:   6707.01
	FillingsUpdate:  mu: +0.116640088  nElectrons: 345.000000  magneticMoment: [ Abs: 35.36854  Tot: -0.00000 ]
	SubspaceRotationAdjust: set factor to 2.94
ElecMinimize: Iter: 120  F: -1971.871928519285348  |grad|_K:  3.998e-06  alpha:  3.829e-02  linmin:  1.156e-05  t[s]:   6754.20
	FillingsUpdate:  mu: +0.116533312  nElectrons: 345.000000  magneticMoment: [ Abs: 35.36975  Tot: -0.00000 ]
	SubspaceRotationAdjust: set factor to 2.91
ElecMinimize: Iter: 121  F: -1971.872045712299723  |grad|_K:  4.157e-06  alpha:  4.208e-02  linmin: -6.135e-06  t[s]:   6801.78
	FillingsUpdate:  mu: +0.116101104  nElectrons: 345.000000  magneticMoment: [ Abs: 35.38263  Tot: -0.00000 ]
	SubspaceRotationAdjust: set factor to 3.2
ElecMinimize: Iter: 122  F: -1971.872140708852385  |grad|_K:  3.962e-06  alpha:  3.150e-02  linmin: -4.868e-06  t[s]:   6848.81
	FillingsUpdate:  mu: +0.115908582  nElectrons: 345.000000  magneticMoment: [ Abs: 35.38245  Tot: -0.00000 ]
	SubspaceRotationAdjust: set factor to 3.7
ElecMinimize: Iter: 123  F: -1971.872254481532082  |grad|_K:  3.860e-06  alpha:  4.139e-02  linmin:  4.290e-06  t[s]:   6895.86
	FillingsUpdate:  mu: +0.116245176  nElectrons: 345.000000  magneticMoment: [ Abs: 35.37538  Tot: -0.00000 ]
	SubspaceRotationAdjust: set factor to 3.22
ElecMinimize: Iter: 124  F: -1971.872359014580979  |grad|_K:  4.383e-06  alpha:  4.019e-02  linmin:  1.311e-05  t[s]:   6943.16
	FillingsUpdate:  mu: +0.116145434  nElectrons: 345.000000  magneticMoment: [ Abs: 35.38165  Tot: +0.00000 ]
	SubspaceRotationAdjust: set factor to 3.16
ElecMinimize: Iter: 125  F: -1971.872445077958446  |grad|_K:  4.078e-06  alpha:  2.613e-02  linmin:  1.378e-06  t[s]:   6990.49
	FillingsUpdate:  mu: +0.116173157  nElectrons: 345.000000  magneticMoment: [ Abs: 35.36861  Tot: +0.00000 ]
	SubspaceRotationAdjust: set factor to 3.35
ElecMinimize: Iter: 126  F: -1971.872560245742989  |grad|_K:  3.843e-06  alpha:  3.976e-02  linmin:  1.404e-05  t[s]:   7038.27
	FillingsUpdate:  mu: +0.116503901  nElectrons: 345.000000  magneticMoment: [ Abs: 35.35276  Tot: +0.00000 ]
	SubspaceRotationAdjust: set factor to 2.88
ElecMinimize: Iter: 127  F: -1971.872663388348428  |grad|_K:  4.307e-06  alpha:  4.027e-02  linmin:  2.343e-05  t[s]:   7085.91
	FillingsUpdate:  mu: +0.116525236  nElectrons: 345.000000  magneticMoment: [ Abs: 35.35480  Tot: -0.00000 ]
	SubspaceRotationAdjust: set factor to 2.98
ElecMinimize: Iter: 128  F: -1971.872754741066728  |grad|_K:  4.030e-06  alpha:  2.904e-02  linmin: -1.170e-05  t[s]:   7133.59
	FillingsUpdate:  mu: +0.116854875  nElectrons: 345.000000  magneticMoment: [ Abs: 35.33782  Tot: +0.00000 ]
	SubspaceRotationAdjust: set factor to 3.76
ElecMinimize: Iter: 129  F: -1971.872884757251541  |grad|_K:  3.932e-06  alpha:  4.630e-02  linmin:  8.598e-05  t[s]:   7181.67
	FillingsUpdate:  mu: +0.117093326  nElectrons: 345.000000  magneticMoment: [ Abs: 35.32323  Tot: +0.00000 ]
	SubspaceRotationAdjust: set factor to 3.88
ElecMinimize: Iter: 130  F: -1971.872991030808180  |grad|_K:  4.370e-06  alpha:  4.072e-02  linmin:  3.472e-05  t[s]:   7229.28
	FillingsUpdate:  mu: +0.116814721  nElectrons: 345.000000  magneticMoment: [ Abs: 35.32102  Tot: +0.00000 ]
	SubspaceRotationAdjust: set factor to 4
ElecMinimize: Iter: 131  F: -1971.873083770720541  |grad|_K:  4.419e-06  alpha:  2.907e-02  linmin: -1.604e-05  t[s]:   7277.42
	FillingsUpdate:  mu: +0.116944502  nElectrons: 345.000000  magneticMoment: [ Abs: 35.30051  Tot: +0.00000 ]
	SubspaceRotationAdjust: set factor to 3.57
ElecMinimize: Iter: 132  F: -1971.873184403014193  |grad|_K:  4.737e-06  alpha:  2.919e-02  linmin:  9.434e-05  t[s]:   7325.13
	FillingsUpdate:  mu: +0.116481143  nElectrons: 345.000000  magneticMoment: [ Abs: 35.29596  Tot: +0.00000 ]
	SubspaceRotationAdjust: set factor to 4.5
ElecMinimize: Iter: 133  F: -1971.873267358570729  |grad|_K:  4.043e-06  alpha:  2.290e-02  linmin: -1.621e-05  t[s]:   7372.71
	FillingsUpdate:  mu: +0.116207612  nElectrons: 345.000000  magneticMoment: [ Abs: 35.29721  Tot: -0.00000 ]
	SubspaceRotationAdjust: set factor to 4.21
ElecMinimize: Iter: 134  F: -1971.873356865957476  |grad|_K:  4.565e-06  alpha:  3.026e-02  linmin: -9.026e-05  t[s]:   7419.92
	FillingsUpdate:  mu: +0.116855631  nElectrons: 345.000000  magneticMoment: [ Abs: 35.28147  Tot: +0.00000 ]
	SubspaceRotationAdjust: set factor to 3.46
ElecMinimize: Iter: 135  F: -1971.873443322271669  |grad|_K:  4.882e-06  alpha:  2.097e-02  linmin:  6.585e-06  t[s]:   7467.28
	FillingsUpdate:  mu: +0.117085930  nElectrons: 345.000000  magneticMoment: [ Abs: 35.28484  Tot: -0.00000 ]
	SubspaceRotationAdjust: set factor to 3.06
ElecMinimize: Iter: 136  F: -1971.873535966575446  |grad|_K:  4.612e-06  alpha:  2.236e-02  linmin:  1.962e-05  t[s]:   7514.75
	FillingsUpdate:  mu: +0.116952973  nElectrons: 345.000000  magneticMoment: [ Abs: 35.30156  Tot: -0.00000 ]
	SubspaceRotationAdjust: set factor to 3.34
ElecMinimize: Iter: 137  F: -1971.873603002579557  |grad|_K:  4.151e-06  alpha:  1.855e-02  linmin: -4.320e-05  t[s]:   7562.50
	FillingsUpdate:  mu: +0.117249178  nElectrons: 345.000000  magneticMoment: [ Abs: 35.31335  Tot: -0.00000 ]
	SubspaceRotationAdjust: set factor to 3.47
ElecMinimize: Iter: 138  F: -1971.873711716237267  |grad|_K:  4.179e-06  alpha:  3.547e-02  linmin:  5.050e-05  t[s]:   7610.13
	FillingsUpdate:  mu: +0.117710183  nElectrons: 345.000000  magneticMoment: [ Abs: 35.31501  Tot: +0.00000 ]
	SubspaceRotationAdjust: set factor to 2.75
ElecMinimize: Iter: 139  F: -1971.873789593275205  |grad|_K:  4.923e-06  alpha:  2.529e-02  linmin:  1.345e-05  t[s]:   7657.74
	FillingsUpdate:  mu: +0.117220660  nElectrons: 345.000000  magneticMoment: [ Abs: 35.33151  Tot: +0.00000 ]
	SubspaceRotationAdjust: set factor to 3.16
ElecMinimize: Iter: 140  F: -1971.873876381620221  |grad|_K:  4.018e-06  alpha:  2.077e-02  linmin: -3.488e-05  t[s]:   7704.96
	FillingsUpdate:  mu: +0.116757455  nElectrons: 345.000000  magneticMoment: [ Abs: 35.35180  Tot: -0.00000 ]
	SubspaceRotationAdjust: set factor to 3.07
ElecMinimize: Iter: 141  F: -1971.873955058420506  |grad|_K:  4.353e-06  alpha:  2.707e-02  linmin: -1.079e-04  t[s]:   7752.24
	FillingsUpdate:  mu: +0.116940178  nElectrons: 345.000000  magneticMoment: [ Abs: 35.35651  Tot: -0.00000 ]
	SubspaceRotationAdjust: set factor to 3.68
ElecMinimize: Iter: 142  F: -1971.874049667875397  |grad|_K:  3.977e-06  alpha:  2.726e-02  linmin:  7.372e-05  t[s]:   7799.95
	FillingsUpdate:  mu: +0.117399882  nElectrons: 345.000000  magneticMoment: [ Abs: 35.36638  Tot: -0.00000 ]
	SubspaceRotationAdjust: set factor to 3.52
ElecMinimize: Iter: 143  F: -1971.874129029971300  |grad|_K:  4.344e-06  alpha:  2.988e-02  linmin:  1.623e-05  t[s]:   7847.58
	FillingsUpdate:  mu: +0.117402481  nElectrons: 345.000000  magneticMoment: [ Abs: 35.38620  Tot: +0.00000 ]
	SubspaceRotationAdjust: set factor to 3.77
ElecMinimize: Iter: 144  F: -1971.874193854488567  |grad|_K:  4.022e-06  alpha:  2.036e-02  linmin: -4.282e-06  t[s]:   7894.93
	FillingsUpdate:  mu: +0.117503362  nElectrons: 345.000000  magneticMoment: [ Abs: 35.39671  Tot: -0.00000 ]
	SubspaceRotationAdjust: set factor to 4.42
ElecMinimize: Iter: 145  F: -1971.874278333254551  |grad|_K:  3.750e-06  alpha:  3.007e-02  linmin:  3.872e-05  t[s]:   7942.66
	FillingsUpdate:  mu: +0.117364624  nElectrons: 345.000000  magneticMoment: [ Abs: 35.40409  Tot: -0.00000 ]
	SubspaceRotationAdjust: set factor to 4.08
ElecMinimize: Iter: 146  F: -1971.874346208457837  |grad|_K:  4.090e-06  alpha:  2.830e-02  linmin:  2.036e-05  t[s]:   7990.11
	FillingsUpdate:  mu: +0.116955408  nElectrons: 345.000000  magneticMoment: [ Abs: 35.41942  Tot: +0.00000 ]
	SubspaceRotationAdjust: set factor to 4.08
ElecMinimize: Iter: 147  F: -1971.874399905273094  |grad|_K:  3.824e-06  alpha:  1.903e-02  linmin: -2.152e-06  t[s]:   8037.86
	FillingsUpdate:  mu: +0.117351830  nElectrons: 345.000000  magneticMoment: [ Abs: 35.42206  Tot: -0.00000 ]
	SubspaceRotationAdjust: set factor to 4.39
ElecMinimize: Iter: 148  F: -1971.874469013810312  |grad|_K:  3.664e-06  alpha:  2.723e-02  linmin:  4.820e-05  t[s]:   8086.30
	FillingsUpdate:  mu: +0.117781204  nElectrons: 345.000000  magneticMoment: [ Abs: 35.43079  Tot: -0.00000 ]
	SubspaceRotationAdjust: set factor to 4.66
ElecMinimize: Iter: 149  F: -1971.874534801311484  |grad|_K:  3.684e-06  alpha:  2.878e-02  linmin:  1.210e-05  t[s]:   8134.04
	FillingsUpdate:  mu: +0.117905112  nElectrons: 345.000000  magneticMoment: [ Abs: 35.44537  Tot: +0.00000 ]
	SubspaceRotationAdjust: set factor to 4.41
ElecMinimize: Iter: 150  F: -1971.874593492088934  |grad|_K:  3.893e-06  alpha:  2.500e-02  linmin: -3.105e-05  t[s]:   8181.65
	FillingsUpdate:  mu: +0.118210128  nElectrons: 345.000000  magneticMoment: [ Abs: 35.44395  Tot: +0.00000 ]
	SubspaceRotationAdjust: set factor to 4.06
ElecMinimize: Iter: 151  F: -1971.874648124906571  |grad|_K:  3.939e-06  alpha:  2.004e-02  linmin:  3.069e-05  t[s]:   8229.12
	FillingsUpdate:  mu: +0.117787901  nElectrons: 345.000000  magneticMoment: [ Abs: 35.45327  Tot: +0.00000 ]
	SubspaceRotationAdjust: set factor to 5.42
ElecMinimize: Iter: 152  F: -1971.874703625049278  |grad|_K:  3.332e-06  alpha:  2.074e-02  linmin: -2.806e-05  t[s]:   8276.92
	FillingsUpdate:  mu: +0.117259954  nElectrons: 345.000000  magneticMoment: [ Abs: 35.46388  Tot: -0.00000 ]
	SubspaceRotationAdjust: set factor to 4.83
ElecMinimize: Iter: 153  F: -1971.874759321766760  |grad|_K:  3.872e-06  alpha:  2.801e-02  linmin: -4.031e-05  t[s]:   8324.27
	FillingsUpdate:  mu: +0.117524177  nElectrons: 345.000000  magneticMoment: [ Abs: 35.46010  Tot: -0.00000 ]
	SubspaceRotationAdjust: set factor to 4.27
ElecMinimize: Iter: 154  F: -1971.874800095535420  |grad|_K:  3.813e-06  alpha:  1.458e-02  linmin: -2.760e-05  t[s]:   8371.47
	FillingsUpdate:  mu: +0.117644986  nElectrons: 345.000000  magneticMoment: [ Abs: 35.46929  Tot: -0.00000 ]
	SubspaceRotationAdjust: set factor to 5.46
ElecMinimize: Iter: 155  F: -1971.874852603108138  |grad|_K:  3.128e-06  alpha:  2.016e-02  linmin: -1.727e-05  t[s]:   8418.72
	FillingsUpdate:  mu: +0.117832995  nElectrons: 345.000000  magneticMoment: [ Abs: 35.48062  Tot: +0.00000 ]
	SubspaceRotationAdjust: set factor to 4.42
ElecMinimize: Iter: 156  F: -1971.874890543984066  |grad|_K:  3.840e-06  alpha:  2.184e-02  linmin: -2.641e-05  t[s]:   8466.39
	FillingsUpdate:  mu: +0.118326310  nElectrons: 345.000000  magneticMoment: [ Abs: 35.47726  Tot: -0.00000 ]
	SubspaceRotationAdjust: set factor to 4.94
ElecMinimize: Iter: 157  F: -1971.874928300103193  |grad|_K:  3.109e-06  alpha:  1.422e-02  linmin: -1.599e-06  t[s]:   8514.44
	FillingsUpdate:  mu: +0.118272810  nElectrons: 345.000000  magneticMoment: [ Abs: 35.48058  Tot: -0.00000 ]
	SubspaceRotationAdjust: set factor to 4.69
ElecMinimize: Iter: 158  F: -1971.874976308155055  |grad|_K:  3.264e-06  alpha:  2.834e-02  linmin: -2.117e-06  t[s]:   8562.23
	FillingsUpdate:  mu: +0.117821852  nElectrons: 345.000000  magneticMoment: [ Abs: 35.48946  Tot: -0.00000 ]
	SubspaceRotationAdjust: set factor to 3.92
ElecMinimize: Iter: 159  F: -1971.875008032104461  |grad|_K:  3.488e-06  alpha:  1.729e-02  linmin:  7.204e-06  t[s]:   8609.98
	FillingsUpdate:  mu: +0.117666323  nElectrons: 345.000000  magneticMoment: [ Abs: 35.48537  Tot: -0.00000 ]
	SubspaceRotationAdjust: set factor to 4.73
ElecMinimize: Iter: 160  F: -1971.875050108573760  |grad|_K:  2.871e-06  alpha:  1.988e-02  linmin:  3.206e-05  t[s]:   8658.89
	FillingsUpdate:  mu: +0.117686277  nElectrons: 345.000000  magneticMoment: [ Abs: 35.48345  Tot: -0.00000 ]
	SubspaceRotationAdjust: set factor to 3.83
ElecMinimize: Iter: 161  F: -1971.875093624954843  |grad|_K:  3.538e-06  alpha:  3.072e-02  linmin:  4.204e-05  t[s]:   8707.03
	FillingsUpdate:  mu: +0.117346574  nElectrons: 345.000000  magneticMoment: [ Abs: 35.49292  Tot: +0.00000 ]
	SubspaceRotationAdjust: set factor to 4.35
ElecMinimize: Iter: 162  F: -1971.875124660688925  |grad|_K:  2.938e-06  alpha:  1.491e-02  linmin:  4.130e-05  t[s]:   8754.97
	FillingsUpdate:  mu: +0.117590377  nElectrons: 345.000000  magneticMoment: [ Abs: 35.49478  Tot: +0.00000 ]
	SubspaceRotationAdjust: set factor to 5.18
ElecMinimize: Iter: 163  F: -1971.875168488610370  |grad|_K:  2.911e-06  alpha:  2.960e-02  linmin:  7.202e-06  t[s]:   8803.14
	FillingsUpdate:  mu: +0.118065833  nElectrons: 345.000000  magneticMoment: [ Abs: 35.48819  Tot: +0.00000 ]
	SubspaceRotationAdjust: set factor to 4.14
ElecMinimize: Iter: 164  F: -1971.875201844457024  |grad|_K:  3.634e-06  alpha:  2.243e-02  linmin:  6.231e-06  t[s]:   8851.05
	FillingsUpdate:  mu: +0.117904122  nElectrons: 345.000000  magneticMoment: [ Abs: 35.49232  Tot: +0.00000 ]
	SubspaceRotationAdjust: set factor to 5.69
ElecMinimize: Iter: 165  F: -1971.875236949869532  |grad|_K:  2.683e-06  alpha:  1.542e-02  linmin: -2.037e-06  t[s]:   8899.55
	FillingsUpdate:  mu: +0.117699636  nElectrons: 345.000000  magneticMoment: [ Abs: 35.49177  Tot: -0.00000 ]
	SubspaceRotationAdjust: set factor to 5.55
ElecMinimize: Iter: 166  F: -1971.875273574915127  |grad|_K:  3.164e-06  alpha:  2.893e-02  linmin: -1.270e-05  t[s]:   8947.96
	FillingsUpdate:  mu: +0.117883047  nElectrons: 345.000000  magneticMoment: [ Abs: 35.48137  Tot: -0.00000 ]
	SubspaceRotationAdjust: set factor to 5.44
ElecMinimize: Iter: 167  F: -1971.875296364525866  |grad|_K:  3.001e-06  alpha:  1.261e-02  linmin: -2.153e-05  t[s]:   8996.12
	FillingsUpdate:  mu: +0.117930165  nElectrons: 345.000000  magneticMoment: [ Abs: 35.47642  Tot: +0.00000 ]
	SubspaceRotationAdjust: set factor to 7.4
	SubspaceRotationAdjust: resetting CG because factor has changed by 7.98939
ElecMinimize: 	State modified externally: resetting search direction.
ElecMinimize: Iter: 168  F: -1971.875331512176217  |grad|_K:  2.848e-06  alpha:  2.195e-02
	FillingsUpdate:  mu: +0.117808044  nElectrons: 345.000000  magneticMoment: [ Abs: 35.49275  Tot: +0.00000 ]
	SubspaceRotationAdjust: set factor to 4.17
ElecMinimize: Iter: 169  F: -1971.875372483861156  |grad|_K:  6.023e-06  alpha:  2.859e-02  linmin: -1.311e-04  t[s]:   9113.78
	FillingsUpdate:  mu: +0.117898917  nElectrons: 345.000000  magneticMoment: [ Abs: 35.48409  Tot: -0.00000 ]
	SubspaceRotationAdjust: set factor to 2.42
ElecMinimize: Iter: 170  F: -1971.875546896344304  |grad|_K:  4.312e-06  alpha:  2.659e-02  linmin:  4.202e-05  t[s]:   9161.20
	FillingsUpdate:  mu: +0.118048699  nElectrons: 345.000000  magneticMoment: [ Abs: 35.48074  Tot: +0.00000 ]
	SubspaceRotationAdjust: set factor to 1.49
ElecMinimize: Iter: 171  F: -1971.875673239790331  |grad|_K:  3.400e-06  alpha:  3.872e-02  linmin: -1.732e-04  t[s]:   9208.71
	FillingsUpdate:  mu: +0.117943272  nElectrons: 345.000000  magneticMoment: [ Abs: 35.46437  Tot: +0.00000 ]
	SubspaceRotationAdjust: set factor to 0.99
	SubspaceRotationAdjust: resetting CG because factor has changed by 0.133668
ElecMinimize: 	State modified externally: resetting search direction.
ElecMinimize: Iter: 172  F: -1971.875749525552919  |grad|_K:  2.062e-06  alpha:  3.640e-02
	FillingsUpdate:  mu: +0.117564856  nElectrons: 345.000000  magneticMoment: [ Abs: 35.48082  Tot: -0.00000 ]
	SubspaceRotationAdjust: set factor to 0.79
ElecMinimize: Iter: 173  F: -1971.875799587290203  |grad|_K:  1.867e-06  alpha:  6.630e-02  linmin: -5.071e-04  t[s]:   9325.59
	FillingsUpdate:  mu: +0.118029024  nElectrons: 345.000000  magneticMoment: [ Abs: 35.47535  Tot: -0.00000 ]
	SubspaceRotationAdjust: set factor to 0.615
ElecMinimize: Iter: 174  F: -1971.875899987245248  |grad|_K:  1.531e-06  alpha:  1.603e-01  linmin:  7.820e-05  t[s]:   9373.23
	FillingsUpdate:  mu: +0.118659424  nElectrons: 345.000000  magneticMoment: [ Abs: 35.46463  Tot: +0.00000 ]
	SubspaceRotationAdjust: set factor to 0.476
ElecMinimize: Iter: 175  F: -1971.876011866245108  |grad|_K:  1.620e-06  alpha:  2.750e-01  linmin: -9.570e-06  t[s]:   9421.09
	FillingsUpdate:  mu: +0.118105158  nElectrons: 345.000000  magneticMoment: [ Abs: 35.45927  Tot: +0.00000 ]
	SubspaceRotationAdjust: set factor to 0.386
ElecMinimize: Iter: 176  F: -1971.876087201971359  |grad|_K:  1.039e-06  alpha:  1.638e-01  linmin: -1.772e-06  t[s]:   9468.57
	FillingsUpdate:  mu: +0.117818049  nElectrons: 345.000000  magneticMoment: [ Abs: 35.46838  Tot: +0.00000 ]
	SubspaceRotationAdjust: set factor to 0.327
ElecMinimize: Iter: 177  F: -1971.876122285124893  |grad|_K:  7.740e-07  alpha:  1.855e-01  linmin: -1.292e-04  t[s]:   9516.78
	FillingsUpdate:  mu: +0.118155108  nElectrons: 345.000000  magneticMoment: [ Abs: 35.46167  Tot: +0.00000 ]
	SubspaceRotationAdjust: set factor to 0.265
ElecMinimize: Iter: 178  F: -1971.876141802335724  |grad|_K:  5.316e-07  alpha:  1.848e-01  linmin:  6.188e-05  t[s]:   9565.04
	FillingsUpdate:  mu: +0.118055897  nElectrons: 345.000000  magneticMoment: [ Abs: 35.45788  Tot: +0.00000 ]
	SubspaceRotationAdjust: set factor to 0.334
ElecMinimize: Iter: 179  F: -1971.876160756706895  |grad|_K:  4.578e-07  alpha:  3.848e-01  linmin:  1.065e-05  t[s]:   9613.34
	FillingsUpdate:  mu: +0.117732682  nElectrons: 345.000000  magneticMoment: [ Abs: 35.45953  Tot: +0.00000 ]
	SubspaceRotationAdjust: set factor to 0.316
ElecMinimize: Iter: 180  F: -1971.876171092411369  |grad|_K:  3.877e-07  alpha:  2.824e-01  linmin: -1.182e-05  t[s]:   9661.45
	FillingsUpdate:  mu: +0.117913597  nElectrons: 345.000000  magneticMoment: [ Abs: 35.45494  Tot: -0.00000 ]
	SubspaceRotationAdjust: set factor to 0.308
ElecMinimize: Iter: 181  F: -1971.876177610970217  |grad|_K:  3.226e-07  alpha:  2.476e-01  linmin:  3.096e-05  t[s]:   9709.22
	FillingsUpdate:  mu: +0.118006098  nElectrons: 345.000000  magneticMoment: [ Abs: 35.45368  Tot: +0.00000 ]
	SubspaceRotationAdjust: set factor to 0.316
ElecMinimize: Iter: 182  F: -1971.876183479610290  |grad|_K:  3.116e-07  alpha:  3.226e-01  linmin: -4.629e-05  t[s]:   9757.00
	FillingsUpdate:  mu: +0.117891227  nElectrons: 345.000000  magneticMoment: [ Abs: 35.45071  Tot: -0.00000 ]
	SubspaceRotationAdjust: set factor to 0.342
ElecMinimize: Iter: 183  F: -1971.876190158846612  |grad|_K:  3.035e-07  alpha:  3.921e-01  linmin:  2.682e-05  t[s]:   9805.03
	FillingsUpdate:  mu: +0.117978638  nElectrons: 345.000000  magneticMoment: [ Abs: 35.44553  Tot: -0.00000 ]
	SubspaceRotationAdjust: set factor to 0.368
ElecMinimize: Iter: 184  F: -1971.876196709108854  |grad|_K:  3.279e-07  alpha:  4.082e-01  linmin:  3.196e-05  t[s]:   9852.42
	FillingsUpdate:  mu: +0.117976439  nElectrons: 345.000000  magneticMoment: [ Abs: 35.44537  Tot: -0.00000 ]
	SubspaceRotationAdjust: set factor to 0.307
ElecMinimize: Iter: 185  F: -1971.876201874391882  |grad|_K:  3.480e-07  alpha:  2.790e-01  linmin: -5.554e-06  t[s]:   9900.10
	FillingsUpdate:  mu: +0.118022326  nElectrons: 345.000000  magneticMoment: [ Abs: 35.44023  Tot: -0.00000 ]
	SubspaceRotationAdjust: set factor to 0.275
ElecMinimize: Iter: 186  F: -1971.876208331763792  |grad|_K:  3.071e-07  alpha:  3.052e-01  linmin:  7.853e-05  t[s]:   9947.39
	FillingsUpdate:  mu: +0.117798605  nElectrons: 345.000000  magneticMoment: [ Abs: 35.43863  Tot: +0.00000 ]
	SubspaceRotationAdjust: set factor to 0.288
ElecMinimize: Iter: 187  F: -1971.876214580711121  |grad|_K:  3.006e-07  alpha:  3.838e-01  linmin: -5.044e-06  t[s]:   9994.77
	FillingsUpdate:  mu: +0.117886233  nElectrons: 345.000000  magneticMoment: [ Abs: 35.43540  Tot: +0.00000 ]
	SubspaceRotationAdjust: set factor to 0.307
ElecMinimize: Iter: 188  F: -1971.876220770260716  |grad|_K:  2.811e-07  alpha:  3.914e-01  linmin: -5.416e-05  t[s]:  10042.37
	FillingsUpdate:  mu: +0.118024956  nElectrons: 345.000000  magneticMoment: [ Abs: 35.43188  Tot: +0.00000 ]
	SubspaceRotationAdjust: set factor to 0.313
ElecMinimize: Iter: 189  F: -1971.876226053915161  |grad|_K:  2.793e-07  alpha:  3.796e-01  linmin:  7.954e-05  t[s]:  10089.81
	FillingsUpdate:  mu: +0.117893155  nElectrons: 345.000000  magneticMoment: [ Abs: 35.43336  Tot: +0.00000 ]
	SubspaceRotationAdjust: set factor to 0.268
ElecMinimize: Iter: 190  F: -1971.876229850443679  |grad|_K:  2.511e-07  alpha:  2.817e-01  linmin: -2.556e-05  t[s]:  10137.56
	FillingsUpdate:  mu: +0.117960486  nElectrons: 345.000000  magneticMoment: [ Abs: 35.43064  Tot: -0.00000 ]
	SubspaceRotationAdjust: set factor to 0.273
ElecMinimize: Iter: 191  F: -1971.876233374128788  |grad|_K:  2.010e-07  alpha:  3.192e-01  linmin:  5.094e-05  t[s]:  10185.17
	FillingsUpdate:  mu: +0.117989278  nElectrons: 345.000000  magneticMoment: [ Abs: 35.42982  Tot: -0.00000 ]
	SubspaceRotationAdjust: set factor to 0.308
ElecMinimize: Iter: 192  F: -1971.876235853569597  |grad|_K:  1.676e-07  alpha:  3.529e-01  linmin: -1.279e-05  t[s]:  10232.65
	FillingsUpdate:  mu: +0.117915942  nElectrons: 345.000000  magneticMoment: [ Abs: 35.43052  Tot: +0.00000 ]
	SubspaceRotationAdjust: set factor to 0.318
ElecMinimize: Iter: 193  F: -1971.876237509485691  |grad|_K:  1.409e-07  alpha:  3.364e-01  linmin: -6.155e-06  t[s]:  10280.25
	FillingsUpdate:  mu: +0.117959691  nElectrons: 345.000000  magneticMoment: [ Abs: 35.42958  Tot: +0.00000 ]
[...]
	FillingsUpdate:  mu: +0.120139802  nElectrons: 345.000000  magneticMoment: [ Abs: 35.84808  Tot: +0.00000 ]
	SubspaceRotationAdjust: set factor to 0.35
ElecMinimize: Iter:   6  F: -1971.894676754641523  |grad|_K:  4.169e-06  alpha:  4.131e-01  linmin: -5.068e-06  t[s]:  40720.85
	FillingsUpdate:  mu: +0.121953695  nElectrons: 345.000000  magneticMoment: [ Abs: 35.86106  Tot: +0.00000 ]
	SubspaceRotationAdjust: set factor to 0.237
ElecMinimize: Iter:   7  F: -1971.895305286405119  |grad|_K:  2.849e-06  alpha:  2.064e-01  linmin:  2.437e-05  t[s]:  40769.17
	FillingsUpdate:  mu: +0.122947792  nElectrons: 345.000000  magneticMoment: [ Abs: 35.84923  Tot: +0.00000 ]
	SubspaceRotationAdjust: set factor to 0.226
ElecMinimize: Iter:   8  F: -1971.895721613100022  |grad|_K:  1.596e-06  alpha:  2.941e-01  linmin:  3.341e-05  t[s]:  40816.85
	FillingsUpdate:  mu: +0.122777338  nElectrons: 345.000000  magneticMoment: [ Abs: 35.85113  Tot: +0.00000 ]
	SubspaceRotationAdjust: set factor to 0.264
ElecMinimize: Iter:   9  F: -1971.895859791075736  |grad|_K:  1.067e-06  alpha:  3.109e-01  linmin: -1.092e-06  t[s]:  40864.89
	FillingsUpdate:  mu: +0.122702543  nElectrons: 345.000000  magneticMoment: [ Abs: 35.85295  Tot: -0.00000 ]
	SubspaceRotationAdjust: set factor to 0.285
ElecMinimize: Iter:  10  F: -1971.895920093279074  |grad|_K:  7.479e-07  alpha:  3.027e-01  linmin: -7.472e-07  t[s]:  40912.66
	FillingsUpdate:  mu: +0.122947808  nElectrons: 345.000000  magneticMoment: [ Abs: 35.84982  Tot: -0.00000 ]
	SubspaceRotationAdjust: set factor to 0.295
ElecMinimize: Iter:  11  F: -1971.895954688820666  |grad|_K:  5.684e-07  alpha:  3.537e-01  linmin:  4.691e-06  t[s]:  40960.29
	FillingsUpdate:  mu: +0.122809090  nElectrons: 345.000000  magneticMoment: [ Abs: 35.85176  Tot: -0.00000 ]
	SubspaceRotationAdjust: set factor to 0.31
ElecMinimize: Iter:  12  F: -1971.895975425688448  |grad|_K:  4.874e-07  alpha:  3.671e-01  linmin: -1.893e-06  t[s]:  41007.85
	FillingsUpdate:  mu: +0.122871305  nElectrons: 345.000000  magneticMoment: [ Abs: 35.85051  Tot: +0.00000 ]
	SubspaceRotationAdjust: set factor to 0.353
ElecMinimize: Iter:  13  F: -1971.895990707678038  |grad|_K:  3.776e-07  alpha:  3.677e-01  linmin:  9.763e-07  t[s]:  41055.82
	FillingsUpdate:  mu: +0.122947016  nElectrons: 345.000000  magneticMoment: [ Abs: 35.84960  Tot: -0.00000 ]
	SubspaceRotationAdjust: set factor to 0.402
ElecMinimize: Iter:  14  F: -1971.896000469955879  |grad|_K:  3.037e-07  alpha:  3.915e-01  linmin:  5.701e-07  t[s]:  41103.16
	FillingsUpdate:  mu: +0.122812611  nElectrons: 345.000000  magneticMoment: [ Abs: 35.85026  Tot: -0.00000 ]
	SubspaceRotationAdjust: set factor to 0.435
ElecMinimize: Iter:  15  F: -1971.896005954331940  |grad|_K:  2.310e-07  alpha:  3.399e-01  linmin:  2.110e-08  t[s]:  41150.33
	FillingsUpdate:  mu: +0.122902972  nElectrons: 345.000000  magneticMoment: [ Abs: 35.84866  Tot: +0.00000 ]
	SubspaceRotationAdjust: set factor to 0.393
ElecMinimize: Iter:  16  F: -1971.896009052843510  |grad|_K:  2.176e-07  alpha:  3.321e-01  linmin: -1.117e-06  t[s]:  41198.01
	FillingsUpdate:  mu: +0.122872470  nElectrons: 345.000000  magneticMoment: [ Abs: 35.84927  Tot: -0.00000 ]
	SubspaceRotationAdjust: set factor to 0.322
ElecMinimize: Iter:  17  F: -1971.896011055236613  |grad|_K:  1.923e-07  alpha:  2.416e-01  linmin:  8.232e-07  t[s]:  41245.50
	FillingsUpdate:  mu: +0.122838203  nElectrons: 345.000000  magneticMoment: [ Abs: 35.84881  Tot: -0.00000 ]
	SubspaceRotationAdjust: set factor to 0.344
ElecMinimize: Iter:  18  F: -1971.896013202061567  |grad|_K:  1.671e-07  alpha:  3.322e-01  linmin: -1.507e-06  t[s]:  41293.04
	FillingsUpdate:  mu: +0.122874880  nElectrons: 345.000000  magneticMoment: [ Abs: 35.84808  Tot: +0.00000 ]
	SubspaceRotationAdjust: set factor to 0.41
ElecMinimize: Iter:  19  F: -1971.896015344736952  |grad|_K:  1.651e-07  alpha:  4.384e-01  linmin: -7.624e-06  t[s]:  41340.57
	FillingsUpdate:  mu: +0.122848429  nElectrons: 345.000000  magneticMoment: [ Abs: 35.84822  Tot: +0.00000 ]
	SubspaceRotationAdjust: set factor to 0.408
ElecMinimize: Iter:  20  F: -1971.896017220252133  |grad|_K:  1.819e-07  alpha:  3.931e-01  linmin:  8.118e-06  t[s]:  41388.24
	FillingsUpdate:  mu: +0.122844858  nElectrons: 345.000000  magneticMoment: [ Abs: 35.84728  Tot: +0.00000 ]
	SubspaceRotationAdjust: set factor to 0.33
ElecMinimize: Iter:  21  F: -1971.896018776568098  |grad|_K:  1.739e-07  alpha:  2.694e-01  linmin: -1.048e-06  t[s]:  41436.27
	FillingsUpdate:  mu: +0.122831057  nElectrons: 345.000000  magneticMoment: [ Abs: 35.84727  Tot: +0.00000 ]
	SubspaceRotationAdjust: set factor to 0.339
ElecMinimize: Iter:  22  F: -1971.896020481430696  |grad|_K:  1.375e-07  alpha:  3.226e-01  linmin:  8.572e-06  t[s]:  41483.56
	FillingsUpdate:  mu: +0.122847404  nElectrons: 345.000000  magneticMoment: [ Abs: 35.84690  Tot: +0.00000 ]
	SubspaceRotationAdjust: set factor to 0.396
ElecMinimize: Iter:  23  F: -1971.896021723619469  |grad|_K:  1.136e-07  alpha:  3.759e-01  linmin: -4.891e-06  t[s]:  41531.62
	FillingsUpdate:  mu: +0.122831821  nElectrons: 345.000000  magneticMoment: [ Abs: 35.84664  Tot: -0.00000 ]
	SubspaceRotationAdjust: set factor to 0.384
ElecMinimize: Iter:  24  F: -1971.896022439937042  |grad|_K:  9.890e-08  alpha:  3.173e-01  linmin: -1.640e-06  t[s]:  41579.53
	FillingsUpdate:  mu: +0.122816758  nElectrons: 345.000000  magneticMoment: [ Abs: 35.84699  Tot: -0.00000 ]
	SubspaceRotationAdjust: set factor to 0.318
ElecMinimize: Iter:  25  F: -1971.896022877995165  |grad|_K:  8.650e-08  alpha:  2.560e-01  linmin:  7.554e-07  t[s]:  41627.20
	FillingsUpdate:  mu: +0.122837924  nElectrons: 345.000000  magneticMoment: [ Abs: 35.84660  Tot: -0.00000 ]
	SubspaceRotationAdjust: set factor to 0.337
ElecMinimize: Iter:  26  F: -1971.896023283369914  |grad|_K:  6.945e-08  alpha:  3.099e-01  linmin: -1.071e-06  t[s]:  41675.17
	FillingsUpdate:  mu: +0.122817804  nElectrons: 345.000000  magneticMoment: [ Abs: 35.84670  Tot: -0.00000 ]
	SubspaceRotationAdjust: set factor to 0.407
ElecMinimize: Iter:  27  F: -1971.896023632838933  |grad|_K:  6.690e-08  alpha:  4.141e-01  linmin: -2.280e-07  t[s]:  41723.11
	FillingsUpdate:  mu: +0.122807990  nElectrons: 345.000000  magneticMoment: [ Abs: 35.84695  Tot: -0.00000 ]
	SubspaceRotationAdjust: set factor to 0.417
ElecMinimize: Iter:  28  F: -1971.896023937349128  |grad|_K:  7.355e-08  alpha:  3.888e-01  linmin:  9.796e-07  t[s]:  41771.12
ElecMinimize: Converged (|Delta F|<1.000000e-06 for 5 iters).
Setting wave functions to eigenvectors of Hamiltonian
IonicMinimize: 	Wolfe criterion not satisfied: alpha: 1  (E-E0)/|gdotd0|: 2.21878  gdotd/gdotd0: -5.40602 (taking cubic step)

-------- Electronic minimization -----------
	FillingsUpdate:  mu: +0.120138147  nElectrons: 345.000000  magneticMoment: [ Abs: 35.84138  Tot: -0.00000 ]
ElecMinimize: Iter:   0  F: -1971.842398581031603  |grad|_K:  3.929e-05  alpha:  1.000e+00
	FillingsUpdate:  mu: +0.122250199  nElectrons: 345.000000  magneticMoment: [ Abs: 35.85744  Tot: +0.00000 ]
	SubspaceRotationAdjust: set factor to 0.41
ElecMinimize: Iter:   1  F: -1971.893669130021863  |grad|_K:  6.540e-06  alpha:  1.918e-01  linmin:  3.133e-03  t[s]:  41871.60
	FillingsUpdate:  mu: +0.120498444  nElectrons: 345.000000  magneticMoment: [ Abs: 35.84305  Tot: -0.00000 ]
	SubspaceRotationAdjust: set factor to 0.36
ElecMinimize: Iter:   2  F: -1971.895415667242105  |grad|_K:  3.847e-06  alpha:  2.357e-01  linmin: -3.789e-05  t[s]:  41918.85
	FillingsUpdate:  mu: +0.121163190  nElectrons: 345.000000  magneticMoment: [ Abs: 35.85419  Tot: +0.00000 ]
	SubspaceRotationAdjust: set factor to 0.241
ElecMinimize: Iter:   3  F: -1971.895940377447914  |grad|_K:  2.437e-06  alpha:  2.026e-01  linmin:  1.020e-05  t[s]:  41966.87
	FillingsUpdate:  mu: +0.122210325  nElectrons: 345.000000  magneticMoment: [ Abs: 35.84784  Tot: -0.00000 ]
	SubspaceRotationAdjust: set factor to 0.212
ElecMinimize: Iter:   4  F: -1971.896188892500049  |grad|_K:  1.577e-06  alpha:  2.394e-01  linmin:  1.213e-05  t[s]:  42014.31
	FillingsUpdate:  mu: +0.122231570  nElectrons: 345.000000  magneticMoment: [ Abs: 35.84974  Tot: +0.00000 ]
	SubspaceRotationAdjust: set factor to 0.261
ElecMinimize: Iter:   5  F: -1971.896321407821688  |grad|_K:  1.188e-06  alpha:  3.049e-01  linmin:  5.037e-07  t[s]:  42061.97
	FillingsUpdate:  mu: +0.122223027  nElectrons: 345.000000  magneticMoment: [ Abs: 35.85387  Tot: +0.00000 ]
	SubspaceRotationAdjust: set factor to 0.26
ElecMinimize: Iter:   6  F: -1971.896391452839453  |grad|_K:  8.565e-07  alpha:  2.837e-01  linmin: -4.764e-06  t[s]:  42109.42
	FillingsUpdate:  mu: +0.122387145  nElectrons: 345.000000  magneticMoment: [ Abs: 35.85268  Tot: +0.00000 ]
	SubspaceRotationAdjust: set factor to 0.29
ElecMinimize: Iter:   7  F: -1971.896437397956106  |grad|_K:  6.585e-07  alpha:  3.580e-01  linmin: -7.023e-07  t[s]:  42156.98
	FillingsUpdate:  mu: +0.122441583  nElectrons: 345.000000  magneticMoment: [ Abs: 35.85335  Tot: -0.00000 ]
	SubspaceRotationAdjust: set factor to 0.345
ElecMinimize: Iter:   8  F: -1971.896462427322831  |grad|_K:  5.517e-07  alpha:  3.301e-01  linmin: -3.638e-07  t[s]:  42204.64
	FillingsUpdate:  mu: +0.122413016  nElectrons: 345.000000  magneticMoment: [ Abs: 35.85499  Tot: +0.00000 ]
	SubspaceRotationAdjust: set factor to 0.389
ElecMinimize: Iter:   9  F: -1971.896479442693362  |grad|_K:  4.513e-07  alpha:  3.196e-01  linmin: -1.106e-06  t[s]:  42251.99
	FillingsUpdate:  mu: +0.122437901  nElectrons: 345.000000  magneticMoment: [ Abs: 35.85455  Tot: +0.00000 ]
	SubspaceRotationAdjust: set factor to 0.382
ElecMinimize: Iter:  10  F: -1971.896490641244327  |grad|_K:  3.868e-07  alpha:  3.143e-01  linmin: -2.245e-07  t[s]:  42300.43
	FillingsUpdate:  mu: +0.122422096  nElectrons: 345.000000  magneticMoment: [ Abs: 35.85595  Tot: +0.00000 ]
	SubspaceRotationAdjust: set factor to 0.34
ElecMinimize: Iter:  11  F: -1971.896497918454997  |grad|_K:  3.043e-07  alpha:  2.781e-01  linmin: -8.848e-07  t[s]:  42348.15
	FillingsUpdate:  mu: +0.122454011  nElectrons: 345.000000  magneticMoment: [ Abs: 35.85579  Tot: -0.00000 ]
	SubspaceRotationAdjust: set factor to 0.34
ElecMinimize: Iter:  12  F: -1971.896502401380985  |grad|_K:  2.269e-07  alpha:  2.768e-01  linmin: -4.619e-08  t[s]:  42396.04
	FillingsUpdate:  mu: +0.122440824  nElectrons: 345.000000  magneticMoment: [ Abs: 35.85647  Tot: -0.00000 ]
	SubspaceRotationAdjust: set factor to 0.393
ElecMinimize: Iter:  13  F: -1971.896505350685857  |grad|_K:  1.772e-07  alpha:  3.276e-01  linmin: -2.838e-07  t[s]:  42443.84
	FillingsUpdate:  mu: +0.122439457  nElectrons: 345.000000  magneticMoment: [ Abs: 35.85692  Tot: +0.00000 ]
	SubspaceRotationAdjust: set factor to 0.45
ElecMinimize: Iter:  14  F: -1971.896507410815047  |grad|_K:  1.585e-07  alpha:  3.751e-01  linmin:  5.650e-07  t[s]:  42491.22
	FillingsUpdate:  mu: +0.122447844  nElectrons: 345.000000  magneticMoment: [ Abs: 35.85677  Tot: +0.00000 ]
	SubspaceRotationAdjust: set factor to 0.46
ElecMinimize: Iter:  15  F: -1971.896508760802362  |grad|_K:  1.544e-07  alpha:  3.072e-01  linmin: -1.515e-06  t[s]:  42538.45
	FillingsUpdate:  mu: +0.122424566  nElectrons: 345.000000  magneticMoment: [ Abs: 35.85765  Tot: +0.00000 ]
	SubspaceRotationAdjust: set factor to 0.421
ElecMinimize: Iter:  16  F: -1971.896509932702429  |grad|_K:  1.493e-07  alpha:  2.810e-01  linmin: -1.058e-06  t[s]:  42585.87
	FillingsUpdate:  mu: +0.122457694  nElectrons: 345.000000  magneticMoment: [ Abs: 35.85747  Tot: +0.00000 ]
	SubspaceRotationAdjust: set factor to 0.41
ElecMinimize: Iter:  17  F: -1971.896511081444260  |grad|_K:  1.340e-07  alpha:  2.948e-01  linmin: -4.124e-06  t[s]:  42633.25
	FillingsUpdate:  mu: +0.122450043  nElectrons: 345.000000  magneticMoment: [ Abs: 35.85797  Tot: +0.00000 ]
	SubspaceRotationAdjust: set factor to 0.436
ElecMinimize: Iter:  18  F: -1971.896512212850894  |grad|_K:  1.208e-07  alpha:  3.601e-01  linmin:  3.296e-06  t[s]:  42680.95
	FillingsUpdate:  mu: +0.122446605  nElectrons: 345.000000  magneticMoment: [ Abs: 35.85818  Tot: +0.00000 ]
	SubspaceRotationAdjust: set factor to 0.475
ElecMinimize: Iter:  19  F: -1971.896513102017707  |grad|_K:  9.758e-08  alpha:  3.487e-01  linmin: -8.450e-08  t[s]:  42728.78
	FillingsUpdate:  mu: +0.122464058  nElectrons: 345.000000  magneticMoment: [ Abs: 35.85825  Tot: +0.00000 ]
	SubspaceRotationAdjust: set factor to 0.512
ElecMinimize: Iter:  20  F: -1971.896513697652608  |grad|_K:  8.040e-08  alpha:  3.577e-01  linmin: -7.909e-07  t[s]:  42776.74
	FillingsUpdate:  mu: +0.122451763  nElectrons: 345.000000  magneticMoment: [ Abs: 35.85848  Tot: -0.00000 ]
	SubspaceRotationAdjust: set factor to 0.544
ElecMinimize: Iter:  21  F: -1971.896514056725437  |grad|_K:  6.778e-08  alpha:  3.177e-01  linmin:  1.646e-06  t[s]:  42823.78
	FillingsUpdate:  mu: +0.122468382  nElectrons: 345.000000  magneticMoment: [ Abs: 35.85823  Tot: +0.00000 ]
	SubspaceRotationAdjust: set factor to 0.501
ElecMinimize: Iter:  22  F: -1971.896514284613431  |grad|_K:  6.600e-08  alpha:  2.836e-01  linmin: -1.334e-06  t[s]:  42871.21
	FillingsUpdate:  mu: +0.122461281  nElectrons: 345.000000  magneticMoment: [ Abs: 35.85848  Tot: +0.00000 ]
	SubspaceRotationAdjust: set factor to 0.393
ElecMinimize: Iter:  23  F: -1971.896514431011155  |grad|_K:  5.599e-08  alpha:  1.919e-01  linmin: -4.557e-06  t[s]:  42918.67
ElecMinimize: Converged (|Delta F|<1.000000e-06 for 5 iters).
Setting wave functions to eigenvectors of Hamiltonian

# Ionic positions in lattice coordinates:
ion Ni   0.000064552570828   0.000109214470096   0.160140995384067 1
ion Ni   0.500000000000000   0.000000000000000  -0.050000000000000 0
ion Ni   0.000000000000000   0.500000000000000  -0.050000000000000 0
ion Ni   0.250000000000000   0.250000000000000  -0.150000000000000 0
ion Ni   0.250000000000000   0.750000000000000  -0.150000000000000 0
ion Ni  -0.250000000000000   0.250000000000000  -0.150000000000000 0
ion V   0.499756513286673  -0.008080460144060   0.156749232618693 1
ion V  -0.006327904503776   0.498501083123842   0.160118908782302 1
ion V   0.493710222038448   0.494588075126608   0.155345332814185 1
ion V   0.252061165728055   0.240311832403937   0.053784580019879 1
ion V   0.251069477652045   0.746480896663430   0.052887807042123 1
ion V  -0.239661965024025   0.239281534280120   0.050151981775617 1
ion V  -0.245959733224121   0.739835353781063   0.051712164416579 1
ion V   0.000000000000000   0.000000000000000  -0.050000000000000 0
ion V   0.500000000000000   0.500000000000000  -0.050000000000000 0
ion Co  -0.250000000000000   0.750000000000000  -0.150000000000000 0
ion O   0.248022810127599   0.241228709487170   0.155217554384024 1
ion O   0.257210815273531   0.742789836870288   0.154676318291973 1
ion O  -0.264327699998279   0.245307316886550   0.145349102446257 1
ion O  -0.262054351579494   0.743049821557165   0.151860583842710 1
ion O  -0.007924936855518  -0.003120290967846   0.054756396203116 1
ion O   0.508694304440086  -0.004590941240358   0.054463485569785 1
ion O   0.002762485071199   0.489556789279850   0.054272537653327 1
ion O   0.510475001854867   0.483361226566829   0.054599513149402 1
ion O   0.250000000000000   0.250000000000000  -0.050000000000000 0
ion O   0.250000000000000   0.750000000000000  -0.050000000000000 0
ion O  -0.250000000000000   0.250000000000000  -0.050000000000000 0
ion O  -0.250000000000000   0.750000000000000  -0.050000000000000 0
ion O   0.000000000000000   0.000000000000000  -0.150000000000000 0
ion O   0.500000000000000   0.000000000000000  -0.150000000000000 0
ion O   0.000000000000000   0.500000000000000  -0.150000000000000 0
ion O   0.500000000000000   0.500000000000000  -0.150000000000000 0
ion O  -0.043392376625349  -0.009821673445981   0.246552139868615 1
ion H   0.072950679367933   0.068552548825835   0.267899358088047 1

# Forces in Lattice coordinates:
force Ni  -0.004999608050804  -0.007683777635420  -0.020844835557639 1
force Ni  -0.017549089036484  -0.017054982248433  -0.763422877467584 0
force Ni   0.054391288135308  -0.005716665251706  -0.695131957493526 0
force Ni   0.005546382517661   0.008693995273254   0.222931622869358 0
force Ni   0.006527985360708  -0.008965083430046   0.199293412878961 0
force Ni   0.008145849497812  -0.004214008393868   0.137963139614925 0
force V  -0.000719126128781   0.000603316388359  -0.009133353420721 1
force V  -0.000816966419510  -0.001717933098116  -0.010451436406790 1
force V  -0.000138148980916  -0.000292634305665   0.012793034279491 1
force V  -0.000276852803287  -0.000267861174404  -0.010935450910231 1
force V   0.000423973636777  -0.000705464990716   0.003954301381046 1
force V   0.002605985222320   0.003296246765686  -0.016450015715685 1
force V   0.004825208287582  -0.001506958826759   0.004629820977482 1
force V   0.022767158466857   0.049656587782792  -0.528437273986119 0
force V  -0.012421860610420  -0.017595090287068  -0.761071221435448 0
force Co   0.011600373749895  -0.022697105455583  -0.354663349724243 0
force O  -0.003949279268094  -0.007399337945719   0.030843517585220 1
force O  -0.003528563487064   0.001831915405527  -0.001461614991637 1
force O  -0.000316462948721  -0.005004329997025   0.015205004100030 1
force O   0.004799283627065   0.000607069909840  -0.026725792205845 1
force O   0.000191560055159  -0.007370506461909   0.002767272346218 1
force O  -0.001701263795058  -0.002682685028832  -0.004888969137003 1
force O   0.001799030860897  -0.005988871923064   0.020702393224754 1
force O   0.002649035520433  -0.000704150674104  -0.014677969575404 1
force O   0.000668911562363  -0.006608128731279   0.207801796213114 0
force O  -0.026141184527359   0.028747532547691   0.236050058094989 0
force O   0.012706583830426  -0.072922215268670   0.486021085197493 0
force O  -0.005707993916869   0.071768887616025   0.329500668582239 0
force O  -0.023225137563448   0.041986088976364   0.233911387024181 0
force O   0.003794764585317   0.040998530292472   0.477440690019369 0
force O   0.000511272748447  -0.036139004087991   0.412767006566504 0
force O  -0.024151689441292  -0.029340965350953   0.148658032020478 0
force O  -0.001288918883045   0.005576483573430   0.054791871434864 1
force H  -0.010922218972825  -0.011276259904631  -0.039142685682714 1

# Energy components:
   Eewald =     5169.2822142342047300
       EH =     6947.2159911713142719
     Eloc =   -14267.6636069704964029
      Enl =     -488.6429948185188437
   Epulay =       -0.0004881597488533
      Exc =     -242.6612241219038992
       KE =      909.1353941152200377
        U =        1.4389328836704860
-------------------------------------
     Etot =    -1971.8957816662591540
       TS =        0.0007327647521151
-------------------------------------
        F =    -1971.8965144310111555

IonicMinimize: Iter:  20  F: -1971.896514431011155  |grad|_K:  4.301e-04  alpha:  1.542e-01  linmin: -1.283e-02  t[s]:  42934.86
IonicMinimize: Converged (|Delta F|<1.000000e-04 for 3 iters).

#--- Lowdin population analysis ---
# oxidation-state Ni +3.617 +3.456 +3.415 +3.813 +3.757 +3.807
# magnetic-moments Ni -0.037 +0.863 -0.819 -1.037 -0.949 +1.003
# oxidation-state V +1.210 +1.127 +1.141 +0.993 +1.007 +1.184 +0.999 +1.047 +1.003
# magnetic-moments V -2.642 +2.936 -2.695 +2.878 +2.898 -2.312 -2.843 -2.698 +2.822
# oxidation-state Co +1.250
# magnetic-moments Co +2.698
# oxidation-state O -0.883 -0.892 -0.855 -0.878 -0.851 -0.873 -0.877 -0.899 -0.787 -0.788 -0.785 -0.835 -0.803 -0.735 -0.740 -0.797 -0.752
# magnetic-moments O -0.109 +0.077 +0.137 -0.025 +0.061 +0.063 -0.064 +0.020 -0.081 -0.056 +0.100 +0.074 +0.033 +0.161 -0.189 -0.110 +0.066
# oxidation-state H +0.369
# magnetic-moments H -0.001


Dumping 'run.ionpos' ... done
Dumping 'run.lattice' ... done
Dumping 'run.Ecomponents' ... done
End date and time: Wed May 21 00:45:56 2025  (Duration: 0-11:55:39.31)
Done!
