
*************** JDFTx 1.7.0  ***************

Start date and time: Sat May 17 10:40:50 2025
Executable /data2/jt577/jdftx_eat_withLibXC/build/jdftx with command-line: -i /data2/jt577/May_2025/Relax_Mag_litU/rel16+1_6/O/runs/calc_/run.in
Running on hosts (process indices):  node3403 (0-8)
Divided in process groups (process indices):  0 (0)  1 (1)  2 (2)  3 (3)  4 (4)  5 (5)  6 (6)  7 (7)  8 (8)
Resource initialization completed at t[s]:      0.00
Run totals: 9 processes, 90 threads, 0 GPUs


Input parsed successfully to the following command list (including defaults):

add-mix 
add-U 	Ni d 0.235196 \
	Co d 0.121273 \
	V d 0.113923 \
	Cr d 0.128623
basis kpoint-dependent
coords-type Lattice
core-overlap-check vector
coulomb-interaction Periodic
davidson-band-ratio 1.1
dump End IonicPositions Lattice Ecomponents
dump-name run.$VAR
elec-cutoff 30
elec-eigen-algo Davidson
elec-ex-corr gga-x-rpbe gga-c-pbe
elec-smearing Fermi 0.001
electronic-minimize  \
	dirUpdateScheme      FletcherReeves \
	linminMethod         DirUpdateRecommended \
	nIterations          1000 \
	history              15 \
	knormThreshold       0 \
	energyDiffThreshold  1e-06 \
	nEnergyDiff          5 \
	alphaTstart          1 \
	alphaTmin            1e-10 \
	updateTestStepSize   yes \
	alphaTreduceFactor   0.1 \
	alphaTincreaseFactor 3 \
	nAlphaAdjustMax      3 \
	wolfeEnergy          0.0001 \
	wolfeGradient        0.9 \
	fdTest               no
exchange-regularization WignerSeitzTruncated
fluid None
fluid-ex-corr (null) lda-PZ
fluid-gummel-loop 10 1.000000e-05
fluid-minimize  \
	dirUpdateScheme      PolakRibiere \
	linminMethod         DirUpdateRecommended \
	nIterations          100 \
	history              15 \
	knormThreshold       0 \
	energyDiffThreshold  0 \
	nEnergyDiff          2 \
	alphaTstart          1 \
	alphaTmin            1e-10 \
	updateTestStepSize   yes \
	alphaTreduceFactor   0.1 \
	alphaTincreaseFactor 3 \
	nAlphaAdjustMax      3 \
	wolfeEnergy          0.0001 \
	wolfeGradient        0.9 \
	fdTest               no
fluid-solvent H2O 55.338 ScalarEOS \
	epsBulk 78.4 \
	pMol 0.92466 \
	epsInf 1.77 \
	Pvap 1.06736e-10 \
	sigmaBulk 4.62e-05 \
	Rvdw 2.61727 \
	Res 1.42 \
	tauNuc 343133 \
	poleEl 15 7 1
forces-output-coords Positions
initial-magnetic-moments  \
	Ni 1 -1 1 1 \
	Co -1 -1 -1 -1 \
	V 1 1 1 -1 -1 1 1 \
	Cr -1
initial-state run.$VAR
ion Ni  0.000000000000000   0.000000000000000   0.150000000000000 1
ion Ni  0.500000000000000   0.500000000000000   0.150000000000000 1
ion Ni  0.250000000000000   0.250000000000000   0.050000000000000 1
ion Ni  0.250000000000000   0.750000000000000   0.050000000000000 1
ion Co  0.500000000000000   0.000000000000000   0.150000000000000 1
ion Co -0.250000000000000   0.250000000000000   0.050000000000000 1
ion Co -0.250000000000000   0.750000000000000   0.050000000000000 1
ion Co  0.000000000000000   0.000000000000000  -0.050000000000000 0
ion V  0.000000000000000   0.500000000000000   0.150000000000000 1
ion V  0.500000000000000   0.000000000000000  -0.050000000000000 0
ion V  0.500000000000000   0.500000000000000  -0.050000000000000 0
ion V  0.250000000000000   0.250000000000000  -0.150000000000000 0
ion V  0.250000000000000   0.750000000000000  -0.150000000000000 0
ion V -0.250000000000000   0.250000000000000  -0.150000000000000 0
ion V -0.250000000000000   0.750000000000000  -0.150000000000000 0
ion Cr  0.000000000000000   0.500000000000000  -0.050000000000000 0
ion O  0.250000000000000   0.250000000000000   0.150000000000000 1
ion O  0.250000000000000   0.750000000000000   0.150000000000000 1
ion O -0.250000000000000   0.250000000000000   0.150000000000000 1
ion O -0.250000000000000   0.750000000000000   0.150000000000000 1
ion O  0.000000000000000   0.000000000000000   0.050000000000000 1
ion O  0.500000000000000   0.000000000000000   0.050000000000000 1
ion O  0.000000000000000   0.500000000000000   0.050000000000000 1
ion O  0.500000000000000   0.500000000000000   0.050000000000000 1
ion O  0.250000000000000   0.250000000000000  -0.050000000000000 0
ion O  0.250000000000000   0.750000000000000  -0.050000000000000 0
ion O -0.250000000000000   0.250000000000000  -0.050000000000000 0
ion O -0.250000000000000   0.750000000000000  -0.050000000000000 0
ion O  0.000000000000000   0.000000000000000  -0.150000000000000 0
ion O  0.500000000000000   0.000000000000000  -0.150000000000000 0
ion O  0.000000000000000   0.500000000000000  -0.150000000000000 0
ion O  0.500000000000000   0.500000000000000  -0.150000000000000 0
ion O -0.000095572322686   0.000198307128402   0.224876729873325 1
ion-species SG15/$ID_ONCV_PBE.upf
ion-width 0
ionic-minimize  \
	dirUpdateScheme      L-BFGS \
	linminMethod         DirUpdateRecommended \
	nIterations          1000 \
	history              15 \
	knormThreshold       0.0001 \
	energyDiffThreshold  0.0001 \
	nEnergyDiff          3 \
	alphaTstart          1 \
	alphaTmin            1e-10 \
	updateTestStepSize   yes \
	alphaTreduceFactor   0.1 \
	alphaTincreaseFactor 3 \
	nAlphaAdjustMax      3 \
	wolfeEnergy          0.0001 \
	wolfeGradient        0.9 \
	fdTest               no
kpoint   0.500000000000   0.500000000000   0.500000000000  1.00000000000000
kpoint-folding 3 3 1 
latt-move-scale 1 1 1
latt-scale 1 1 1 
lattice  \
	   8.140000000000001    8.140000000000001    0.000000000000000  \
	   8.140000000000001   -8.140000000000001    0.000000000000000  \
	   0.000000000000000    0.000000000000000   40.700000000000003 
lattice-minimize  \
	dirUpdateScheme      L-BFGS \
	linminMethod         DirUpdateRecommended \
	nIterations          0 \
	history              15 \
	knormThreshold       0 \
	energyDiffThreshold  1e-06 \
	nEnergyDiff          2 \
	alphaTstart          1 \
	alphaTmin            1e-10 \
	updateTestStepSize   yes \
	alphaTreduceFactor   0.1 \
	alphaTincreaseFactor 3 \
	nAlphaAdjustMax      3 \
	wolfeEnergy          0.0001 \
	wolfeGradient        0.9 \
	fdTest               no
lcao-params -1 1e-06 0.001
pcm-variant GLSSA13
spintype z-spin
subspace-rotation-factor 1 yes
symmetries none
symmetry-threshold 0.0001


Applied RMS atom displacement 0 bohrs to make symmetries exact.

---------- Initializing the Grid ----------
R = 
[         8.14         8.14            0  ]
[         8.14        -8.14            0  ]
[            0            0         40.7  ]
unit cell volume = 5393.53
G =
[   0.385945   0.385945         -0  ]
[   0.385945  -0.385945         -0  ]
[         -0         -0   0.154378  ]
Minimum fftbox size, Smin = [  60  60  204  ]
Chosen fftbox size, S = [  60  60  210  ]

---------- Exchange Correlation functional ----------
Initialized LibXC exchange functional 'Hammer, Hansen, and Norskov'
Initialized LibXC correlation functional 'Perdew, Burke & Ernzerhof'

---------- Setting up pseudopotentials ----------
Width of ionic core gaussian charges (only for fluid interactions / plotting) set to 0

Reading pseudopotential file '/data2/jt577/jdftx_eat_withLibXC/build/pseudopotentials/SG15/Ni_ONCV_PBE.upf':
  'Ni' pseudopotential, 'PBE' functional
  Generated using ONCVPSP code by D. R. Hamann
  Author: Martin Schlipf and Francois Gygi  Date: 150915.
  18 valence electrons, 4 orbitals, 6 projectors, 1292 radial grid points, with lMax = 2
  Transforming local potential to a uniform radial grid of dG=0.02 with 1419 points.
  Transforming nonlocal projectors to a uniform radial grid of dG=0.02 with 528 points.
    3S    l: 0   occupation:  2.0   eigenvalue: -4.081355
    3P    l: 1   occupation:  6.0   eigenvalue: -2.623460
    4S    l: 0   occupation:  2.0   eigenvalue: -0.207378
    3D    l: 2   occupation:  8.0   eigenvalue: -0.326118
  Transforming atomic orbitals to a uniform radial grid of dG=0.02 with 528 points.
  WARNING: large normalization error in atomic orbital 1s (integral: 0.000006).
  Core radius for overlap checks: 1.99 bohrs.
  Reading pulay file /data2/jt577/jdftx_eat_withLibXC/build/pseudopotentials/SG15/Ni_ONCV_PBE.pulay ... using dE_dnG = -7.250568e-04 computed for Ecut = 30.

Reading pseudopotential file '/data2/jt577/jdftx_eat_withLibXC/build/pseudopotentials/SG15/Co_ONCV_PBE.upf':
  'Co' pseudopotential, 'PBE' functional
  Generated using ONCVPSP code by D. R. Hamann
  Author: Martin Schlipf and Francois Gygi  Date: 150915.
  17 valence electrons, 4 orbitals, 6 projectors, 1388 radial grid points, with lMax = 2
  Transforming local potential to a uniform radial grid of dG=0.02 with 1419 points.
  Transforming nonlocal projectors to a uniform radial grid of dG=0.02 with 528 points.
    3S    l: 0   occupation:  2.0   eigenvalue: -3.763303
    3P    l: 1   occupation:  6.0   eigenvalue: -2.412101
    4S    l: 0   occupation:  2.0   eigenvalue: -0.201022
    3D    l: 2   occupation:  7.0   eigenvalue: -0.301498
  Transforming atomic orbitals to a uniform radial grid of dG=0.02 with 528 points.
  Core radius for overlap checks: 1.94 bohrs.
  Reading pulay file /data2/jt577/jdftx_eat_withLibXC/build/pseudopotentials/SG15/Co_ONCV_PBE.pulay ... using dE_dnG = -9.787391e-05 computed for Ecut = 30.

Reading pseudopotential file '/data2/jt577/jdftx_eat_withLibXC/build/pseudopotentials/SG15/V_ONCV_PBE.upf':
  'V' pseudopotential, 'PBE' functional
  Generated using ONCVPSP code by D. R. Hamann
  Author: Martin Schlipf and Francois Gygi  Date: 150915.
  13 valence electrons, 4 orbitals, 6 projectors, 1536 radial grid points, with lMax = 2
  Transforming local potential to a uniform radial grid of dG=0.02 with 1419 points.
  Transforming nonlocal projectors to a uniform radial grid of dG=0.02 with 528 points.
    3S    l: 0   occupation:  2.0   eigenvalue: -2.581105
    3P    l: 1   occupation:  6.0   eigenvalue: -1.618486
    4S    l: 0   occupation:  2.0   eigenvalue: -0.172804
    3D    l: 2   occupation:  3.0   eigenvalue: -0.189795
  Transforming atomic orbitals to a uniform radial grid of dG=0.02 with 528 points.
  Core radius for overlap checks: 1.80 bohrs.
  Reading pulay file /data2/jt577/jdftx_eat_withLibXC/build/pseudopotentials/SG15/V_ONCV_PBE.pulay ... using dE_dnG = -1.698632e-04 computed for Ecut = 30.

Reading pseudopotential file '/data2/jt577/jdftx_eat_withLibXC/build/pseudopotentials/SG15/Cr_ONCV_PBE.upf':
  'Cr' pseudopotential, 'PBE' functional
  Generated using ONCVPSP code by D. R. Hamann
  Author: Martin Schlipf and Francois Gygi  Date: 150915.
  14 valence electrons, 4 orbitals, 6 projectors, 1160 radial grid points, with lMax = 2
  Transforming local potential to a uniform radial grid of dG=0.02 with 1419 points.
  Transforming nonlocal projectors to a uniform radial grid of dG=0.02 with 528 points.
    3S    l: 0   occupation:  2.0   eigenvalue: -2.865131
    3P    l: 1   occupation:  6.0   eigenvalue: -1.810600
    4S    l: 0   occupation:  2.0   eigenvalue: -0.180525
    3D    l: 2   occupation:  4.0   eigenvalue: -0.220312
  Transforming atomic orbitals to a uniform radial grid of dG=0.02 with 528 points.
  WARNING: large normalization error in atomic orbital 1s (integral: 0.000001).
  Core radius for overlap checks: 2.10 bohrs.
  Reading pulay file /data2/jt577/jdftx_eat_withLibXC/build/pseudopotentials/SG15/Cr_ONCV_PBE.pulay ... using dE_dnG = -9.817895e-06 computed for Ecut = 30.

Reading pseudopotential file '/data2/jt577/jdftx_eat_withLibXC/build/pseudopotentials/SG15/O_ONCV_PBE.upf':
  'O' pseudopotential, 'PBE' functional
  Generated using ONCVPSP code by D. R. Hamann
  Author: Martin Schlipf and Francois Gygi  Date: 150915.
  6 valence electrons, 2 orbitals, 4 projectors, 936 radial grid points, with lMax = 1
  Transforming local potential to a uniform radial grid of dG=0.02 with 1419 points.
  Transforming nonlocal projectors to a uniform radial grid of dG=0.02 with 528 points.
    2S    l: 0   occupation:  2.0   eigenvalue: -0.880572
    2P    l: 1   occupation:  4.0   eigenvalue: -0.331869
  Transforming atomic orbitals to a uniform radial grid of dG=0.02 with 528 points.
  Core radius for overlap checks: 1.29 bohrs.
  Reading pulay file /data2/jt577/jdftx_eat_withLibXC/build/pseudopotentials/SG15/O_ONCV_PBE.pulay ... using dE_dnG = -8.209514e-03 computed for Ecut = 30.

Initialized 5 species with 33 total atoms.

Folded 1 k-points by 3x3x1 to 9 k-points.

---------- Setting up k-points, bands, fillings ----------
No reducable k-points. 
Computing the number of bands and number of electrons
Calculating initial fillings.
nElectrons: 347.000000   nBands: 228   nStates: 18

----- Setting up reduced wavefunction bases (one per k-point) -----
average nbasis = 42312.000 , ideal nbasis = 42330.081

---------- Setting up ewald sum ----------
Optimum gaussian width for ewald sums = 3.906449 bohr.
Real space sum over 605 unit cells with max indices [  5  5  2  ]
Reciprocal space sum over 5915 terms with max indices [  6  6  17  ]

---------- Allocating electronic variables ----------
Initializing wave functions:  linear combination of atomic orbitals
Ni (M=1) pseudo-atom majority spin occupations:   s ( 1 0.5 )  p ( 3 )  d ( 5 )
Ni (M=1) pseudo-atom minority spin occupations:   s ( 1 0 )  p ( 3 )  d ( 4.5 )
Co (M=1) pseudo-atom majority spin occupations:   s ( 1 0 )  p ( 3 )  d ( 5 )
Co (M=1) pseudo-atom minority spin occupations:   s ( 1 0 )  p ( 3 )  d ( 4 )
V (M=1) pseudo-atom majority spin occupations:   s ( 1 0 )  p ( 3 )  d ( 3 )
V (M=1) pseudo-atom minority spin occupations:   s ( 1 0 )  p ( 3 )  d ( 2 )
Cr (M=1) pseudo-atom majority spin occupations:   s ( 1 0 )  p ( 3 )  d ( 3.5 )
Cr (M=1) pseudo-atom minority spin occupations:   s ( 1 0 )  p ( 3 )  d ( 2.5 )
O pseudo-atom occupations:   s ( 2 )  p ( 4 )
	FillingsUpdate:  mu: -0.133415513  nElectrons: 347.000000  magneticMoment: [ Abs: 4.32212  Tot: -0.00000 ]
LCAOMinimize: Iter:   0  F: -1883.4582644520264694  |grad|_K:  2.607e-02  alpha:  1.000e+00
LCAOMinimize: 	Step increased F by 8.633537e+01, reducing alpha to 4.373792e-02.
	FillingsUpdate:  mu: +1.004019518  nElectrons: 347.000000  magneticMoment: [ Abs: 3.10019  Tot: +0.00000 ]
LCAOMinimize: Iter:   1  F: -1901.3886548990346910  |grad|_K:  4.630e-02  alpha:  4.374e-02  linmin:  2.896e-02  cgtest: -1.616e-01  t[s]:     54.43
	FillingsUpdate:  mu: +1.440487239  nElectrons: 347.000000  magneticMoment: [ Abs: 2.08760  Tot: -0.00000 ]
LCAOMinimize: Iter:   2  F: -1903.5927350946828938  |grad|_K:  3.137e-02  alpha:  5.255e-03  linmin:  2.097e-02  cgtest:  9.381e-01  t[s]:     69.04
LCAOMinimize: Encountered beta<0, resetting CG.
	FillingsUpdate:  mu: +1.097176496  nElectrons: 347.000000  magneticMoment: [ Abs: 2.30720  Tot: -0.00000 ]
LCAOMinimize: Iter:   3  F: -1908.6280285368980003  |grad|_K:  1.913e-02  alpha:  8.683e-03  linmin: -7.472e-02  cgtest:  1.043e+00  t[s]:     83.59
LCAOMinimize: Encountered beta<0, resetting CG.
LCAOMinimize: 	Predicted alpha/alphaT>3.000000, increasing alphaT to 2.604912e-02.
	FillingsUpdate:  mu: +0.706889391  nElectrons: 347.000000  magneticMoment: [ Abs: 4.06793  Tot: +0.00000 ]
LCAOMinimize: Iter:   4  F: -1912.6980690838004193  |grad|_K:  2.859e-02  alpha:  2.379e-02  linmin: -1.146e-03  cgtest: -2.653e-01  t[s]:    102.31
	FillingsUpdate:  mu: +0.531048605  nElectrons: 347.000000  magneticMoment: [ Abs: 4.86253  Tot: +0.00000 ]
LCAOMinimize: Iter:   5  F: -1913.9680697738240269  |grad|_K:  3.172e-02  alpha:  1.921e-03  linmin: -4.919e-03  cgtest:  9.193e-01  t[s]:    116.82
LCAOMinimize: 	Wrong curvature in test step, increasing alphaT to 5.762520e-03.
	FillingsUpdate:  mu: +0.473515528  nElectrons: 347.000000  magneticMoment: [ Abs: 5.42509  Tot: -0.00000 ]
LCAOMinimize: Iter:   6  F: -1916.0682567597534671  |grad|_K:  3.133e-02  alpha: -9.805e-03  linmin: -5.960e-02  cgtest:  8.546e-01  t[s]:    130.75
LCAOMinimize: 	Step increased F by 3.112479e+02, reducing alpha to 3.623900e-02.
LCAOMinimize: 	Step increased F by 1.113417e+01, reducing alpha to 3.623900e-03.
	FillingsUpdate:  mu: +0.267535522  nElectrons: 347.000000  magneticMoment: [ Abs: 5.73297  Tot: -0.00000 ]
LCAOMinimize: Iter:   7  F: -1919.2724893226040876  |grad|_K:  1.514e-02  alpha:  3.624e-03  linmin: -8.542e-02  cgtest:  8.289e-01  t[s]:    167.00
LCAOMinimize: Encountered beta<0, resetting CG.
LCAOMinimize: 	Predicted alpha/alphaT>3.000000, increasing alphaT to 1.087170e-02.
	FillingsUpdate:  mu: +0.195194662  nElectrons: 347.000000  magneticMoment: [ Abs: 6.49883  Tot: +0.00000 ]
LCAOMinimize: Iter:   8  F: -1922.9188160898704609  |grad|_K:  1.276e-02  alpha:  2.543e-02  linmin: -3.688e-02  cgtest:  4.214e-01  t[s]:    185.86
	FillingsUpdate:  mu: +0.482640114  nElectrons: 347.000000  magneticMoment: [ Abs: 9.42515  Tot: +0.00000 ]
LCAOMinimize: Iter:   9  F: -1925.2164753078773174  |grad|_K:  5.121e-02  alpha:  5.326e-02  linmin:  1.302e-02  cgtest: -2.026e-01  t[s]:    200.69
LCAOMinimize: 	Bad step direction: g.d > 0.
LCAOMinimize: 	Undoing step.
LCAOMinimize: 	Step failed: resetting search direction.
	FillingsUpdate:  mu: +0.482640114  nElectrons: 347.000000  magneticMoment: [ Abs: 9.42515  Tot: +0.00000 ]
LCAOMinimize: Iter:  10  F: -1925.2164753078773174  |grad|_K:  5.121e-02  alpha:  0.000e+00
LCAOMinimize: 	Step increased F by 2.504908e+00, reducing alpha to 2.266431e-03.
	FillingsUpdate:  mu: +0.148497348  nElectrons: 347.000000  magneticMoment: [ Abs: 9.59562  Tot: -0.00000 ]
LCAOMinimize: Iter:  11  F: -1929.4733782049795536  |grad|_K:  2.633e-02  alpha:  2.266e-03  linmin: -1.269e-01  cgtest:  1.207e+00  t[s]:    236.26
LCAOMinimize: Encountered beta<0, resetting CG.
	FillingsUpdate:  mu: +0.152932496  nElectrons: 347.000000  magneticMoment: [ Abs: 9.33676  Tot: +0.00000 ]
LCAOMinimize: Iter:  12  F: -1931.1003174340507940  |grad|_K:  1.299e-02  alpha:  4.281e-03  linmin: -9.554e-02  cgtest:  1.358e+00  t[s]:    250.68
LCAOMinimize: Encountered beta<0, resetting CG.
LCAOMinimize: 	Predicted alpha/alphaT>3.000000, increasing alphaT to 1.284251e-02.
LCAOMinimize: 	Step increased F by 8.075603e-01, reducing alpha to 2.702123e-03.
	FillingsUpdate:  mu: +0.148159869  nElectrons: 347.000000  magneticMoment: [ Abs: 9.19618  Tot: +0.00000 ]
LCAOMinimize: Iter:  13  F: -1931.5091535806482170  |grad|_K:  1.204e-02  alpha:  2.702e-03  linmin: -8.978e-02  cgtest:  9.818e-01  t[s]:    279.95
LCAOMinimize: Encountered beta<0, resetting CG.
LCAOMinimize: 	Wrong curvature in test step, increasing alphaT to 8.106369e-03.
	FillingsUpdate:  mu: +0.133867122  nElectrons: 347.000000  magneticMoment: [ Abs: 9.07737  Tot: +0.00000 ]
LCAOMinimize: Iter:  14  F: -1931.8911850870042599  |grad|_K:  1.180e-02  alpha: -4.021e-02  linmin: -7.952e-02  cgtest:  9.220e-01  t[s]:    294.01
LCAOMinimize: 	Step increased F by 1.666217e+01, reducing alpha to 1.889676e-02.
	FillingsUpdate:  mu: +0.173976689  nElectrons: 347.000000  magneticMoment: [ Abs: 7.06833  Tot: -0.00000 ]
LCAOMinimize: Iter:  15  F: -1932.3102623054085143  |grad|_K:  2.762e-02  alpha:  1.890e-02  linmin:  1.525e-02  cgtest: -1.804e-01  t[s]:    319.28
	FillingsUpdate:  mu: +0.269514113  nElectrons: 347.000000  magneticMoment: [ Abs: 7.51072  Tot: -0.00000 ]
LCAOMinimize: Iter:  16  F: -1933.9849636495364393  |grad|_K:  2.730e-02  alpha:  1.343e-03  linmin: -4.428e-02  cgtest:  9.866e-01  t[s]:    334.21
LCAOMinimize: 	Predicted alpha/alphaT>3.000000, increasing alphaT to 4.028824e-03.
	FillingsUpdate:  mu: +0.279224688  nElectrons: 347.000000  magneticMoment: [ Abs: 10.55868  Tot: +0.00000 ]
LCAOMinimize: Iter:  17  F: -1936.6714352197609514  |grad|_K:  9.468e-03  alpha:  7.864e-03  linmin:  1.960e-02  cgtest:  2.262e-02  t[s]:    353.46
LCAOMinimize: 	Predicted alpha/alphaT>3.000000, increasing alphaT to 2.359086e-02.
LCAOMinimize: 	Predicted alpha/alphaT>3.000000, increasing alphaT to 7.077258e-02.
	FillingsUpdate:  mu: +0.473969472  nElectrons: 347.000000  magneticMoment: [ Abs: 11.31349  Tot: -0.00000 ]
LCAOMinimize: Iter:  18  F: -1942.6183009320704969  |grad|_K:  1.322e-02  alpha:  1.058e-01  linmin: -8.434e-03  cgtest: -1.108e-01  t[s]:    376.64
	FillingsUpdate:  mu: +0.342292560  nElectrons: 347.000000  magneticMoment: [ Abs: 12.78919  Tot: +0.00000 ]
LCAOMinimize: Iter:  19  F: -1943.2528856544770406  |grad|_K:  1.535e-02  alpha:  1.066e-02  linmin:  3.060e-02  cgtest:  6.621e-01  t[s]:    391.30
	FillingsUpdate:  mu: +0.272142271  nElectrons: 347.000000  magneticMoment: [ Abs: 13.04530  Tot: -0.00000 ]
LCAOMinimize: Iter:  20  F: -1943.4753225410779578  |grad|_K:  1.327e-02  alpha:  4.274e-03  linmin:  3.854e-03  cgtest:  9.137e-01  t[s]:    406.15
LCAOMinimize: Encountered beta<0, resetting CG.
LCAOMinimize: 	Predicted alpha/alphaT>3.000000, increasing alphaT to 1.282136e-02.
	FillingsUpdate:  mu: +0.088786059  nElectrons: 347.000000  magneticMoment: [ Abs: 11.68512  Tot: -0.00000 ]
LCAOMinimize: Iter:  21  F: -1945.7414216333161221  |grad|_K:  1.085e-02  alpha:  2.946e-02  linmin:  1.517e-02  cgtest: -6.084e-02  t[s]:    425.31
	FillingsUpdate:  mu: +0.154429258  nElectrons: 347.000000  magneticMoment: [ Abs: 13.12782  Tot: -0.00000 ]
LCAOMinimize: Iter:  22  F: -1946.4108819584948833  |grad|_K:  4.672e-03  alpha:  1.120e-02  linmin: -1.006e-02  cgtest:  1.316e-01  t[s]:    439.95
LCAOMinimize: 	Predicted alpha/alphaT>3.000000, increasing alphaT to 3.360835e-02.
	FillingsUpdate:  mu: +0.064016371  nElectrons: 347.000000  magneticMoment: [ Abs: 13.75747  Tot: +0.00000 ]
LCAOMinimize: Iter:  23  F: -1947.0527554966356547  |grad|_K:  3.885e-03  alpha:  5.918e-02  linmin: -7.111e-04  cgtest: -3.736e-01  t[s]:    459.14
	FillingsUpdate:  mu: +0.073768893  nElectrons: 347.000000  magneticMoment: [ Abs: 14.13381  Tot: +0.00000 ]
LCAOMinimize: Iter:  24  F: -1947.1463003591661618  |grad|_K:  3.227e-03  alpha:  8.468e-03  linmin: -2.869e-02  cgtest:  8.847e-01  t[s]:    473.90
LCAOMinimize: Encountered beta<0, resetting CG.
LCAOMinimize: 	Predicted alpha/alphaT>3.000000, increasing alphaT to 2.540333e-02.
	FillingsUpdate:  mu: +0.114356020  nElectrons: 347.000000  magneticMoment: [ Abs: 14.78887  Tot: -0.00000 ]
LCAOMinimize: Iter:  25  F: -1947.3045950962768984  |grad|_K:  1.849e-03  alpha:  3.223e-02  linmin:  9.982e-04  cgtest: -6.645e-02  t[s]:    492.80
	FillingsUpdate:  mu: +0.085408242  nElectrons: 347.000000  magneticMoment: [ Abs: 15.42591  Tot: -0.00000 ]
LCAOMinimize: Iter:  26  F: -1947.3889870382975005  |grad|_K:  2.713e-03  alpha:  4.912e-02  linmin: -3.839e-03  cgtest:  1.051e-01  t[s]:    507.47
	FillingsUpdate:  mu: +0.097401115  nElectrons: 347.000000  magneticMoment: [ Abs: 16.10996  Tot: -0.00000 ]
LCAOMinimize: Iter:  27  F: -1947.4581727515162584  |grad|_K:  1.377e-03  alpha:  1.371e-02  linmin: -1.438e-02  cgtest:  1.620e-01  t[s]:    522.32
LCAOMinimize: 	Predicted alpha/alphaT>3.000000, increasing alphaT to 4.112644e-02.
	FillingsUpdate:  mu: +0.097503575  nElectrons: 347.000000  magneticMoment: [ Abs: 16.93815  Tot: +0.00000 ]
LCAOMinimize: Iter:  28  F: -1947.5309022774918049  |grad|_K:  1.271e-03  alpha:  6.614e-02  linmin: -2.491e-03  cgtest: -3.681e-02  t[s]:    541.23
	FillingsUpdate:  mu: +0.129234147  nElectrons: 347.000000  magneticMoment: [ Abs: 18.23713  Tot: +0.00000 ]
LCAOMinimize: Iter:  29  F: -1947.5943863803661316  |grad|_K:  1.385e-03  alpha:  7.534e-02  linmin: -1.939e-03  cgtest:  3.923e-01  t[s]:    556.04
	FillingsUpdate:  mu: +0.125720430  nElectrons: 347.000000  magneticMoment: [ Abs: 18.29608  Tot: +0.00000 ]
LCAOMinimize: Iter:  30  F: -1947.6113540330447904  |grad|_K:  1.049e-03  alpha:  2.087e-02  linmin:  3.716e-03  cgtest: -2.914e-01  t[s]:    570.65
LCAOMinimize: None of the convergence criteria satisfied after 30 iterations.


---- Citations for features of the code used in this run ----

   Software package:
      R. Sundararaman, K. Letchworth-Weaver, K.A. Schwarz, D. Gunceler, Y. Ozhabes and T.A. Arias, 'JDFTx: software for joint density-functional theory', SoftwareX 6, 278 (2017)

   Simplified rotationally-invariant DFT+U:
      S. L. Dudarev et al., Phys. Rev. B 57, 1505 (1998)

   LibXC library of exchange-correlation functions:
      M. A. L. Marques, M. J. T. Oliveira and T. Burnus, Comput. Phys. Commun. 183, 2272 (2012)

   Hammer, Hansen, and Norskov exchange functional:
      B. Hammer, L. B. Hansen, and J. K. Nørskov, Phys. Rev. B 59, 7413 (1999)

   Perdew, Burke & Ernzerhof correlation functional:
      J. P. Perdew, K. Burke, and M. Ernzerhof, Phys. Rev. Lett. 77, 3865 (1996)

   Pseudopotentials:
      M Schlipf and F Gygi, Comput. Phys. Commun. 196, 36 (2015)

   Total energy minimization with Auxiliary Hamiltonian:
      C. Freysoldt, S. Boeck, and J. Neugebauer, Phys. Rev. B 79, 241103(R) (2009)

This list may not be complete. Please suggest additional citations or
report any other bugs at https://github.com/shankar1729/jdftx/issues

Initialization completed successfully at t[s]:    577.85


-------- Electronic minimization -----------
	FillingsUpdate:  mu: +0.125720468  nElectrons: 347.000000  magneticMoment: [ Abs: 18.29608  Tot: +0.00000 ]
ElecMinimize: Iter:   0  F: -1947.611354033035241  |grad|_K:  8.654e-04  alpha:  1.000e+00
	FillingsUpdate:  mu: +0.834421167  nElectrons: 347.000000  magneticMoment: [ Abs: 23.46196  Tot: -0.00000 ]
	SubspaceRotationAdjust: set factor to 0.937
ElecMinimize: Iter:   1  F: -1980.275006386850919  |grad|_K:  1.375e-03  alpha:  4.633e-01  linmin:  9.441e-03  t[s]:    672.19
ElecMinimize: 	Step increased F by 6.576420e+01, reducing alpha to 8.978019e-03.
	FillingsUpdate:  mu: +0.532460776  nElectrons: 347.000000  magneticMoment: [ Abs: 22.18429  Tot: +0.00000 ]
	SubspaceRotationAdjust: set factor to 1.31
ElecMinimize: Iter:   2  F: -1983.609990098426124  |grad|_K:  8.196e-04  alpha:  8.978e-03  linmin: -4.200e-03  t[s]:    790.05
	FillingsUpdate:  mu: +0.267981173  nElectrons: 347.000000  magneticMoment: [ Abs: 19.71580  Tot: +0.00000 ]
	SubspaceRotationAdjust: set factor to 1.07
ElecMinimize: Iter:   3  F: -1986.009624894047192  |grad|_K:  7.827e-04  alpha:  1.575e-02  linmin: -8.622e-04  t[s]:    866.39
ElecMinimize: 	Predicted alpha/alphaT>3.000000, increasing alphaT to 4.725694e-02.
	FillingsUpdate:  mu: +0.506552878  nElectrons: 347.000000  magneticMoment: [ Abs: 20.17908  Tot: -0.00000 ]
	SubspaceRotationAdjust: set factor to 0.603
ElecMinimize: Iter:   4  F: -1990.668096283610566  |grad|_K:  1.565e-03  alpha:  3.873e-02  linmin:  1.102e-03  t[s]:    972.87
	FillingsUpdate:  mu: +0.483591363  nElectrons: 347.000000  magneticMoment: [ Abs: 21.28028  Tot: +0.00000 ]
	SubspaceRotationAdjust: set factor to 0.359
ElecMinimize: Iter:   5  F: -1995.463743831954389  |grad|_K:  1.039e-03  alpha:  8.665e-03  linmin: -1.878e-03  t[s]:   1050.63
	FillingsUpdate:  mu: +0.349124382  nElectrons: 347.000000  magneticMoment: [ Abs: 24.86880  Tot: -0.00000 ]
	SubspaceRotationAdjust: set factor to 0.449
ElecMinimize: Iter:   6  F: -2001.626582771356880  |grad|_K:  4.305e-04  alpha:  2.023e-02  linmin: -4.907e-04  t[s]:   1126.04
ElecMinimize: 	Predicted alpha/alphaT>3.000000, increasing alphaT to 6.070024e-02.
ElecMinimize: 	Step increased F by 2.539284e+00, reducing alpha to 1.155902e-02.
	FillingsUpdate:  mu: +0.366600824  nElectrons: 347.000000  magneticMoment: [ Abs: 25.15359  Tot: +0.00000 ]
	SubspaceRotationAdjust: set factor to 0.468
ElecMinimize: Iter:   7  F: -2002.402634384815883  |grad|_K:  4.380e-04  alpha:  1.156e-02  linmin: -3.182e-03  t[s]:   1277.07
ElecMinimize: 	Wrong curvature in test step, increasing alphaT to 3.467706e-02.
	FillingsUpdate:  mu: +0.390153064  nElectrons: 347.000000  magneticMoment: [ Abs: 25.65134  Tot: -0.00000 ]
	SubspaceRotationAdjust: set factor to 0.403
ElecMinimize: Iter:   8  F: -2004.122944237644333  |grad|_K:  4.370e-04  alpha: -4.996e-02  linmin: -6.583e-03  t[s]:   1324.32
ElecMinimize: 	Step increased F by 2.450494e+01, reducing alpha to 9.746292e-03.
ElecMinimize: 	Step increased F by 5.319157e+00, reducing alpha to 9.746292e-04.
ElecMinimize: 	Step increased F by 6.706056e+00, reducing alpha to 9.746292e-05.
ElecMinimize: 	Step failed to reduce F after 3 attempts. Quitting step.
ElecMinimize: 	Undoing step.
ElecMinimize: 	Step failed: resetting search direction.
	FillingsUpdate:  mu: +0.389974988  nElectrons: 347.000000  magneticMoment: [ Abs: 25.81780  Tot: -0.00000 ]
	SubspaceRotationAdjust: set factor to 0.568
ElecMinimize: Iter:   9  F: -1997.396095259510048  |grad|_K:  4.528e-04  alpha:  9.746e-05
	FillingsUpdate:  mu: +0.326535339  nElectrons: 347.000000  magneticMoment: [ Abs: 21.35640  Tot: +0.00000 ]
	SubspaceRotationAdjust: set factor to 0.339
ElecMinimize: Iter:  10  F: -1999.004227147222082  |grad|_K:  7.732e-04  alpha:  1.907e-01  linmin:  5.204e-03  t[s]:   1608.81
	FillingsUpdate:  mu: +0.105218796  nElectrons: 347.000000  magneticMoment: [ Abs: 21.56864  Tot: +0.00000 ]
	SubspaceRotationAdjust: set factor to 0.381
ElecMinimize: Iter:  11  F: -2001.870162610837951  |grad|_K:  4.036e-04  alpha:  4.473e-02  linmin: -4.347e-04  t[s]:   1686.03
	FillingsUpdate:  mu: +0.251150622  nElectrons: 347.000000  magneticMoment: [ Abs: 22.53437  Tot: +0.00000 ]
	SubspaceRotationAdjust: set factor to 0.344
ElecMinimize: Iter:  12  F: -2004.280301127392022  |grad|_K:  3.442e-04  alpha:  7.333e-02  linmin: -1.544e-03  t[s]:   1761.44
	FillingsUpdate:  mu: +0.197387371  nElectrons: 347.000000  magneticMoment: [ Abs: 25.82224  Tot: -0.00000 ]
	SubspaceRotationAdjust: set factor to 0.181
ElecMinimize: Iter:  13  F: -2006.218053017636294  |grad|_K:  3.234e-04  alpha:  1.330e-01  linmin:  5.881e-03  t[s]:   1835.82
	FillingsUpdate:  mu: +0.205832620  nElectrons: 347.000000  magneticMoment: [ Abs: 25.94484  Tot: -0.00000 ]
	SubspaceRotationAdjust: set factor to 0.146
ElecMinimize: Iter:  14  F: -2006.228319552993526  |grad|_K:  2.734e-04  alpha:  1.535e-02  linmin:  6.347e-05  t[s]:   1913.27
ElecMinimize: 	Predicted alpha/alphaT>3.000000, increasing alphaT to 4.603681e-02.
	FillingsUpdate:  mu: +0.269589635  nElectrons: 347.000000  magneticMoment: [ Abs: 27.22257  Tot: -0.00000 ]
	SubspaceRotationAdjust: set factor to 0.156
ElecMinimize: Iter:  15  F: -2007.406123367976761  |grad|_K:  1.795e-04  alpha:  8.520e-02  linmin: -6.409e-04  t[s]:   2021.12
	FillingsUpdate:  mu: +0.206248143  nElectrons: 347.000000  magneticMoment: [ Abs: 26.93967  Tot: -0.00000 ]
	SubspaceRotationAdjust: set factor to 0.178
ElecMinimize: Iter:  16  F: -2008.374353871971834  |grad|_K:  9.872e-05  alpha:  1.405e-01  linmin: -1.297e-03  t[s]:   2099.54
	FillingsUpdate:  mu: +0.171021507  nElectrons: 347.000000  magneticMoment: [ Abs: 26.26886  Tot: -0.00000 ]
	SubspaceRotationAdjust: set factor to 0.143
ElecMinimize: Iter:  17  F: -2008.609540024609487  |grad|_K:  8.185e-05  alpha:  1.172e-01  linmin: -7.323e-05  t[s]:   2178.04
	FillingsUpdate:  mu: +0.134308036  nElectrons: 347.000000  magneticMoment: [ Abs: 26.44279  Tot: -0.00000 ]
	SubspaceRotationAdjust: set factor to 0.181
ElecMinimize: Iter:  18  F: -2008.780495402450924  |grad|_K:  5.691e-05  alpha:  1.447e-01  linmin: -7.782e-05  t[s]:   2254.67
	FillingsUpdate:  mu: +0.134479090  nElectrons: 347.000000  magneticMoment: [ Abs: 26.91713  Tot: +0.00000 ]
	SubspaceRotationAdjust: set factor to 0.174
ElecMinimize: Iter:  19  F: -2008.948239638432597  |grad|_K:  6.666e-05  alpha:  2.892e-01  linmin: -7.728e-05  t[s]:   2332.03
	FillingsUpdate:  mu: +0.157188007  nElectrons: 347.000000  magneticMoment: [ Abs: 27.02058  Tot: +0.00000 ]
	SubspaceRotationAdjust: set factor to 0.15
ElecMinimize: Iter:  20  F: -2009.103065438924887  |grad|_K:  7.202e-05  alpha:  1.937e-01  linmin:  1.937e-05  t[s]:   2407.44
	FillingsUpdate:  mu: +0.182891224  nElectrons: 347.000000  magneticMoment: [ Abs: 28.64098  Tot: +0.00000 ]
	SubspaceRotationAdjust: set factor to 0.152
ElecMinimize: Iter:  21  F: -2009.408828313069534  |grad|_K:  1.022e-04  alpha:  3.815e-01  linmin:  1.745e-04  t[s]:   2483.60
ElecMinimize: 	Step increased F by 3.763489e-02, reducing alpha to 1.628008e-03.
ElecMinimize: 	Step increased F by 7.857742e-02, reducing alpha to 1.628008e-04.
ElecMinimize: 	Step increased F by 8.283343e-02, reducing alpha to 1.628008e-05.
ElecMinimize: 	Step failed to reduce F after 3 attempts. Quitting step.
ElecMinimize: 	Undoing step.
ElecMinimize: 	Step failed: resetting search direction.
	FillingsUpdate:  mu: +0.181418873  nElectrons: 347.000000  magneticMoment: [ Abs: 28.63589  Tot: +0.00000 ]
	SubspaceRotationAdjust: set factor to 0.181
ElecMinimize: Iter:  22  F: -2009.325947440365326  |grad|_K:  1.018e-04  alpha:  1.628e-05
	FillingsUpdate:  mu: +0.139629443  nElectrons: 347.000000  magneticMoment: [ Abs: 28.35340  Tot: +0.00000 ]
	SubspaceRotationAdjust: set factor to 0.162
ElecMinimize: Iter:  23  F: -2009.689418270497299  |grad|_K:  4.700e-05  alpha:  2.009e-01  linmin: -5.454e-05  t[s]:   2766.51
	FillingsUpdate:  mu: +0.135468840  nElectrons: 347.000000  magneticMoment: [ Abs: 28.72680  Tot: +0.00000 ]
	SubspaceRotationAdjust: set factor to 0.12
	SubspaceRotationAdjust: resetting CG because factor has changed by 0.119858
ElecMinimize: 	State modified externally: resetting search direction.
ElecMinimize: Iter:  24  F: -2009.770075076148260  |grad|_K:  3.588e-05  alpha:  2.091e-01
	FillingsUpdate:  mu: +0.141265159  nElectrons: 347.000000  magneticMoment: [ Abs: 28.61814  Tot: +0.00000 ]
	SubspaceRotationAdjust: set factor to 0.0786
ElecMinimize: Iter:  25  F: -2009.817663677888504  |grad|_K:  2.614e-05  alpha:  2.123e-01  linmin:  4.032e-04  t[s]:   2935.09
ElecMinimize: 	Predicted alpha/alphaT>3.000000, increasing alphaT to 6.370257e-01.
	FillingsUpdate:  mu: +0.149075388  nElectrons: 347.000000  magneticMoment: [ Abs: 29.45161  Tot: +0.00000 ]
	SubspaceRotationAdjust: set factor to 0.082
ElecMinimize: Iter:  26  F: -2009.927690045056124  |grad|_K:  4.320e-05  alpha:  9.436e-01  linmin: -4.279e-05  t[s]:   3041.44
	FillingsUpdate:  mu: +0.155464524  nElectrons: 347.000000  magneticMoment: [ Abs: 31.08290  Tot: +0.00000 ]
	SubspaceRotationAdjust: set factor to 0.0916
ElecMinimize: Iter:  27  F: -2010.147350522337092  |grad|_K:  5.252e-05  alpha:  6.223e-01  linmin: -2.451e-04  t[s]:   3118.87
	FillingsUpdate:  mu: +0.150549298  nElectrons: 347.000000  magneticMoment: [ Abs: 32.61309  Tot: -0.00000 ]
	SubspaceRotationAdjust: set factor to 0.0973
ElecMinimize: Iter:  28  F: -2010.522808274547742  |grad|_K:  7.004e-05  alpha:  4.834e-01  linmin: -4.995e-04  t[s]:   3196.23
	FillingsUpdate:  mu: +0.148306622  nElectrons: 347.000000  magneticMoment: [ Abs: 32.90954  Tot: -0.00000 ]
	SubspaceRotationAdjust: set factor to 0.112
ElecMinimize: Iter:  29  F: -2010.562463362445442  |grad|_K:  6.148e-05  alpha:  4.420e-02  linmin: -9.842e-05  t[s]:   3275.45
	FillingsUpdate:  mu: +0.142742400  nElectrons: 347.000000  magneticMoment: [ Abs: 33.03597  Tot: +0.00000 ]
	SubspaceRotationAdjust: set factor to 0.131
ElecMinimize: Iter:  30  F: -2010.582537726261307  |grad|_K:  5.827e-05  alpha:  2.851e-02  linmin: -5.958e-07  t[s]:   3355.29
	FillingsUpdate:  mu: +0.142251961  nElectrons: 347.000000  magneticMoment: [ Abs: 33.10713  Tot: -0.00000 ]
	SubspaceRotationAdjust: set factor to 0.171
ElecMinimize: Iter:  31  F: -2010.597573721774552  |grad|_K:  5.527e-05  alpha:  2.539e-02  linmin:  1.330e-05  t[s]:   3432.36
	FillingsUpdate:  mu: +0.139378802  nElectrons: 347.000000  magneticMoment: [ Abs: 33.13319  Tot: +0.00000 ]
	SubspaceRotationAdjust: set factor to 0.181
ElecMinimize: Iter:  32  F: -2010.609658722547010  |grad|_K:  5.226e-05  alpha:  2.280e-02  linmin:  1.279e-05  t[s]:   3510.55
	FillingsUpdate:  mu: +0.139338330  nElectrons: 347.000000  magneticMoment: [ Abs: 33.13656  Tot: +0.00000 ]
	SubspaceRotationAdjust: set factor to 0.2
ElecMinimize: Iter:  33  F: -2010.618706994165223  |grad|_K:  4.588e-05  alpha:  1.909e-02  linmin:  3.937e-06  t[s]:   3586.59
	FillingsUpdate:  mu: +0.142385974  nElectrons: 347.000000  magneticMoment: [ Abs: 33.13782  Tot: +0.00000 ]
	SubspaceRotationAdjust: set factor to 0.246
ElecMinimize: Iter:  34  F: -2010.625536300213753  |grad|_K:  4.168e-05  alpha:  1.865e-02  linmin: -1.753e-05  t[s]:   3663.97
	FillingsUpdate:  mu: +0.144099728  nElectrons: 347.000000  magneticMoment: [ Abs: 33.14675  Tot: -0.00000 ]
	SubspaceRotationAdjust: set factor to 0.29
ElecMinimize: Iter:  35  F: -2010.631470292984659  |grad|_K:  4.114e-05  alpha:  1.953e-02  linmin: -2.932e-05  t[s]:   3742.71
	FillingsUpdate:  mu: +0.142815294  nElectrons: 347.000000  magneticMoment: [ Abs: 33.17082  Tot: -0.00000 ]
	SubspaceRotationAdjust: set factor to 0.311
ElecMinimize: Iter:  36  F: -2010.637378690126525  |grad|_K:  4.238e-05  alpha:  1.990e-02  linmin: -6.876e-06  t[s]:   3819.21
	FillingsUpdate:  mu: +0.137215346  nElectrons: 347.000000  magneticMoment: [ Abs: 33.21436  Tot: +0.00000 ]
	SubspaceRotationAdjust: set factor to 0.327
ElecMinimize: Iter:  37  F: -2010.643199628308366  |grad|_K:  4.258e-05  alpha:  1.858e-02  linmin:  1.969e-05  t[s]:   3897.54
	FillingsUpdate:  mu: +0.135182783  nElectrons: 347.000000  magneticMoment: [ Abs: 33.27424  Tot: +0.00000 ]
	SubspaceRotationAdjust: set factor to 0.339
ElecMinimize: Iter:  38  F: -2010.648605343397776  |grad|_K:  4.232e-05  alpha:  1.720e-02  linmin:  1.409e-05  t[s]:   3975.02
	FillingsUpdate:  mu: +0.130694635  nElectrons: 347.000000  magneticMoment: [ Abs: 33.34811  Tot: +0.00000 ]
	SubspaceRotationAdjust: set factor to 0.334
ElecMinimize: Iter:  39  F: -2010.653813794481948  |grad|_K:  4.215e-05  alpha:  1.676e-02  linmin: -2.502e-06  t[s]:   4050.67
	FillingsUpdate:  mu: +0.126776555  nElectrons: 347.000000  magneticMoment: [ Abs: 33.43556  Tot: -0.00000 ]
	SubspaceRotationAdjust: set factor to 0.315
ElecMinimize: Iter:  40  F: -2010.658935980249225  |grad|_K:  4.110e-05  alpha:  1.655e-02  linmin:  5.875e-06  t[s]:   4127.15
	FillingsUpdate:  mu: +0.122573151  nElectrons: 347.000000  magneticMoment: [ Abs: 33.53589  Tot: +0.00000 ]
	SubspaceRotationAdjust: set factor to 0.29
ElecMinimize: Iter:  41  F: -2010.663725934527065  |grad|_K:  3.911e-05  alpha:  1.630e-02  linmin:  2.526e-05  t[s]:   4204.69
	FillingsUpdate:  mu: +0.114550831  nElectrons: 347.000000  magneticMoment: [ Abs: 33.65108  Tot: -0.00000 ]
	SubspaceRotationAdjust: set factor to 0.265
ElecMinimize: Iter:  42  F: -2010.668101817390607  |grad|_K:  3.711e-05  alpha:  1.649e-02  linmin:  2.238e-05  t[s]:   4281.88
	FillingsUpdate:  mu: +0.107991130  nElectrons: 347.000000  magneticMoment: [ Abs: 33.78648  Tot: +0.00000 ]
	SubspaceRotationAdjust: set factor to 0.243
ElecMinimize: Iter:  43  F: -2010.672217524971529  |grad|_K:  3.562e-05  alpha:  1.722e-02  linmin:  3.294e-05  t[s]:   4358.42
	FillingsUpdate:  mu: +0.105999817  nElectrons: 347.000000  magneticMoment: [ Abs: 33.94341  Tot: +0.00000 ]
	SubspaceRotationAdjust: set factor to 0.227
ElecMinimize: Iter:  44  F: -2010.676123269460732  |grad|_K:  3.488e-05  alpha:  1.776e-02  linmin:  9.042e-05  t[s]:   4436.40
	FillingsUpdate:  mu: +0.109119200  nElectrons: 347.000000  magneticMoment: [ Abs: 34.11566  Tot: +0.00000 ]
	SubspaceRotationAdjust: set factor to 0.217
ElecMinimize: Iter:  45  F: -2010.679820740715968  |grad|_K:  3.518e-05  alpha:  1.762e-02  linmin:  7.017e-05  t[s]:   4517.24
	FillingsUpdate:  mu: +0.108137990  nElectrons: 347.000000  magneticMoment: [ Abs: 34.30333  Tot: -0.00000 ]
	SubspaceRotationAdjust: set factor to 0.211
ElecMinimize: Iter:  46  F: -2010.683594842325647  |grad|_K:  3.625e-05  alpha:  1.767e-02  linmin:  4.227e-06  t[s]:   4595.26
	FillingsUpdate:  mu: +0.106063491  nElectrons: 347.000000  magneticMoment: [ Abs: 34.50531  Tot: +0.00000 ]
	SubspaceRotationAdjust: set factor to 0.214
ElecMinimize: Iter:  47  F: -2010.687704716788403  |grad|_K:  3.728e-05  alpha:  1.798e-02  linmin: -3.802e-05  t[s]:   4672.37
	FillingsUpdate:  mu: +0.106693718  nElectrons: 347.000000  magneticMoment: [ Abs: 34.71029  Tot: +0.00000 ]
	SubspaceRotationAdjust: set factor to 0.232
ElecMinimize: Iter:  48  F: -2010.692123372336937  |grad|_K:  3.793e-05  alpha:  1.815e-02  linmin: -5.968e-05  t[s]:   4748.01
	FillingsUpdate:  mu: +0.109748565  nElectrons: 347.000000  magneticMoment: [ Abs: 34.91044  Tot: -0.00000 ]
	SubspaceRotationAdjust: set factor to 0.265
ElecMinimize: Iter:  49  F: -2010.696761141286970  |grad|_K:  3.869e-05  alpha:  1.832e-02  linmin: -8.012e-05  t[s]:   4827.19
	FillingsUpdate:  mu: +0.122020199  nElectrons: 347.000000  magneticMoment: [ Abs: 35.11179  Tot: +0.00000 ]
	SubspaceRotationAdjust: set factor to 0.3
ElecMinimize: Iter:  50  F: -2010.701689783268876  |grad|_K:  4.016e-05  alpha:  1.861e-02  linmin: -8.728e-05  t[s]:   4901.07
	FillingsUpdate:  mu: +0.135351558  nElectrons: 347.000000  magneticMoment: [ Abs: 35.32954  Tot: -0.00000 ]
	SubspaceRotationAdjust: set factor to 0.327
ElecMinimize: Iter:  51  F: -2010.707044369703681  |grad|_K:  4.225e-05  alpha:  1.873e-02  linmin: -7.641e-05  t[s]:   4976.86
	FillingsUpdate:  mu: +0.139416944  nElectrons: 347.000000  magneticMoment: [ Abs: 35.57613  Tot: -0.00000 ]
	SubspaceRotationAdjust: set factor to 0.364
ElecMinimize: Iter:  52  F: -2010.712806863696187  |grad|_K:  4.375e-05  alpha:  1.824e-02  linmin: -4.908e-05  t[s]:   5054.21
	FillingsUpdate:  mu: +0.137834164  nElectrons: 347.000000  magneticMoment: [ Abs: 35.84004  Tot: -0.00000 ]
	SubspaceRotationAdjust: set factor to 0.463
ElecMinimize: Iter:  53  F: -2010.718470123485531  |grad|_K:  4.383e-05  alpha:  1.677e-02  linmin: -9.551e-06  t[s]:   5130.84
	FillingsUpdate:  mu: +0.136018364  nElectrons: 347.000000  magneticMoment: [ Abs: 36.08423  Tot: +0.00000 ]
	SubspaceRotationAdjust: set factor to 0.618
ElecMinimize: Iter:  54  F: -2010.723275461110234  |grad|_K:  4.412e-05  alpha:  1.420e-02  linmin:  2.620e-05  t[s]:   5208.08
	FillingsUpdate:  mu: +0.133880749  nElectrons: 347.000000  magneticMoment: [ Abs: 36.29360  Tot: -0.00000 ]
	SubspaceRotationAdjust: set factor to 0.787
ElecMinimize: Iter:  55  F: -2010.727178396693716  |grad|_K:  4.735e-05  alpha:  1.148e-02  linmin:  1.669e-05  t[s]:   5285.15
	FillingsUpdate:  mu: +0.132712226  nElectrons: 347.000000  magneticMoment: [ Abs: 36.49663  Tot: +0.00000 ]
	SubspaceRotationAdjust: set factor to 0.748
ElecMinimize: Iter:  56  F: -2010.731143345839882  |grad|_K:  5.550e-05  alpha:  1.018e-02  linmin:  1.279e-05  t[s]:   5361.00
	FillingsUpdate:  mu: +0.134433324  nElectrons: 347.000000  magneticMoment: [ Abs: 36.70638  Tot: -0.00000 ]
	SubspaceRotationAdjust: set factor to 0.648
ElecMinimize: Iter:  57  F: -2010.735747216288928  |grad|_K:  6.084e-05  alpha:  8.560e-03  linmin:  1.350e-05  t[s]:   5436.04
	FillingsUpdate:  mu: +0.135780840  nElectrons: 347.000000  magneticMoment: [ Abs: 36.90556  Tot: -0.00000 ]
	SubspaceRotationAdjust: set factor to 0.583
ElecMinimize: Iter:  58  F: -2010.740381441666614  |grad|_K:  6.146e-05  alpha:  7.148e-03  linmin:  2.611e-05  t[s]:   5514.60
	FillingsUpdate:  mu: +0.132196848  nElectrons: 347.000000  magneticMoment: [ Abs: 37.09502  Tot: -0.00000 ]
	SubspaceRotationAdjust: set factor to 0.545
ElecMinimize: Iter:  59  F: -2010.744558913665514  |grad|_K:  6.171e-05  alpha:  6.403e-03  linmin:  1.829e-05  t[s]:   5590.96
	FillingsUpdate:  mu: +0.130740512  nElectrons: 347.000000  magneticMoment: [ Abs: 37.29617  Tot: -0.00000 ]
	SubspaceRotationAdjust: set factor to 0.51
ElecMinimize: Iter:  60  F: -2010.748727826076220  |grad|_K:  6.297e-05  alpha:  6.343e-03  linmin:  4.853e-07  t[s]:   5666.11
	FillingsUpdate:  mu: +0.129178060  nElectrons: 347.000000  magneticMoment: [ Abs: 37.51903  Tot: +0.00000 ]
	SubspaceRotationAdjust: set factor to 0.476
ElecMinimize: Iter:  61  F: -2010.753155616676850  |grad|_K:  6.426e-05  alpha:  6.415e-03  linmin:  4.172e-06  t[s]:   5743.83
	FillingsUpdate:  mu: +0.131792869  nElectrons: 347.000000  magneticMoment: [ Abs: 37.75756  Tot: -0.00000 ]
	SubspaceRotationAdjust: set factor to 0.447
ElecMinimize: Iter:  62  F: -2010.757584588999180  |grad|_K:  6.478e-05  alpha:  6.169e-03  linmin:  1.048e-05  t[s]:   5819.89
	FillingsUpdate:  mu: +0.133124631  nElectrons: 347.000000  magneticMoment: [ Abs: 38.00849  Tot: -0.00000 ]
	SubspaceRotationAdjust: set factor to 0.431
ElecMinimize: Iter:  63  F: -2010.761822913408878  |grad|_K:  6.435e-05  alpha:  5.828e-03  linmin:  6.440e-06  t[s]:   5896.61
	FillingsUpdate:  mu: +0.134095592  nElectrons: 347.000000  magneticMoment: [ Abs: 38.25767  Tot: -0.00000 ]
	SubspaceRotationAdjust: set factor to 0.435
ElecMinimize: Iter:  64  F: -2010.765865322803620  |grad|_K:  6.312e-05  alpha:  5.626e-03  linmin: -5.444e-06  t[s]:   5972.03
	FillingsUpdate:  mu: +0.135429028  nElectrons: 347.000000  magneticMoment: [ Abs: 38.48588  Tot: +0.00000 ]
	SubspaceRotationAdjust: set factor to 0.463
ElecMinimize: Iter:  65  F: -2010.769775104574592  |grad|_K:  6.144e-05  alpha:  5.620e-03  linmin: -2.004e-05  t[s]:   6049.69
	FillingsUpdate:  mu: +0.134615727  nElectrons: 347.000000  magneticMoment: [ Abs: 38.68628  Tot: +0.00000 ]
	SubspaceRotationAdjust: set factor to 0.519
ElecMinimize: Iter:  66  F: -2010.773580217201243  |grad|_K:  5.980e-05  alpha:  5.727e-03  linmin: -2.806e-05  t[s]:   6125.88
	FillingsUpdate:  mu: +0.134818902  nElectrons: 347.000000  magneticMoment: [ Abs: 38.85755  Tot: -0.00000 ]
	SubspaceRotationAdjust: set factor to 0.589
ElecMinimize: Iter:  67  F: -2010.777293799437984  |grad|_K:  5.890e-05  alpha:  5.876e-03  linmin: -3.743e-05  t[s]:   6203.54
	FillingsUpdate:  mu: +0.136334136  nElectrons: 347.000000  magneticMoment: [ Abs: 39.00545  Tot: -0.00000 ]
	SubspaceRotationAdjust: set factor to 0.642
ElecMinimize: Iter:  68  F: -2010.781126045572591  |grad|_K:  5.896e-05  alpha:  6.215e-03  linmin: -4.977e-05  t[s]:   6278.65
	FillingsUpdate:  mu: +0.131947208  nElectrons: 347.000000  magneticMoment: [ Abs: 39.13136  Tot: -0.00000 ]
	SubspaceRotationAdjust: set factor to 0.663
ElecMinimize: Iter:  69  F: -2010.785256482839259  |grad|_K:  5.896e-05  alpha:  6.652e-03  linmin: -3.425e-05  t[s]:   6355.19
	FillingsUpdate:  mu: +0.130099957  nElectrons: 347.000000  magneticMoment: [ Abs: 39.22530  Tot: +0.00000 ]
	SubspaceRotationAdjust: set factor to 0.672
ElecMinimize: Iter:  70  F: -2010.789355664169761  |grad|_K:  5.792e-05  alpha:  6.665e-03  linmin: -4.341e-06  t[s]:   6432.56
	FillingsUpdate:  mu: +0.126858423  nElectrons: 347.000000  magneticMoment: [ Abs: 39.28457  Tot: -0.00000 ]
	SubspaceRotationAdjust: set factor to 0.689
ElecMinimize: Iter:  71  F: -2010.793089405249930  |grad|_K:  5.608e-05  alpha:  6.375e-03  linmin:  1.139e-05  t[s]:   6508.38
	FillingsUpdate:  mu: +0.125659047  nElectrons: 347.000000  magneticMoment: [ Abs: 39.31859  Tot: -0.00000 ]
	SubspaceRotationAdjust: set factor to 0.707
ElecMinimize: Iter:  72  F: -2010.796346811036756  |grad|_K:  5.468e-05  alpha:  5.971e-03  linmin:  2.234e-05  t[s]:   6585.25
	FillingsUpdate:  mu: +0.134395179  nElectrons: 347.000000  magneticMoment: [ Abs: 39.34462  Tot: -0.00000 ]
	SubspaceRotationAdjust: set factor to 0.685
ElecMinimize: Iter:  73  F: -2010.799243463924768  |grad|_K:  5.501e-05  alpha:  5.615e-03  linmin:  1.597e-05  t[s]:   6661.20
	FillingsUpdate:  mu: +0.138055436  nElectrons: 347.000000  magneticMoment: [ Abs: 39.38000  Tot: -0.00000 ]
	SubspaceRotationAdjust: set factor to 0.614
ElecMinimize: Iter:  74  F: -2010.802143508421977  |grad|_K:  5.636e-05  alpha:  5.542e-03  linmin: -3.251e-07  t[s]:   6739.34
	FillingsUpdate:  mu: +0.134244576  nElectrons: 347.000000  magneticMoment: [ Abs: 39.44100  Tot: +0.00000 ]
	SubspaceRotationAdjust: set factor to 0.53
ElecMinimize: Iter:  75  F: -2010.805349290450977  |grad|_K:  5.664e-05  alpha:  5.793e-03  linmin: -1.483e-05  t[s]:   6818.49
	FillingsUpdate:  mu: +0.130137677  nElectrons: 347.000000  magneticMoment: [ Abs: 39.53867  Tot: -0.00000 ]
	SubspaceRotationAdjust: set factor to 0.471
ElecMinimize: Iter:  76  F: -2010.808849028089980  |grad|_K:  5.463e-05  alpha:  6.225e-03  linmin: -6.844e-06  t[s]:   6898.33
	FillingsUpdate:  mu: +0.128415383  nElectrons: 347.000000  magneticMoment: [ Abs: 39.66606  Tot: -0.00000 ]
	SubspaceRotationAdjust: set factor to 0.459
ElecMinimize: Iter:  77  F: -2010.812255005208499  |grad|_K:  5.126e-05  alpha:  6.535e-03  linmin: -6.273e-06  t[s]:   6976.44
	FillingsUpdate:  mu: +0.128239534  nElectrons: 347.000000  magneticMoment: [ Abs: 39.81099  Tot: +0.00000 ]
	SubspaceRotationAdjust: set factor to 0.508
ElecMinimize: Iter:  78  F: -2010.815462103832715  |grad|_K:  4.799e-05  alpha:  6.980e-03  linmin: -3.411e-05  t[s]:   7054.46
	FillingsUpdate:  mu: +0.129542328  nElectrons: 347.000000  magneticMoment: [ Abs: 39.96555  Tot: -0.00000 ]
	SubspaceRotationAdjust: set factor to 0.629
ElecMinimize: Iter:  79  F: -2010.818555874093136  |grad|_K:  4.571e-05  alpha:  7.592e-03  linmin: -4.172e-05  t[s]:   7132.29
	FillingsUpdate:  mu: +0.132744805  nElectrons: 347.000000  magneticMoment: [ Abs: 40.11950  Tot: -0.00000 ]
	SubspaceRotationAdjust: set factor to 0.73
ElecMinimize: Iter:  80  F: -2010.821538596707342  |grad|_K:  4.631e-05  alpha:  8.054e-03  linmin: -4.059e-05  t[s]:   7209.82
	FillingsUpdate:  mu: +0.131413117  nElectrons: 347.000000  magneticMoment: [ Abs: 40.27465  Tot: -0.00000 ]
	SubspaceRotationAdjust: set factor to 0.682
ElecMinimize: Iter:  81  F: -2010.824825250143476  |grad|_K:  5.062e-05  alpha:  8.646e-03  linmin: -5.397e-05  t[s]:   7286.78
	FillingsUpdate:  mu: +0.134813810  nElectrons: 347.000000  magneticMoment: [ Abs: 40.42823  Tot: +0.00000 ]
	SubspaceRotationAdjust: set factor to 0.573
ElecMinimize: Iter:  82  F: -2010.829055849510951  |grad|_K:  5.353e-05  alpha:  9.276e-03  linmin: -4.877e-05  t[s]:   7364.39
	FillingsUpdate:  mu: +0.135815272  nElectrons: 347.000000  magneticMoment: [ Abs: 40.54572  Tot: -0.00000 ]
	SubspaceRotationAdjust: set factor to 0.512
ElecMinimize: Iter:  83  F: -2010.833832620847261  |grad|_K:  5.092e-05  alpha:  9.403e-03  linmin: -1.896e-05  t[s]:   7440.04
	FillingsUpdate:  mu: +0.136601778  nElectrons: 347.000000  magneticMoment: [ Abs: 40.61269  Tot: +0.00000 ]
	SubspaceRotationAdjust: set factor to 0.542
ElecMinimize: Iter:  84  F: -2010.838226229848942  |grad|_K:  4.664e-05  alpha:  9.664e-03  linmin: -7.945e-06  t[s]:   7517.07
	FillingsUpdate:  mu: +0.133688550  nElectrons: 347.000000  magneticMoment: [ Abs: 40.64510  Tot: +0.00000 ]
	SubspaceRotationAdjust: set factor to 0.656
ElecMinimize: Iter:  85  F: -2010.842020682310022  |grad|_K:  4.431e-05  alpha:  9.992e-03  linmin:  5.008e-06  t[s]:   7593.60
	FillingsUpdate:  mu: +0.134018323  nElectrons: 347.000000  magneticMoment: [ Abs: 40.66481  Tot: -0.00000 ]
	SubspaceRotationAdjust: set factor to 0.754
ElecMinimize: Iter:  86  F: -2010.845384263382130  |grad|_K:  4.522e-05  alpha:  9.857e-03  linmin:  4.860e-06  t[s]:   7670.02
	FillingsUpdate:  mu: +0.129270531  nElectrons: 347.000000  magneticMoment: [ Abs: 40.69799  Tot: +0.00000 ]
	SubspaceRotationAdjust: set factor to 0.75
ElecMinimize: Iter:  87  F: -2010.848779025422573  |grad|_K:  4.823e-05  alpha:  9.547e-03  linmin:  1.279e-05  t[s]:   7749.52
	FillingsUpdate:  mu: +0.129028893  nElectrons: 347.000000  magneticMoment: [ Abs: 40.76952  Tot: -0.00000 ]
	SubspaceRotationAdjust: set factor to 0.71
ElecMinimize: Iter:  88  F: -2010.852098979812581  |grad|_K:  4.978e-05  alpha:  8.095e-03  linmin:  6.833e-05  t[s]:   7826.89
	FillingsUpdate:  mu: +0.126754894  nElectrons: 347.000000  magneticMoment: [ Abs: 40.86293  Tot: +0.00000 ]
	SubspaceRotationAdjust: set factor to 0.684
ElecMinimize: Iter:  89  F: -2010.854642127785382  |grad|_K:  4.974e-05  alpha:  5.938e-03  linmin:  1.807e-05  t[s]:   7906.34
	FillingsUpdate:  mu: +0.125898018  nElectrons: 347.000000  magneticMoment: [ Abs: 40.97467  Tot: -0.00000 ]
	SubspaceRotationAdjust: set factor to 0.672
ElecMinimize: Iter:  90  F: -2010.857004507174452  |grad|_K:  4.969e-05  alpha:  5.516e-03  linmin:  2.098e-05  t[s]:   7982.94
	FillingsUpdate:  mu: +0.129876709  nElectrons: 347.000000  magneticMoment: [ Abs: 41.09542  Tot: +0.00000 ]
	SubspaceRotationAdjust: set factor to 0.654
ElecMinimize: Iter:  91  F: -2010.859296642287291  |grad|_K:  5.035e-05  alpha:  5.382e-03  linmin: -7.033e-06  t[s]:   8059.42
	FillingsUpdate:  mu: +0.133428870  nElectrons: 347.000000  magneticMoment: [ Abs: 41.22453  Tot: -0.00000 ]
	SubspaceRotationAdjust: set factor to 0.61
ElecMinimize: Iter:  92  F: -2010.861853306688545  |grad|_K:  5.189e-05  alpha:  5.764e-03  linmin: -3.767e-05  t[s]:   8135.58
	FillingsUpdate:  mu: +0.130827586  nElectrons: 347.000000  magneticMoment: [ Abs: 41.35468  Tot: +0.00000 ]
	SubspaceRotationAdjust: set factor to 0.537
ElecMinimize: Iter:  93  F: -2010.864937517119188  |grad|_K:  5.396e-05  alpha:  6.452e-03  linmin: -3.373e-05  t[s]:   8212.49
	FillingsUpdate:  mu: +0.131148553  nElectrons: 347.000000  magneticMoment: [ Abs: 41.46652  Tot: +0.00000 ]
	SubspaceRotationAdjust: set factor to 0.46
ElecMinimize: Iter:  94  F: -2010.868521720448371  |grad|_K:  5.536e-05  alpha:  6.955e-03  linmin: -1.654e-05  t[s]:   8288.63
	FillingsUpdate:  mu: +0.134694623  nElectrons: 347.000000  magneticMoment: [ Abs: 41.54334  Tot: +0.00000 ]
	SubspaceRotationAdjust: set factor to 0.404
ElecMinimize: Iter:  95  F: -2010.872447278470190  |grad|_K:  5.482e-05  alpha:  7.296e-03  linmin: -1.456e-05  t[s]:   8365.79
	FillingsUpdate:  mu: +0.135412400  nElectrons: 347.000000  magneticMoment: [ Abs: 41.57817  Tot: +0.00000 ]
	SubspaceRotationAdjust: set factor to 0.389
ElecMinimize: Iter:  96  F: -2010.876522886223711  |grad|_K:  5.250e-05  alpha:  7.730e-03  linmin: -1.695e-05  t[s]:   8445.75
	FillingsUpdate:  mu: +0.133107165  nElectrons: 347.000000  magneticMoment: [ Abs: 41.57437  Tot: +0.00000 ]
	SubspaceRotationAdjust: set factor to 0.434
ElecMinimize: Iter:  97  F: -2010.880463158806378  |grad|_K:  4.974e-05  alpha:  8.138e-03  linmin: -1.723e-05  t[s]:   8522.79
	FillingsUpdate:  mu: +0.130564843  nElectrons: 347.000000  magneticMoment: [ Abs: 41.54255  Tot: +0.00000 ]
	SubspaceRotationAdjust: set factor to 0.561
ElecMinimize: Iter:  98  F: -2010.884080012638151  |grad|_K:  4.769e-05  alpha:  8.322e-03  linmin: -1.716e-05  t[s]:   8600.68
	FillingsUpdate:  mu: +0.129060053  nElectrons: 347.000000  magneticMoment: [ Abs: 41.49419  Tot: +0.00000 ]
	SubspaceRotationAdjust: set factor to 0.762
ElecMinimize: Iter:  99  F: -2010.887339014758481  |grad|_K:  4.670e-05  alpha:  8.159e-03  linmin: -1.071e-05  t[s]:   8678.44
	FillingsUpdate:  mu: +0.129739975  nElectrons: 347.000000  magneticMoment: [ Abs: 41.44030  Tot: +0.00000 ]
	SubspaceRotationAdjust: set factor to 1
	SubspaceRotationAdjust: resetting CG because factor has changed by 8.34628
ElecMinimize: 	State modified externally: resetting search direction.
ElecMinimize: Iter: 100  F: -2010.890196380636553  |grad|_K:  4.891e-05  alpha:  7.477e-03
ElecMinimize: 	Predicted alpha/alphaT>3.000000, increasing alphaT to 2.242954e-02.
ElecMinimize: 	Predicted alpha/alphaT>3.000000, increasing alphaT to 6.728863e-02.
	FillingsUpdate:  mu: +0.140785218  nElectrons: 347.000000  magneticMoment: [ Abs: 41.39486  Tot: +0.00000 ]
	SubspaceRotationAdjust: set factor to 0.794
ElecMinimize: Iter: 101  F: -2010.981328911470655  |grad|_K:  3.607e-05  alpha:  1.863e-01  linmin: -7.745e-03  t[s]:   8916.28
	FillingsUpdate:  mu: +0.139573275  nElectrons: 347.000000  magneticMoment: [ Abs: 41.36173  Tot: +0.00000 ]
	SubspaceRotationAdjust: set factor to 0.47
ElecMinimize: Iter: 102  F: -2011.033478876226354  |grad|_K:  5.414e-05  alpha:  1.722e-01  linmin:  3.969e-03  t[s]:   8993.75
	FillingsUpdate:  mu: +0.139688363  nElectrons: 347.000000  magneticMoment: [ Abs: 41.56474  Tot: -0.00000 ]
	SubspaceRotationAdjust: set factor to 0.404
ElecMinimize: Iter: 103  F: -2011.051716652425966  |grad|_K:  3.782e-05  alpha:  5.353e-02  linmin:  5.853e-04  t[s]:   9070.61
ElecMinimize: 	Predicted alpha/alphaT>3.000000, increasing alphaT to 1.605967e-01.
	FillingsUpdate:  mu: +0.136972216  nElectrons: 347.000000  magneticMoment: [ Abs: 41.48587  Tot: -0.00000 ]
	SubspaceRotationAdjust: set factor to 0.297
ElecMinimize: Iter: 104  F: -2011.090547847383277  |grad|_K:  3.070e-05  alpha:  1.645e-01  linmin: -3.159e-04  t[s]:   9182.04
	FillingsUpdate:  mu: +0.136564635  nElectrons: 347.000000  magneticMoment: [ Abs: 41.29681  Tot: -0.00000 ]
	SubspaceRotationAdjust: set factor to 0.245
ElecMinimize: Iter: 105  F: -2011.099501893480465  |grad|_K:  1.730e-05  alpha:  5.204e-02  linmin: -3.718e-04  t[s]:   9260.69
ElecMinimize: 	Predicted alpha/alphaT>3.000000, increasing alphaT to 1.561267e-01.
	FillingsUpdate:  mu: +0.139919165  nElectrons: 347.000000  magneticMoment: [ Abs: 41.18559  Tot: +0.00000 ]
	SubspaceRotationAdjust: set factor to 0.192
ElecMinimize: Iter: 106  F: -2011.108148528826632  |grad|_K:  1.753e-05  alpha:  1.627e-01  linmin:  2.142e-04  t[s]:   9369.81
	FillingsUpdate:  mu: +0.138165735  nElectrons: 347.000000  magneticMoment: [ Abs: 41.24243  Tot: +0.00000 ]
	SubspaceRotationAdjust: set factor to 0.268
ElecMinimize: Iter: 107  F: -2011.113138667674093  |grad|_K:  1.110e-05  alpha:  9.445e-02  linmin:  2.326e-06  t[s]:   9446.23
	FillingsUpdate:  mu: +0.137642546  nElectrons: 347.000000  magneticMoment: [ Abs: 41.28687  Tot: -0.00000 ]
	SubspaceRotationAdjust: set factor to 0.224
ElecMinimize: Iter: 108  F: -2011.116114792951521  |grad|_K:  1.099e-05  alpha:  1.381e-01  linmin: -2.834e-04  t[s]:   9523.03
	FillingsUpdate:  mu: +0.141054888  nElectrons: 347.000000  magneticMoment: [ Abs: 41.23534  Tot: -0.00000 ]
	SubspaceRotationAdjust: set factor to 0.26
ElecMinimize: Iter: 109  F: -2011.118159971615569  |grad|_K:  7.033e-06  alpha:  9.536e-02  linmin:  4.148e-05  t[s]:   9605.00
	FillingsUpdate:  mu: +0.143529173  nElectrons: 347.000000  magneticMoment: [ Abs: 41.19031  Tot: +0.00000 ]
	SubspaceRotationAdjust: set factor to 0.205
ElecMinimize: Iter: 110  F: -2011.119592146075092  |grad|_K:  7.930e-06  alpha:  1.674e-01  linmin:  2.072e-04  t[s]:   9683.76
	FillingsUpdate:  mu: +0.140891685  nElectrons: 347.000000  magneticMoment: [ Abs: 41.21330  Tot: +0.00000 ]
	SubspaceRotationAdjust: set factor to 0.242
ElecMinimize: Iter: 111  F: -2011.120631059901598  |grad|_K:  5.645e-06  alpha:  9.548e-02  linmin: -2.496e-05  t[s]:   9761.03
	FillingsUpdate:  mu: +0.137101423  nElectrons: 347.000000  magneticMoment: [ Abs: 41.23834  Tot: +0.00000 ]
	SubspaceRotationAdjust: set factor to 0.18
ElecMinimize: Iter: 112  F: -2011.121722563808135  |grad|_K:  7.981e-06  alpha:  1.977e-01  linmin:  1.570e-04  t[s]:   9836.73
	FillingsUpdate:  mu: +0.138978295  nElectrons: 347.000000  magneticMoment: [ Abs: 41.19627  Tot: +0.00000 ]
	SubspaceRotationAdjust: set factor to 0.259
ElecMinimize: Iter: 113  F: -2011.122929603831608  |grad|_K:  5.668e-06  alpha:  1.083e-01  linmin: -9.235e-05  t[s]:   9916.18
	FillingsUpdate:  mu: +0.142112485  nElectrons: 347.000000  magneticMoment: [ Abs: 41.15239  Tot: -0.00000 ]
	SubspaceRotationAdjust: set factor to 0.205
ElecMinimize: Iter: 114  F: -2011.123809153424190  |grad|_K:  7.623e-06  alpha:  1.565e-01  linmin:  1.095e-04  t[s]:   9993.11
	FillingsUpdate:  mu: +0.140223301  nElectrons: 347.000000  magneticMoment: [ Abs: 41.16491  Tot: +0.00000 ]
	SubspaceRotationAdjust: set factor to 0.325
ElecMinimize: Iter: 115  F: -2011.125071827267448  |grad|_K:  5.489e-06  alpha:  1.266e-01  linmin: -6.110e-05  t[s]:  10071.38
	FillingsUpdate:  mu: +0.137394481  nElectrons: 347.000000  magneticMoment: [ Abs: 41.19868  Tot: +0.00000 ]
	SubspaceRotationAdjust: set factor to 0.267
ElecMinimize: Iter: 116  F: -2011.125808015652638  |grad|_K:  7.000e-06  alpha:  1.395e-01  linmin: -1.056e-05  t[s]:  10148.54
	FillingsUpdate:  mu: +0.140642790  nElectrons: 347.000000  magneticMoment: [ Abs: 41.17063  Tot: -0.00000 ]
	SubspaceRotationAdjust: set factor to 0.33
ElecMinimize: Iter: 117  F: -2011.126812884770516  |grad|_K:  4.612e-06  alpha:  1.172e-01  linmin:  6.031e-05  t[s]:  10224.98
	FillingsUpdate:  mu: +0.143107768  nElectrons: 347.000000  magneticMoment: [ Abs: 41.14734  Tot: -0.00000 ]
	SubspaceRotationAdjust: set factor to 0.257
ElecMinimize: Iter: 118  F: -2011.127594708489369  |grad|_K:  6.208e-06  alpha:  2.130e-01  linmin:  6.389e-05  t[s]:  10302.23
	FillingsUpdate:  mu: +0.139933490  nElectrons: 347.000000  magneticMoment: [ Abs: 41.17801  Tot: +0.00000 ]
	SubspaceRotationAdjust: set factor to 0.228
ElecMinimize: Iter: 119  F: -2011.128115507576922  |grad|_K:  4.211e-06  alpha:  7.953e-02  linmin:  1.185e-04  t[s]:  10377.96
	FillingsUpdate:  mu: +0.139964203  nElectrons: 347.000000  magneticMoment: [ Abs: 41.18837  Tot: +0.00000 ]
	SubspaceRotationAdjust: set factor to 0.258
ElecMinimize: Iter: 120  F: -2011.128804838571796  |grad|_K:  4.168e-06  alpha:  2.220e-01  linmin: -3.433e-04  t[s]:  10455.45
	FillingsUpdate:  mu: +0.140019797  nElectrons: 347.000000  magneticMoment: [ Abs: 41.16464  Tot: -0.00000 ]
	SubspaceRotationAdjust: set factor to 0.21
ElecMinimize: Iter: 121  F: -2011.129145177561213  |grad|_K:  3.613e-06  alpha:  1.097e-01  linmin:  2.268e-05  t[s]:  10533.40
	FillingsUpdate:  mu: +0.139624039  nElectrons: 347.000000  magneticMoment: [ Abs: 41.17553  Tot: -0.00000 ]
	SubspaceRotationAdjust: set factor to 0.288
ElecMinimize: Iter: 122  F: -2011.129578338584452  |grad|_K:  2.604e-06  alpha:  1.901e-01  linmin: -1.199e-04  t[s]:  10609.37
	FillingsUpdate:  mu: +0.139438243  nElectrons: 347.000000  magneticMoment: [ Abs: 41.19449  Tot: +0.00000 ]
	SubspaceRotationAdjust: set factor to 0.245
ElecMinimize: Iter: 123  F: -2011.129823403142609  |grad|_K:  3.076e-06  alpha:  2.058e-01  linmin: -1.564e-05  t[s]:  10686.95
	FillingsUpdate:  mu: +0.140122574  nElectrons: 347.000000  magneticMoment: [ Abs: 41.18248  Tot: -0.00000 ]
	SubspaceRotationAdjust: set factor to 0.2
ElecMinimize: Iter: 124  F: -2011.129986112017605  |grad|_K:  2.189e-06  alpha:  9.867e-02  linmin:  2.951e-06  t[s]:  10765.59
	FillingsUpdate:  mu: +0.140329342  nElectrons: 347.000000  magneticMoment: [ Abs: 41.18996  Tot: -0.00000 ]
	SubspaceRotationAdjust: set factor to 0.257
ElecMinimize: Iter: 125  F: -2011.130197395722917  |grad|_K:  1.943e-06  alpha:  2.533e-01  linmin: -2.416e-06  t[s]:  10844.60
	FillingsUpdate:  mu: +0.139399677  nElectrons: 347.000000  magneticMoment: [ Abs: 41.20724  Tot: -0.00000 ]
	SubspaceRotationAdjust: set factor to 0.228
ElecMinimize: Iter: 126  F: -2011.130316538846955  |grad|_K:  2.173e-06  alpha:  1.813e-01  linmin: -1.830e-07  t[s]:  10920.96
	FillingsUpdate:  mu: +0.140059041  nElectrons: 347.000000  magneticMoment: [ Abs: 41.20185  Tot: +0.00000 ]
	SubspaceRotationAdjust: set factor to 0.2
ElecMinimize: Iter: 127  F: -2011.130429370603906  |grad|_K:  1.579e-06  alpha:  1.373e-01  linmin:  8.606e-07  t[s]:  10998.79
	FillingsUpdate:  mu: +0.139925835  nElectrons: 347.000000  magneticMoment: [ Abs: 41.20831  Tot: -0.00000 ]
	SubspaceRotationAdjust: set factor to 0.241
ElecMinimize: Iter: 128  F: -2011.130541970929244  |grad|_K:  1.309e-06  alpha:  2.594e-01  linmin: -4.260e-06  t[s]:  11075.35
	FillingsUpdate:  mu: +0.139506974  nElectrons: 347.000000  magneticMoment: [ Abs: 41.21750  Tot: +0.00000 ]
	SubspaceRotationAdjust: set factor to 0.238
ElecMinimize: Iter: 129  F: -2011.130612068709979  |grad|_K:  1.346e-06  alpha:  2.350e-01  linmin: -2.912e-06  t[s]:  11154.07
	FillingsUpdate:  mu: +0.140239214  nElectrons: 347.000000  magneticMoment: [ Abs: 41.21109  Tot: -0.00000 ]
	SubspaceRotationAdjust: set factor to 0.195
ElecMinimize: Iter: 130  F: -2011.130653591561440  |grad|_K:  1.146e-06  alpha:  1.317e-01  linmin:  4.411e-06  t[s]:  11228.60
	FillingsUpdate:  mu: +0.139889444  nElectrons: 347.000000  magneticMoment: [ Abs: 41.21542  Tot: +0.00000 ]
	SubspaceRotationAdjust: set factor to 0.219
ElecMinimize: Iter: 131  F: -2011.130703263590704  |grad|_K:  9.212e-07  alpha:  2.172e-01  linmin: -4.302e-06  t[s]:  11307.22
	FillingsUpdate:  mu: +0.139653943  nElectrons: 347.000000  magneticMoment: [ Abs: 41.21633  Tot: -0.00000 ]
	SubspaceRotationAdjust: set factor to 0.253
ElecMinimize: Iter: 132  F: -2011.130747067080392  |grad|_K:  9.026e-07  alpha:  2.963e-01  linmin: -3.350e-06  t[s]:  11383.50
	FillingsUpdate:  mu: +0.140081975  nElectrons: 347.000000  magneticMoment: [ Abs: 41.21006  Tot: +0.00000 ]
	SubspaceRotationAdjust: set factor to 0.237
ElecMinimize: Iter: 133  F: -2011.130778364694152  |grad|_K:  1.074e-06  alpha:  2.206e-01  linmin: -1.993e-06  t[s]:  11460.14
	FillingsUpdate:  mu: +0.139446754  nElectrons: 347.000000  magneticMoment: [ Abs: 41.21516  Tot: -0.00000 ]
	SubspaceRotationAdjust: set factor to 0.202
ElecMinimize: Iter: 134  F: -2011.130807816527067  |grad|_K:  9.176e-07  alpha:  1.467e-01  linmin: -1.489e-07  t[s]:  11537.45
	FillingsUpdate:  mu: +0.139637030  nElectrons: 347.000000  magneticMoment: [ Abs: 41.21183  Tot: +0.00000 ]
	SubspaceRotationAdjust: set factor to 0.225
ElecMinimize: Iter: 135  F: -2011.130847951059422  |grad|_K:  8.461e-07  alpha:  2.738e-01  linmin:  7.276e-07  t[s]:  11615.30
	FillingsUpdate:  mu: +0.139871274  nElectrons: 347.000000  magneticMoment: [ Abs: 41.20905  Tot: -0.00000 ]
	SubspaceRotationAdjust: set factor to 0.249
ElecMinimize: Iter: 136  F: -2011.130886744019790  |grad|_K:  8.645e-07  alpha:  3.113e-01  linmin:  2.013e-06  t[s]:  11690.75
	FillingsUpdate:  mu: +0.139508936  nElectrons: 347.000000  magneticMoment: [ Abs: 41.21312  Tot: -0.00000 ]
	SubspaceRotationAdjust: set factor to 0.232
ElecMinimize: Iter: 137  F: -2011.130917161086245  |grad|_K:  1.044e-06  alpha:  2.338e-01  linmin: -3.567e-07  t[s]:  11767.28
	FillingsUpdate:  mu: +0.140103188  nElectrons: 347.000000  magneticMoment: [ Abs: 41.20602  Tot: -0.00000 ]
	SubspaceRotationAdjust: set factor to 0.196
ElecMinimize: Iter: 138  F: -2011.130945989282282  |grad|_K:  9.295e-07  alpha:  1.519e-01  linmin: -3.576e-07  t[s]:  11844.75
	FillingsUpdate:  mu: +0.139906570  nElectrons: 347.000000  magneticMoment: [ Abs: 41.20654  Tot: +0.00000 ]
	SubspaceRotationAdjust: set factor to 0.221
ElecMinimize: Iter: 139  F: -2011.130987349544512  |grad|_K:  8.770e-07  alpha:  2.749e-01  linmin: -1.803e-06  t[s]:  11921.27
	FillingsUpdate:  mu: +0.139669513  nElectrons: 347.000000  magneticMoment: [ Abs: 41.20656  Tot: -0.00000 ]
	SubspaceRotationAdjust: set factor to 0.247
ElecMinimize: Iter: 140  F: -2011.131032059708787  |grad|_K:  9.765e-07  alpha:  3.338e-01  linmin: -2.484e-06  t[s]:  11998.27
	FillingsUpdate:  mu: +0.140157491  nElectrons: 347.000000  magneticMoment: [ Abs: 41.19901  Tot: +0.00000 ]
	SubspaceRotationAdjust: set factor to 0.233
ElecMinimize: Iter: 141  F: -2011.131071864845126  |grad|_K:  1.229e-06  alpha:  2.396e-01  linmin: -3.444e-06  t[s]:  12076.41
	FillingsUpdate:  mu: +0.139413956  nElectrons: 347.000000  magneticMoment: [ Abs: 41.20484  Tot: +0.00000 ]
	SubspaceRotationAdjust: set factor to 0.207
ElecMinimize: Iter: 142  F: -2011.131115065501945  |grad|_K:  1.140e-06  alpha:  1.641e-01  linmin: -5.154e-06  t[s]:  12154.19
	FillingsUpdate:  mu: +0.139605927  nElectrons: 347.000000  magneticMoment: [ Abs: 41.20111  Tot: -0.00000 ]
	SubspaceRotationAdjust: set factor to 0.23
ElecMinimize: Iter: 143  F: -2011.131186077346001  |grad|_K:  1.236e-06  alpha:  3.137e-01  linmin:  7.154e-06  t[s]:  12231.50
	FillingsUpdate:  mu: +0.139816188  nElectrons: 347.000000  magneticMoment: [ Abs: 41.19896  Tot: -0.00000 ]
	SubspaceRotationAdjust: set factor to 0.252
ElecMinimize: Iter: 144  F: -2011.131287489463148  |grad|_K:  1.526e-06  alpha:  3.821e-01  linmin:  1.149e-05  t[s]:  12307.30
	FillingsUpdate:  mu: +0.139154583  nElectrons: 347.000000  magneticMoment: [ Abs: 41.20897  Tot: +0.00000 ]
	SubspaceRotationAdjust: set factor to 0.24
ElecMinimize: Iter: 145  F: -2011.131401292820328  |grad|_K:  2.073e-06  alpha:  2.807e-01  linmin: -5.426e-06  t[s]:  12383.87
	FillingsUpdate:  mu: +0.139976448  nElectrons: 347.000000  magneticMoment: [ Abs: 41.19804  Tot: +0.00000 ]
	SubspaceRotationAdjust: set factor to 0.201
ElecMinimize: Iter: 146  F: -2011.131520342812564  |grad|_K:  2.051e-06  alpha:  1.576e-01  linmin: -2.297e-05  t[s]:  12460.71
	FillingsUpdate:  mu: +0.139413033  nElectrons: 347.000000  magneticMoment: [ Abs: 41.20525  Tot: +0.00000 ]
	SubspaceRotationAdjust: set factor to 0.223
ElecMinimize: Iter: 147  F: -2011.131718676186665  |grad|_K:  2.086e-06  alpha:  2.728e-01  linmin:  1.057e-04  t[s]:  12538.58
	FillingsUpdate:  mu: +0.138936261  nElectrons: 347.000000  magneticMoment: [ Abs: 41.21391  Tot: +0.00000 ]
	SubspaceRotationAdjust: set factor to 0.242
ElecMinimize: Iter: 148  F: -2011.131917177908008  |grad|_K:  2.315e-06  alpha:  2.688e-01  linmin:  5.566e-05  t[s]:  12614.73
	FillingsUpdate:  mu: +0.139812390  nElectrons: 347.000000  magneticMoment: [ Abs: 41.20428  Tot: +0.00000 ]
	SubspaceRotationAdjust: set factor to 0.232
ElecMinimize: Iter: 149  F: -2011.132070766832157  |grad|_K:  2.332e-06  alpha:  1.648e-01  linmin: -2.295e-05  t[s]:  12693.22
	FillingsUpdate:  mu: +0.139021025  nElectrons: 347.000000  magneticMoment: [ Abs: 41.21307  Tot: +0.00000 ]
	SubspaceRotationAdjust: set factor to 0.271
ElecMinimize: Iter: 150  F: -2011.132240008328608  |grad|_K:  2.044e-06  alpha:  1.781e-01  linmin:  2.950e-05  t[s]:  12773.04
	FillingsUpdate:  mu: +0.138711872  nElectrons: 347.000000  magneticMoment: [ Abs: 41.21502  Tot: -0.00000 ]
	SubspaceRotationAdjust: set factor to 0.346
ElecMinimize: Iter: 151  F: -2011.132402095234738  |grad|_K:  2.084e-06  alpha:  2.249e-01  linmin:  2.562e-05  t[s]:  12849.91
	FillingsUpdate:  mu: +0.139420521  nElectrons: 347.000000  magneticMoment: [ Abs: 41.20520  Tot: -0.00000 ]
	SubspaceRotationAdjust: set factor to 0.314
ElecMinimize: Iter: 152  F: -2011.132531972088145  |grad|_K:  2.478e-06  alpha:  1.724e-01  linmin: -8.278e-06  t[s]:  12928.29
	FillingsUpdate:  mu: +0.138423370  nElectrons: 347.000000  magneticMoment: [ Abs: 41.21567  Tot: +0.00000 ]
	SubspaceRotationAdjust: set factor to 0.341
ElecMinimize: Iter: 153  F: -2011.132655743327632  |grad|_K:  2.273e-06  alpha:  1.152e-01  linmin: -1.005e-05  t[s]:  13004.69
	FillingsUpdate:  mu: +0.138755276  nElectrons: 347.000000  magneticMoment: [ Abs: 41.21078  Tot: -0.00000 ]
	SubspaceRotationAdjust: set factor to 0.454
ElecMinimize: Iter: 154  F: -2011.132818120095408  |grad|_K:  2.160e-06  alpha:  1.806e-01  linmin:  1.831e-05  t[s]:  13082.86
	FillingsUpdate:  mu: +0.139218605  nElectrons: 347.000000  magneticMoment: [ Abs: 41.20543  Tot: +0.00000 ]
	SubspaceRotationAdjust: set factor to 0.489
ElecMinimize: Iter: 155  F: -2011.132971692933779  |grad|_K:  2.416e-06  alpha:  1.902e-01  linmin:  8.226e-06  t[s]:  13160.49
	FillingsUpdate:  mu: +0.138413306  nElectrons: 347.000000  magneticMoment: [ Abs: 41.21568  Tot: -0.00000 ]
	SubspaceRotationAdjust: set factor to 0.402
ElecMinimize: Iter: 156  F: -2011.133073227439127  |grad|_K:  2.822e-06  alpha:  1.001e-01  linmin: -6.604e-06  t[s]:  13238.44
	FillingsUpdate:  mu: +0.139014518  nElectrons: 347.000000  magneticMoment: [ Abs: 41.20389  Tot: +0.00000 ]
	SubspaceRotationAdjust: set factor to 0.464
ElecMinimize: Iter: 157  F: -2011.133194525366662  |grad|_K:  2.209e-06  alpha:  8.725e-02  linmin:  1.947e-06  t[s]:  13315.82
	FillingsUpdate:  mu: +0.138805613  nElectrons: 347.000000  magneticMoment: [ Abs: 41.20174  Tot: -0.00000 ]
	SubspaceRotationAdjust: set factor to 0.632
ElecMinimize: Iter: 158  F: -2011.133333862884911  |grad|_K:  2.105e-06  alpha:  1.647e-01  linmin:  1.802e-05  t[s]:  13394.35
	FillingsUpdate:  mu: +0.138133745  nElectrons: 347.000000  magneticMoment: [ Abs: 41.20785  Tot: +0.00000 ]
	SubspaceRotationAdjust: set factor to 0.486
ElecMinimize: Iter: 159  F: -2011.133434061633352  |grad|_K:  2.684e-06  alpha:  1.306e-01  linmin:  9.668e-07  t[s]:  13470.34
	FillingsUpdate:  mu: +0.138819074  nElectrons: 347.000000  magneticMoment: [ Abs: 41.19641  Tot: +0.00000 ]
	SubspaceRotationAdjust: set factor to 0.472
ElecMinimize: Iter: 160  F: -2011.133498825694460  |grad|_K:  2.134e-06  alpha:  5.160e-02  linmin: -4.605e-06  t[s]:  13549.08
	FillingsUpdate:  mu: +0.138558121  nElectrons: 347.000000  magneticMoment: [ Abs: 41.19732  Tot: -0.00000 ]
	SubspaceRotationAdjust: set factor to 0.659
ElecMinimize: Iter: 161  F: -2011.133603477834185  |grad|_K:  1.905e-06  alpha:  1.321e-01  linmin:  1.533e-05  t[s]:  13625.28
	FillingsUpdate:  mu: +0.137980474  nElectrons: 347.000000  magneticMoment: [ Abs: 41.20621  Tot: -0.00000 ]
	SubspaceRotationAdjust: set factor to 0.474
ElecMinimize: Iter: 162  F: -2011.133672040616602  |grad|_K:  2.631e-06  alpha:  1.089e-01  linmin:  1.716e-06  t[s]:  13704.18
	FillingsUpdate:  mu: +0.138587943  nElectrons: 347.000000  magneticMoment: [ Abs: 41.19805  Tot: +0.00000 ]
	SubspaceRotationAdjust: set factor to 0.523
ElecMinimize: Iter: 163  F: -2011.133732671911275  |grad|_K:  1.808e-06  alpha:  5.011e-02  linmin: -7.755e-06  t[s]:  13781.74
	FillingsUpdate:  mu: +0.138784099  nElectrons: 347.000000  magneticMoment: [ Abs: 41.19907  Tot: -0.00000 ]
	SubspaceRotationAdjust: set factor to 0.529
ElecMinimize: Iter: 164  F: -2011.133815991040819  |grad|_K:  1.898e-06  alpha:  1.467e-01  linmin:  2.216e-05  t[s]:  13859.14
	FillingsUpdate:  mu: +0.138113259  nElectrons: 347.000000  magneticMoment: [ Abs: 41.20952  Tot: -0.00000 ]
	SubspaceRotationAdjust: set factor to 0.448
ElecMinimize: Iter: 165  F: -2011.133858718424335  |grad|_K:  2.077e-06  alpha:  6.853e-02  linmin: -1.089e-06  t[s]:  13936.20
	FillingsUpdate:  mu: +0.138496536  nElectrons: 347.000000  magneticMoment: [ Abs: 41.20883  Tot: -0.00000 ]
	SubspaceRotationAdjust: set factor to 0.659
ElecMinimize: Iter: 166  F: -2011.133927729636980  |grad|_K:  1.595e-06  alpha:  9.196e-02  linmin:  1.153e-05  t[s]:  14012.22
	FillingsUpdate:  mu: +0.139103970  nElectrons: 347.000000  magneticMoment: [ Abs: 41.20703  Tot: -0.00000 ]
	SubspaceRotationAdjust: set factor to 0.467
ElecMinimize: Iter: 167  F: -2011.133985401354494  |grad|_K:  2.234e-06  alpha:  1.309e-01  linmin:  8.897e-06  t[s]:  14084.68
	FillingsUpdate:  mu: +0.138400216  nElectrons: 347.000000  magneticMoment: [ Abs: 41.21801  Tot: -0.00000 ]
	SubspaceRotationAdjust: set factor to 0.511
ElecMinimize: Iter: 168  F: -2011.134023302878404  |grad|_K:  1.606e-06  alpha:  4.378e-02  linmin: -1.236e-06  t[s]:  14163.31
ElecMinimize: 	Predicted alpha/alphaT>3.000000, increasing alphaT to 1.313477e-01.
	FillingsUpdate:  mu: +0.138299770  nElectrons: 347.000000  magneticMoment: [ Abs: 41.22534  Tot: -0.00000 ]
	SubspaceRotationAdjust: set factor to 0.448
ElecMinimize: Iter: 169  F: -2011.134083608935043  |grad|_K:  1.743e-06  alpha:  1.342e-01  linmin:  3.482e-06  t[s]:  14271.63
	FillingsUpdate:  mu: +0.138934200  nElectrons: 347.000000  magneticMoment: [ Abs: 41.22098  Tot: +0.00000 ]
	SubspaceRotationAdjust: set factor to 0.438
ElecMinimize: Iter: 170  F: -2011.134112480127669  |grad|_K:  1.596e-06  alpha:  5.460e-02  linmin: -1.422e-06  t[s]:  14349.30
	FillingsUpdate:  mu: +0.138887397  nElectrons: 347.000000  magneticMoment: [ Abs: 41.22703  Tot: +0.00000 ]
	SubspaceRotationAdjust: set factor to 0.433
ElecMinimize: Iter: 171  F: -2011.134163908368464  |grad|_K:  1.491e-06  alpha:  1.160e-01  linmin:  3.967e-06  t[s]:  14426.25
	FillingsUpdate:  mu: +0.138295199  nElectrons: 347.000000  magneticMoment: [ Abs: 41.23672  Tot: +0.00000 ]
	SubspaceRotationAdjust: set factor to 0.401
ElecMinimize: Iter: 172  F: -2011.134188246850272  |grad|_K:  1.481e-06  alpha:  6.297e-02  linmin: -3.380e-08  t[s]:  14499.41
	FillingsUpdate:  mu: +0.138362238  nElectrons: 347.000000  magneticMoment: [ Abs: 41.24125  Tot: +0.00000 ]
	SubspaceRotationAdjust: set factor to 0.433
ElecMinimize: Iter: 173  F: -2011.134230389864115  |grad|_K:  1.293e-06  alpha:  1.104e-01  linmin:  3.246e-07  t[s]:  14577.45
	FillingsUpdate:  mu: +0.138941594  nElectrons: 347.000000  magneticMoment: [ Abs: 41.23801  Tot: -0.00000 ]
	SubspaceRotationAdjust: set factor to 0.383
ElecMinimize: Iter: 174  F: -2011.134251467695776  |grad|_K:  1.380e-06  alpha:  7.245e-02  linmin: -3.879e-07  t[s]:  14652.16
	FillingsUpdate:  mu: +0.138841153  nElectrons: 347.000000  magneticMoment: [ Abs: 41.24473  Tot: +0.00000 ]
	SubspaceRotationAdjust: set factor to 0.491
ElecMinimize: Iter: 175  F: -2011.134286201268196  |grad|_K:  1.125e-06  alpha:  1.047e-01  linmin: -3.274e-06  t[s]:  14730.23
	FillingsUpdate:  mu: +0.138437380  nElectrons: 347.000000  magneticMoment: [ Abs: 41.25309  Tot: -0.00000 ]
	SubspaceRotationAdjust: set factor to 0.385
ElecMinimize: Iter: 176  F: -2011.134306341285082  |grad|_K:  1.393e-06  alpha:  9.133e-02  linmin: -9.763e-07  t[s]:  14807.46
	FillingsUpdate:  mu: +0.138805330  nElectrons: 347.000000  magneticMoment: [ Abs: 41.25309  Tot: -0.00000 ]
	SubspaceRotationAdjust: set factor to 0.574
ElecMinimize: Iter: 177  F: -2011.134333195649106  |grad|_K:  9.920e-07  alpha:  7.942e-02  linmin: -7.410e-07  t[s]:  14884.43
	FillingsUpdate:  mu: +0.139220913  nElectrons: 347.000000  magneticMoment: [ Abs: 41.25243  Tot: -0.00000 ]
	SubspaceRotationAdjust: set factor to 0.427
ElecMinimize: Iter: 178  F: -2011.134356996601355  |grad|_K:  1.363e-06  alpha:  1.388e-01  linmin: -1.226e-06  t[s]:  14961.93
	FillingsUpdate:  mu: +0.138770502  nElectrons: 347.000000  magneticMoment: [ Abs: 41.25947  Tot: +0.00000 ]
	SubspaceRotationAdjust: set factor to 0.453
ElecMinimize: Iter: 179  F: -2011.134372776595455  |grad|_K:  9.933e-07  alpha:  4.883e-02  linmin:  2.558e-06  t[s]:  15038.93
	FillingsUpdate:  mu: +0.138672775  nElectrons: 347.000000  magneticMoment: [ Abs: 41.26368  Tot: +0.00000 ]
	SubspaceRotationAdjust: set factor to 0.411
ElecMinimize: Iter: 180  F: -2011.134397211184023  |grad|_K:  1.111e-06  alpha:  1.422e-01  linmin: -3.944e-06  t[s]:  15117.38
	FillingsUpdate:  mu: +0.139102715  nElectrons: 347.000000  magneticMoment: [ Abs: 41.26010  Tot: -0.00000 ]
	SubspaceRotationAdjust: set factor to 0.403
ElecMinimize: Iter: 181  F: -2011.134409701379809  |grad|_K:  9.727e-07  alpha:  5.802e-02  linmin:  5.825e-07  t[s]:  15196.62
	FillingsUpdate:  mu: +0.139142093  nElectrons: 347.000000  magneticMoment: [ Abs: 41.26141  Tot: +0.00000 ]
	SubspaceRotationAdjust: set factor to 0.398
ElecMinimize: Iter: 182  F: -2011.134430828266431  |grad|_K:  9.555e-07  alpha:  1.282e-01  linmin: -2.861e-06  t[s]:  15273.25
	FillingsUpdate:  mu: +0.138747831  nElectrons: 347.000000  magneticMoment: [ Abs: 41.26639  Tot: +0.00000 ]
	SubspaceRotationAdjust: set factor to 0.398
ElecMinimize: Iter: 183  F: -2011.134441236261409  |grad|_K:  9.092e-07  alpha:  6.542e-02  linmin:  3.556e-07  t[s]:  15351.54
	FillingsUpdate:  mu: +0.138785648  nElectrons: 347.000000  magneticMoment: [ Abs: 41.26677  Tot: +0.00000 ]
	SubspaceRotationAdjust: set factor to 0.393
ElecMinimize: Iter: 184  F: -2011.134459520409109  |grad|_K:  8.778e-07  alpha:  1.270e-01  linmin: -2.112e-06  t[s]:  15426.34
	FillingsUpdate:  mu: +0.139187674  nElectrons: 347.000000  magneticMoment: [ Abs: 41.26252  Tot: +0.00000 ]
	SubspaceRotationAdjust: set factor to 0.368
ElecMinimize: Iter: 185  F: -2011.134469044237449  |grad|_K:  8.993e-07  alpha:  7.095e-02  linmin:  2.345e-07  t[s]:  15503.95
	FillingsUpdate:  mu: +0.139154607  nElectrons: 347.000000  magneticMoment: [ Abs: 41.26236  Tot: +0.00000 ]
	SubspaceRotationAdjust: set factor to 0.398
ElecMinimize: Iter: 186  F: -2011.134486640691193  |grad|_K:  8.408e-07  alpha:  1.249e-01  linmin: -1.885e-06  t[s]:  15582.49
	FillingsUpdate:  mu: +0.138771549  nElectrons: 347.000000  magneticMoment: [ Abs: 41.26587  Tot: -0.00000 ]
	SubspaceRotationAdjust: set factor to 0.352
ElecMinimize: Iter: 187  F: -2011.134496571416776  |grad|_K:  9.277e-07  alpha:  8.062e-02  linmin: -1.534e-07  t[s]:  15651.41
	FillingsUpdate:  mu: +0.138833530  nElectrons: 347.000000  magneticMoment: [ Abs: 41.26300  Tot: +0.00000 ]
	SubspaceRotationAdjust: set factor to 0.443
ElecMinimize: Iter: 188  F: -2011.134514578526478  |grad|_K:  8.206e-07  alpha:  1.202e-01  linmin: -1.320e-06  t[s]:  15729.49
	FillingsUpdate:  mu: +0.139220318  nElectrons: 347.000000  magneticMoment: [ Abs: 41.25725  Tot: +0.00000 ]
[...]
	SubspaceRotationAdjust: set factor to 0.144
ElecMinimize: Iter:  21  F: -2011.163585516264675  |grad|_K:  1.686e-07  alpha:  3.596e-01  linmin: -5.689e-07  t[s]:  82662.67
	FillingsUpdate:  mu: +0.136595135  nElectrons: 347.000000  magneticMoment: [ Abs: 41.50858  Tot: -0.00000 ]
	SubspaceRotationAdjust: set factor to 0.122
ElecMinimize: Iter:  22  F: -2011.163587006237321  |grad|_K:  1.515e-07  alpha:  3.010e-01  linmin:  9.461e-08  t[s]:  82741.86
	FillingsUpdate:  mu: +0.136570500  nElectrons: 347.000000  magneticMoment: [ Abs: 41.50813  Tot: -0.00000 ]
	SubspaceRotationAdjust: set factor to 0.113
ElecMinimize: Iter:  23  F: -2011.163588291413589  |grad|_K:  1.244e-07  alpha:  3.215e-01  linmin: -8.435e-07  t[s]:  82818.98
	FillingsUpdate:  mu: +0.136580031  nElectrons: 347.000000  magneticMoment: [ Abs: 41.50859  Tot: -0.00000 ]
	SubspaceRotationAdjust: set factor to 0.118
ElecMinimize: Iter:  24  F: -2011.163589284863747  |grad|_K:  9.871e-08  alpha:  3.688e-01  linmin:  1.833e-06  t[s]:  82896.04
	FillingsUpdate:  mu: +0.136583174  nElectrons: 347.000000  magneticMoment: [ Abs: 41.50898  Tot: -0.00000 ]
	SubspaceRotationAdjust: set factor to 0.123
ElecMinimize: Iter:  25  F: -2011.163589922664187  |grad|_K:  8.177e-08  alpha:  3.762e-01  linmin: -1.625e-07  t[s]:  82973.48
	FillingsUpdate:  mu: +0.136570824  nElectrons: 347.000000  magneticMoment: [ Abs: 41.50887  Tot: +0.00000 ]
	SubspaceRotationAdjust: set factor to 0.121
ElecMinimize: Iter:  26  F: -2011.163590314087742  |grad|_K:  6.723e-08  alpha:  3.362e-01  linmin:  4.003e-06  t[s]:  83050.83
	FillingsUpdate:  mu: +0.136583252  nElectrons: 347.000000  magneticMoment: [ Abs: 41.50941  Tot: -0.00000 ]
	SubspaceRotationAdjust: set factor to 0.115
ElecMinimize: Iter:  27  F: -2011.163590566517541  |grad|_K:  5.588e-08  alpha:  3.210e-01  linmin:  6.338e-07  t[s]:  83127.11
	FillingsUpdate:  mu: +0.136574441  nElectrons: 347.000000  magneticMoment: [ Abs: 41.50931  Tot: -0.00000 ]
	SubspaceRotationAdjust: set factor to 0.121
ElecMinimize: Iter:  28  F: -2011.163590744009070  |grad|_K:  4.559e-08  alpha:  3.266e-01  linmin: -5.581e-06  t[s]:  83206.13
ElecMinimize: Converged (|Delta F|<1.000000e-06 for 5 iters).
Setting wave functions to eigenvectors of Hamiltonian

# Ionic positions in lattice coordinates:
ion Ni   0.016235226229678   0.000724414221725   0.151908163648655 1
ion Ni   0.498049123079703   0.500644393433860   0.145722540477261 1
ion Ni   0.251528565629469   0.248870145414039   0.053448620838981 1
ion Ni   0.251494732977868   0.751375260117380   0.053563220904550 1
ion Co   0.499087375252770   0.000458045127555   0.156283613794152 1
ion Co  -0.255208688454899   0.247734783200283   0.057116716423553 1
ion Co  -0.255115949089972   0.752601209608938   0.057171389685246 1
ion Co   0.000000000000000   0.000000000000000  -0.050000000000000 0
ion V   0.000162937831151   0.499848165135524   0.155042960416166 1
ion V   0.500000000000000   0.000000000000000  -0.050000000000000 0
ion V   0.500000000000000   0.500000000000000  -0.050000000000000 0
ion V   0.250000000000000   0.250000000000000  -0.150000000000000 0
ion V   0.250000000000000   0.750000000000000  -0.150000000000000 0
ion V  -0.250000000000000   0.250000000000000  -0.150000000000000 0
ion V  -0.250000000000000   0.750000000000000  -0.150000000000000 0
ion Cr   0.000000000000000   0.500000000000000  -0.050000000000000 0
ion O   0.271295330295383   0.263667453147129   0.145965927258429 1
ion O   0.270754160637861   0.737548760771337   0.146184759178461 1
ion O  -0.274258558468476   0.265953685817550   0.150625380057930 1
ion O  -0.273381498440608   0.735887258712988   0.150776914686644 1
ion O   0.008038528026793   0.000006436757052   0.056426204484786 1
ion O   0.495172723280904   0.000063512169935   0.049230407048823 1
ion O   0.009621319444090   0.500215866295359   0.046159396830999 1
ion O   0.493232841845924   0.500459683747964   0.047611357747419 1
ion O   0.250000000000000   0.250000000000000  -0.050000000000000 0
ion O   0.250000000000000   0.750000000000000  -0.050000000000000 0
ion O  -0.250000000000000   0.250000000000000  -0.050000000000000 0
ion O  -0.250000000000000   0.750000000000000  -0.050000000000000 0
ion O   0.000000000000000   0.000000000000000  -0.150000000000000 0
ion O   0.500000000000000   0.000000000000000  -0.150000000000000 0
ion O   0.000000000000000   0.500000000000000  -0.150000000000000 0
ion O   0.500000000000000   0.500000000000000  -0.150000000000000 0
ion O   0.008131674990307   0.006170727030666   0.230881747840750 1

# Forces in Lattice coordinates:
force Ni   0.003850145609430  -0.000848200041059  -0.017748091974185 1
force Ni  -0.002904584801463   0.003282205462571  -0.008659528878955 1
force Ni  -0.001524521728843  -0.000349991980686  -0.013828725631603 1
force Ni  -0.001540614933330   0.001450165041578  -0.010369576850840 1
force Co  -0.001593547652219  -0.000548156320238   0.001603981059576 1
force Co  -0.006313735814545  -0.001690439102909  -0.001353389350553 1
force Co  -0.006226109906145   0.002411407298585   0.003528435055660 1
force Co   0.019249632882443  -0.000457395913458   0.622928852835587 0
force V   0.007050098256755   0.016586781018419   0.070608425293607 1
force V  -0.104074666396173  -0.000485408062654   0.749646398327748 0
force V  -0.099673714351676   0.001210250652537   0.571846312708141 0
force V   0.033633266927501  -0.036647423820679  -0.315676700076525 0
force V   0.033630883468673   0.036627444407250  -0.314882616375506 0
force V   0.024753214082728  -0.024630028779073  -0.494629590369327 0
force V   0.024751067179942   0.024632980969015  -0.493885096089310 0
force Cr  -0.005844928569793   0.001229611802202   0.660830809358139 0
force O   0.003112887954060   0.000942712390599  -0.013945106224611 1
force O   0.004985139162697  -0.002615950460667  -0.019058424412348 1
force O  -0.006525945386010   0.008679457687490  -0.016274476276397 1
force O  -0.007804181376095  -0.007761874989638  -0.021832837636829 1
force O   0.005142151624276   0.001455925857691  -0.032100881259475 1
force O   0.000971557061658   0.001281880394757  -0.008003583388708 1
force O   0.004234073619483  -0.000270734632424  -0.034928596600549 1
force O   0.000695366659947   0.000327133379197   0.012181892754965 1
force O  -0.004318429208828  -0.037424249274759  -0.103243842414543 0
force O  -0.004249785892285   0.037487815910311  -0.104756077477123 0
force O  -0.016538693119048  -0.045926434536540  -0.121394773586478 0
force O  -0.016535861992889   0.046045066739201  -0.125114680725451 0
force O   0.011175298445867   0.000085276952343  -0.138791758507282 0
force O   0.033805954054216   0.000074568562938  -0.330360341640736 0
force O   0.030767426194806  -0.000176310776047   0.296146815033154 0
force O   0.037290615869186  -0.000238349179299  -0.368462530030174 0
force O   0.005437295421706  -0.000131612108034  -0.012755078956449 1

# Energy components:
   Eewald =     5681.7904381892740275
       EH =     7498.3063070210591832
     Eloc =   -15353.9431721301552898
      Enl =     -521.0248121116344464
   Epulay =       -0.0004829005249220
      Exc =     -246.3163814691317270
       KE =      928.8921709728003862
        U =        1.1336493857164776
-------------------------------------
     Etot =    -2011.1622830425969823
       TS =        0.0013077014119902
-------------------------------------
        F =    -2011.1635907440090705

IonicMinimize: Iter:  17  F: -2011.163590744009070  |grad|_K:  4.845e-04  alpha:  1.000e+00  linmin:  1.884e-02  t[s]:  83218.51

#--- Lowdin population analysis ---
# oxidation-state Ni +3.464 +3.691 +3.525 +3.526
# magnetic-moments Ni +0.630 +0.648 +0.969 +0.970
# oxidation-state Co +1.280 +1.190 +1.190 +1.213
# magnetic-moments Co -2.758 -2.623 -2.623 -2.675
# oxidation-state V +1.154 +1.040 +1.023 +1.038 +1.038 +1.041 +1.041
# magnetic-moments V +2.922 +2.681 +2.713 -2.916 -2.916 +2.935 +2.935
# oxidation-state Cr +2.895
# magnetic-moments Cr -3.577
# oxidation-state O -0.753 -0.755 -0.858 -0.858 -0.839 -0.892 -0.833 -0.828 -0.881 -0.881 -0.934 -0.934 -0.987 -0.959 -0.925 -0.962 -0.363
# magnetic-moments O +0.185 +0.186 -0.112 -0.110 +0.156 +0.084 +0.194 +0.228 +0.017 +0.017 -0.069 -0.069 -0.059 -0.003 +0.040 -0.002 +1.229


-------- Electronic minimization -----------
	FillingsUpdate:  mu: +0.138052236  nElectrons: 347.000000  magneticMoment: [ Abs: 41.51643  Tot: -0.00000 ]
ElecMinimize: Iter:   0  F: -2011.161454496850638  |grad|_K:  8.080e-06  alpha:  1.000e+00
	FillingsUpdate:  mu: +0.135927676  nElectrons: 347.000000  magneticMoment: [ Abs: 41.49778  Tot: -0.00000 ]
	SubspaceRotationAdjust: set factor to 0.087
ElecMinimize: Iter:   1  F: -2011.163426519666700  |grad|_K:  2.015e-06  alpha:  1.742e-01  linmin:  2.391e-03  t[s]:  83344.07
	FillingsUpdate:  mu: +0.136595700  nElectrons: 347.000000  magneticMoment: [ Abs: 41.50805  Tot: +0.00000 ]
	SubspaceRotationAdjust: set factor to 0.057
ElecMinimize: Iter:   2  F: -2011.163541452093341  |grad|_K:  7.902e-07  alpha:  1.632e-01  linmin:  1.968e-04  t[s]:  83421.77
	FillingsUpdate:  mu: +0.136524723  nElectrons: 347.000000  magneticMoment: [ Abs: 41.50604  Tot: +0.00000 ]
	SubspaceRotationAdjust: set factor to 0.0645
ElecMinimize: Iter:   3  F: -2011.163575676783012  |grad|_K:  4.175e-07  alpha:  3.151e-01  linmin: -1.860e-05  t[s]:  83497.19
	FillingsUpdate:  mu: +0.136499641  nElectrons: 347.000000  magneticMoment: [ Abs: 41.50534  Tot: +0.00000 ]
	SubspaceRotationAdjust: set factor to 0.0697
ElecMinimize: Iter:   4  F: -2011.163585394452411  |grad|_K:  3.045e-07  alpha:  3.201e-01  linmin: -2.582e-06  t[s]:  83574.24
	FillingsUpdate:  mu: +0.136521258  nElectrons: 347.000000  magneticMoment: [ Abs: 41.50590  Tot: -0.00000 ]
	SubspaceRotationAdjust: set factor to 0.0795
ElecMinimize: Iter:   5  F: -2011.163590819435058  |grad|_K:  2.350e-07  alpha:  3.360e-01  linmin:  2.001e-06  t[s]:  83652.86
	FillingsUpdate:  mu: +0.136518197  nElectrons: 347.000000  magneticMoment: [ Abs: 41.50610  Tot: -0.00000 ]
	SubspaceRotationAdjust: set factor to 0.095
ElecMinimize: Iter:   6  F: -2011.163594301129478  |grad|_K:  2.120e-07  alpha:  3.623e-01  linmin:  9.499e-07  t[s]:  83733.11
	FillingsUpdate:  mu: +0.136498146  nElectrons: 347.000000  magneticMoment: [ Abs: 41.50586  Tot: +0.00000 ]
	SubspaceRotationAdjust: set factor to 0.114
ElecMinimize: Iter:   7  F: -2011.163597450072757  |grad|_K:  1.929e-07  alpha:  4.025e-01  linmin:  5.048e-08  t[s]:  83808.71
	FillingsUpdate:  mu: +0.136532563  nElectrons: 347.000000  magneticMoment: [ Abs: 41.50669  Tot: -0.00000 ]
	SubspaceRotationAdjust: set factor to 0.131
ElecMinimize: Iter:   8  F: -2011.163600581148103  |grad|_K:  2.108e-07  alpha:  4.832e-01  linmin:  1.116e-06  t[s]:  83885.00
	FillingsUpdate:  mu: +0.136535370  nElectrons: 347.000000  magneticMoment: [ Abs: 41.50677  Tot: +0.00000 ]
	SubspaceRotationAdjust: set factor to 0.146
ElecMinimize: Iter:   9  F: -2011.163603932807064  |grad|_K:  2.099e-07  alpha:  4.334e-01  linmin: -1.324e-06  t[s]:  83965.20
	FillingsUpdate:  mu: +0.136557091  nElectrons: 347.000000  magneticMoment: [ Abs: 41.50784  Tot: -0.00000 ]
	SubspaceRotationAdjust: set factor to 0.158
ElecMinimize: Iter:  10  F: -2011.163607266163126  |grad|_K:  2.049e-07  alpha:  4.343e-01  linmin:  7.927e-07  t[s]:  84044.49
	FillingsUpdate:  mu: +0.136551262  nElectrons: 347.000000  magneticMoment: [ Abs: 41.50820  Tot: +0.00000 ]
	SubspaceRotationAdjust: set factor to 0.169
ElecMinimize: Iter:  11  F: -2011.163609846549434  |grad|_K:  1.750e-07  alpha:  3.531e-01  linmin: -4.276e-07  t[s]:  84123.51
	FillingsUpdate:  mu: +0.136558284  nElectrons: 347.000000  magneticMoment: [ Abs: 41.50889  Tot: +0.00000 ]
	SubspaceRotationAdjust: set factor to 0.179
ElecMinimize: Iter:  12  F: -2011.163611777541064  |grad|_K:  1.407e-07  alpha:  3.622e-01  linmin:  4.688e-07  t[s]:  84200.38
	FillingsUpdate:  mu: +0.136539734  nElectrons: 347.000000  magneticMoment: [ Abs: 41.50886  Tot: +0.00000 ]
	SubspaceRotationAdjust: set factor to 0.181
ElecMinimize: Iter:  13  F: -2011.163613044079057  |grad|_K:  1.184e-07  alpha:  3.673e-01  linmin: -2.805e-06  t[s]:  84278.61
	FillingsUpdate:  mu: +0.136562807  nElectrons: 347.000000  magneticMoment: [ Abs: 41.50975  Tot: +0.00000 ]
	SubspaceRotationAdjust: set factor to 0.151
ElecMinimize: Iter:  14  F: -2011.163613677160583  |grad|_K:  1.049e-07  alpha:  2.592e-01  linmin: -3.849e-07  t[s]:  84353.75
	FillingsUpdate:  mu: +0.136539423  nElectrons: 347.000000  magneticMoment: [ Abs: 41.50914  Tot: -0.00000 ]
	SubspaceRotationAdjust: set factor to 0.112
ElecMinimize: Iter:  15  F: -2011.163614081420974  |grad|_K:  8.078e-08  alpha:  2.112e-01  linmin: -1.477e-06  t[s]:  84432.14
	FillingsUpdate:  mu: +0.136552223  nElectrons: 347.000000  magneticMoment: [ Abs: 41.50948  Tot: +0.00000 ]
	SubspaceRotationAdjust: set factor to 0.128
ElecMinimize: Iter:  16  F: -2011.163614404551481  |grad|_K:  6.063e-08  alpha:  2.845e-01  linmin:  1.996e-06  t[s]:  84509.03
	FillingsUpdate:  mu: +0.136560512  nElectrons: 347.000000  magneticMoment: [ Abs: 41.50973  Tot: +0.00000 ]
	SubspaceRotationAdjust: set factor to 0.141
ElecMinimize: Iter:  17  F: -2011.163614612508582  |grad|_K:  5.294e-08  alpha:  3.249e-01  linmin:  1.272e-05  t[s]:  84587.68
	FillingsUpdate:  mu: +0.136548376  nElectrons: 347.000000  magneticMoment: [ Abs: 41.50948  Tot: -0.00000 ]
	SubspaceRotationAdjust: set factor to 0.136
ElecMinimize: Iter:  18  F: -2011.163614751656951  |grad|_K:  4.531e-08  alpha:  2.855e-01  linmin: -1.001e-05  t[s]:  84666.80
ElecMinimize: Converged (|Delta F|<1.000000e-06 for 5 iters).
Setting wave functions to eigenvectors of Hamiltonian

# Ionic positions in lattice coordinates:
ion Ni   0.016612387590304   0.000705270078700   0.151871073043424 1
ion Ni   0.497733884597672   0.500781511885775   0.145723409584312 1
ion Ni   0.251466648043460   0.248859851286329   0.053485301048440 1
ion Ni   0.251432765941361   0.751444304584244   0.053607088544337 1
ion Co   0.499196446468111   0.000467637027022   0.156395460432850 1
ion Co  -0.255430418834057   0.247671026158750   0.057235748032062 1
ion Co  -0.255331381946609   0.752717036323009   0.057301150062358 1
ion Co   0.000000000000000   0.000000000000000  -0.050000000000000 0
ion V   0.000395611956111   0.500445724475031   0.155113495214655 1
ion V   0.500000000000000   0.000000000000000  -0.050000000000000 0
ion V   0.500000000000000   0.500000000000000  -0.050000000000000 0
ion V   0.250000000000000   0.250000000000000  -0.150000000000000 0
ion V   0.250000000000000   0.750000000000000  -0.150000000000000 0
ion V  -0.250000000000000   0.250000000000000  -0.150000000000000 0
ion V  -0.250000000000000   0.750000000000000  -0.150000000000000 0
ion Cr   0.000000000000000   0.500000000000000  -0.050000000000000 0
ion O   0.271638056871459   0.263736556342181   0.145921353311239 1
ion O   0.271196682134836   0.737443292196626   0.146124425671728 1
ion O  -0.274828372319095   0.266413816290826   0.150694231078991 1
ion O  -0.273988483879418   0.735529919093076   0.150833247523946 1
ion O   0.008174017439598   0.000071764908157   0.056271076906625 1
ion O   0.495210999086309   0.000113455218136   0.049176405599835 1
ion O   0.009611363624436   0.500219229891566   0.046074473452381 1
ion O   0.493173352917006   0.500494166460291   0.047618715439318 1
ion O   0.250000000000000   0.250000000000000  -0.050000000000000 0
ion O   0.250000000000000   0.750000000000000  -0.050000000000000 0
ion O  -0.250000000000000   0.250000000000000  -0.050000000000000 0
ion O  -0.250000000000000   0.750000000000000  -0.050000000000000 0
ion O   0.000000000000000   0.000000000000000  -0.150000000000000 0
ion O   0.500000000000000   0.000000000000000  -0.150000000000000 0
ion O   0.000000000000000   0.500000000000000  -0.150000000000000 0
ion O   0.500000000000000   0.500000000000000  -0.150000000000000 0
ion O   0.008599033327327   0.006192699458042   0.230928326232756 1

# Forces in Lattice coordinates:
force Ni   0.000140073207478   0.002006098455229   0.035501633279742 1
force Ni   0.003610628497609  -0.000740079958977   0.008005376991734 1
force Ni  -0.001774947713827   0.000274049434204  -0.002407743050583 1
force Ni  -0.002180723373417   0.001660233310556  -0.007647445187456 1
force Co   0.004256919715825   0.002453610044653   0.012030713647651 1
force Co  -0.000916096689950   0.000018316375247   0.009816152228433 1
force Co  -0.000885938673616   0.001507782628478   0.004132000285837 1
force Co   0.018477138950493  -0.000489489330137   0.632823174591809 0
force V  -0.008317555443518  -0.002620069781585   0.062278925384899 1
force V  -0.103745337159687  -0.000519294906554   0.747158329976203 0
force V  -0.099151333797195   0.001231388684581   0.574183548888927 0
force V   0.033482861935734  -0.036704451007813  -0.317455367502051 0
force V   0.033474082626837   0.036690338841379  -0.316706869124169 0
force V   0.024814013326084  -0.024583942477859  -0.495333988712229 0
force V   0.024817453467519   0.024586786661463  -0.494506393391166 0
force Cr  -0.006499781502513   0.001394971811385   0.661967401384909 0
force O  -0.000815183188925  -0.000517317452283  -0.003759403551451 1
force O   0.001311666697149   0.001504480248684  -0.005007824429672 1
force O  -0.002103906819009   0.007102720116388  -0.018169385871200 1
force O  -0.003744977511707  -0.004047439792619  -0.017966198124316 1
force O   0.004029763173989   0.001258212661349  -0.023101177481355 1
force O   0.000618024876832   0.000791878314313  -0.002512965276607 1
force O   0.005401531067432  -0.000023647559943  -0.020557889114459 1
force O   0.001256370666865   0.000559661626630   0.012407713853886 1
force O  -0.002195302969642  -0.037588255348295  -0.104749207769933 0
force O  -0.002101449343054   0.037679091813390  -0.105270295237190 0
force O  -0.018770665056895  -0.046011500656503  -0.124473366530864 0
force O  -0.018724407685207   0.046105206754513  -0.128210283914554 0
force O   0.011231975186743   0.000085194848451  -0.140206457670145 0
force O   0.033851284316775   0.000070045966185  -0.328668961938504 0
force O   0.030617804864625  -0.000191422075882   0.291345513418772 0
force O   0.037276873628298  -0.000245237761330  -0.366470898897619 0
force O  -0.001762082349632  -0.000774070800851  -0.046446378192019 1

# Energy components:
   Eewald =     5680.7770556899986332
       EH =     7497.2856624434234618
     Eloc =   -15351.9092094357529277
      Enl =     -521.0234683504302211
   Epulay =       -0.0004829005249220
      Exc =     -246.3163537940486947
       KE =      928.8908886433390535
        U =        1.1335759138589190
-------------------------------------
     Etot =    -2011.1623317901364771
       TS =        0.0012829615204615
-------------------------------------
        F =    -2011.1636147516569508

IonicMinimize: Iter:  18  F: -2011.163614751656951  |grad|_K:  3.914e-04  alpha:  1.000e+00  linmin: -1.210e-02  t[s]:  84679.17
IonicMinimize: Converged (|Delta F|<1.000000e-04 for 3 iters).

#--- Lowdin population analysis ---
# oxidation-state Ni +3.461 +3.692 +3.525 +3.526
# magnetic-moments Ni +0.631 +0.646 +0.969 +0.971
# oxidation-state Co +1.280 +1.190 +1.190 +1.214
# magnetic-moments Co -2.758 -2.623 -2.623 -2.675
# oxidation-state V +1.153 +1.041 +1.025 +1.038 +1.038 +1.041 +1.041
# magnetic-moments V +2.926 +2.678 +2.711 -2.916 -2.916 +2.935 +2.935
# oxidation-state Cr +2.895
# magnetic-moments Cr -3.576
# oxidation-state O -0.753 -0.755 -0.857 -0.858 -0.839 -0.893 -0.832 -0.828 -0.881 -0.881 -0.934 -0.934 -0.987 -0.959 -0.925 -0.962 -0.364
# magnetic-moments O +0.186 +0.186 -0.111 -0.110 +0.157 +0.083 +0.195 +0.228 +0.017 +0.017 -0.069 -0.069 -0.059 -0.003 +0.040 -0.002 +1.230


Dumping 'run.ionpos' ... done
Dumping 'run.lattice' ... done
Dumping 'run.Ecomponents' ... done
End date and time: Sun May 18 10:12:12 2025  (Duration: 0-23:31:22.36)
Done!
