/var/spool/slurmd/job44150/slurm_script: line 9: module: command not found
/var/spool/slurmd/job44150/slurm_script: line 10: module: command not found

*************** JDFTx 1.7.0  ***************

Start date and time: Fri May  9 11:44:03 2025
Executable /data2/jt577/jdftx_eat_withLibXC/build/jdftx with command-line: -i /data2/jt577/May_2025/Relax_Mag/rel16+1_6/O/runs/calc_/run.in
Running on hosts (process indices):  node3403 (0-8)
Divided in process groups (process indices):  0 (0)  1 (1)  2 (2)  3 (3)  4 (4)  5 (5)  6 (6)  7 (7)  8 (8)
Resource initialization completed at t[s]:      0.00
Run totals: 9 processes, 90 threads, 0 GPUs


Input parsed successfully to the following command list (including defaults):

add-mix 
add-U 	Ni d 0.22 \
	Co d 0.2 \
	V d 0.12 \
	Cr d 0.16
basis kpoint-dependent
coords-type Lattice
core-overlap-check vector
coulomb-interaction Periodic
davidson-band-ratio 1.1
dump End IonicPositions Lattice Ecomponents
dump-name run.$VAR
elec-cutoff 30
elec-eigen-algo Davidson
elec-ex-corr gga-x-rpbe gga-c-pbe
elec-smearing Fermi 0.001
electronic-minimize  \
	dirUpdateScheme      FletcherReeves \
	linminMethod         DirUpdateRecommended \
	nIterations          1000 \
	history              15 \
	knormThreshold       0 \
	energyDiffThreshold  1e-06 \
	nEnergyDiff          5 \
	alphaTstart          1 \
	alphaTmin            1e-10 \
	updateTestStepSize   yes \
	alphaTreduceFactor   0.1 \
	alphaTincreaseFactor 3 \
	nAlphaAdjustMax      3 \
	wolfeEnergy          0.0001 \
	wolfeGradient        0.9 \
	fdTest               no
exchange-regularization WignerSeitzTruncated
fluid None
fluid-ex-corr (null) lda-PZ
fluid-gummel-loop 10 1.000000e-05
fluid-minimize  \
	dirUpdateScheme      PolakRibiere \
	linminMethod         DirUpdateRecommended \
	nIterations          100 \
	history              15 \
	knormThreshold       0 \
	energyDiffThreshold  0 \
	nEnergyDiff          2 \
	alphaTstart          1 \
	alphaTmin            1e-10 \
	updateTestStepSize   yes \
	alphaTreduceFactor   0.1 \
	alphaTincreaseFactor 3 \
	nAlphaAdjustMax      3 \
	wolfeEnergy          0.0001 \
	wolfeGradient        0.9 \
	fdTest               no
fluid-solvent H2O 55.338 ScalarEOS \
	epsBulk 78.4 \
	pMol 0.92466 \
	epsInf 1.77 \
	Pvap 1.06736e-10 \
	sigmaBulk 4.62e-05 \
	Rvdw 2.61727 \
	Res 1.42 \
	tauNuc 343133 \
	poleEl 15 7 1
forces-output-coords Positions
initial-magnetic-moments  \
	Ni 1 -1 1 1 \
	Co -1 -1 -1 -1 \
	V 1 1 1 -1 -1 1 1 \
	Cr -1
initial-state run.$VAR
ion Ni  0.000000000000000   0.000000000000000   0.150000000000000 1
ion Ni  0.500000000000000   0.500000000000000   0.150000000000000 1
ion Ni  0.250000000000000   0.250000000000000   0.050000000000000 1
ion Ni  0.250000000000000   0.750000000000000   0.050000000000000 1
ion Co  0.500000000000000   0.000000000000000   0.150000000000000 1
ion Co -0.250000000000000   0.250000000000000   0.050000000000000 1
ion Co -0.250000000000000   0.750000000000000   0.050000000000000 1
ion Co  0.000000000000000   0.000000000000000  -0.050000000000000 0
ion V  0.000000000000000   0.500000000000000   0.150000000000000 1
ion V  0.500000000000000   0.000000000000000  -0.050000000000000 0
ion V  0.500000000000000   0.500000000000000  -0.050000000000000 0
ion V  0.250000000000000   0.250000000000000  -0.150000000000000 0
ion V  0.250000000000000   0.750000000000000  -0.150000000000000 0
ion V -0.250000000000000   0.250000000000000  -0.150000000000000 0
ion V -0.250000000000000   0.750000000000000  -0.150000000000000 0
ion Cr  0.000000000000000   0.500000000000000  -0.050000000000000 0
ion O  0.250000000000000   0.250000000000000   0.150000000000000 1
ion O  0.250000000000000   0.750000000000000   0.150000000000000 1
ion O -0.250000000000000   0.250000000000000   0.150000000000000 1
ion O -0.250000000000000   0.750000000000000   0.150000000000000 1
ion O  0.000000000000000   0.000000000000000   0.050000000000000 1
ion O  0.500000000000000   0.000000000000000   0.050000000000000 1
ion O  0.000000000000000   0.500000000000000   0.050000000000000 1
ion O  0.500000000000000   0.500000000000000   0.050000000000000 1
ion O  0.250000000000000   0.250000000000000  -0.050000000000000 0
ion O  0.250000000000000   0.750000000000000  -0.050000000000000 0
ion O -0.250000000000000   0.250000000000000  -0.050000000000000 0
ion O -0.250000000000000   0.750000000000000  -0.050000000000000 0
ion O  0.000000000000000   0.000000000000000  -0.150000000000000 0
ion O  0.500000000000000   0.000000000000000  -0.150000000000000 0
ion O  0.000000000000000   0.500000000000000  -0.150000000000000 0
ion O  0.500000000000000   0.500000000000000  -0.150000000000000 0
ion O -0.000095572322686   0.000198307128402   0.224876729873325 1
ion-species SG15/$ID_ONCV_PBE.upf
ion-width 0
ionic-minimize  \
	dirUpdateScheme      L-BFGS \
	linminMethod         DirUpdateRecommended \
	nIterations          1000 \
	history              15 \
	knormThreshold       0.0001 \
	energyDiffThreshold  0.0001 \
	nEnergyDiff          3 \
	alphaTstart          1 \
	alphaTmin            1e-10 \
	updateTestStepSize   yes \
	alphaTreduceFactor   0.1 \
	alphaTincreaseFactor 3 \
	nAlphaAdjustMax      3 \
	wolfeEnergy          0.0001 \
	wolfeGradient        0.9 \
	fdTest               no
kpoint   0.500000000000   0.500000000000   0.500000000000  1.00000000000000
kpoint-folding 3 3 1 
latt-move-scale 1 1 1
latt-scale 1 1 1 
lattice  \
	   8.140000000000001    8.140000000000001    0.000000000000000  \
	   8.140000000000001   -8.140000000000001    0.000000000000000  \
	   0.000000000000000    0.000000000000000   40.700000000000003 
lattice-minimize  \
	dirUpdateScheme      L-BFGS \
	linminMethod         DirUpdateRecommended \
	nIterations          0 \
	history              15 \
	knormThreshold       0 \
	energyDiffThreshold  1e-06 \
	nEnergyDiff          2 \
	alphaTstart          1 \
	alphaTmin            1e-10 \
	updateTestStepSize   yes \
	alphaTreduceFactor   0.1 \
	alphaTincreaseFactor 3 \
	nAlphaAdjustMax      3 \
	wolfeEnergy          0.0001 \
	wolfeGradient        0.9 \
	fdTest               no
lcao-params -1 1e-06 0.001
pcm-variant GLSSA13
spintype z-spin
subspace-rotation-factor 1 yes
symmetries none
symmetry-threshold 0.0001


Applied RMS atom displacement 0 bohrs to make symmetries exact.

---------- Initializing the Grid ----------
R = 
[         8.14         8.14            0  ]
[         8.14        -8.14            0  ]
[            0            0         40.7  ]
unit cell volume = 5393.53
G =
[   0.385945   0.385945         -0  ]
[   0.385945  -0.385945         -0  ]
[         -0         -0   0.154378  ]
Minimum fftbox size, Smin = [  60  60  204  ]
Chosen fftbox size, S = [  60  60  210  ]

---------- Exchange Correlation functional ----------
Initialized LibXC exchange functional 'Hammer, Hansen, and Norskov'
Initialized LibXC correlation functional 'Perdew, Burke & Ernzerhof'

---------- Setting up pseudopotentials ----------
Width of ionic core gaussian charges (only for fluid interactions / plotting) set to 0

Reading pseudopotential file '/data2/jt577/jdftx_eat_withLibXC/build/pseudopotentials/SG15/Ni_ONCV_PBE.upf':
  'Ni' pseudopotential, 'PBE' functional
  Generated using ONCVPSP code by D. R. Hamann
  Author: Martin Schlipf and Francois Gygi  Date: 150915.
  18 valence electrons, 4 orbitals, 6 projectors, 1292 radial grid points, with lMax = 2
  Transforming local potential to a uniform radial grid of dG=0.02 with 1419 points.
  Transforming nonlocal projectors to a uniform radial grid of dG=0.02 with 528 points.
    3S    l: 0   occupation:  2.0   eigenvalue: -4.081355
    3P    l: 1   occupation:  6.0   eigenvalue: -2.623460
    4S    l: 0   occupation:  2.0   eigenvalue: -0.207378
    3D    l: 2   occupation:  8.0   eigenvalue: -0.326118
  Transforming atomic orbitals to a uniform radial grid of dG=0.02 with 528 points.
  WARNING: large normalization error in atomic orbital 1s (integral: 0.000006).
  Core radius for overlap checks: 1.99 bohrs.
  Reading pulay file /data2/jt577/jdftx_eat_withLibXC/build/pseudopotentials/SG15/Ni_ONCV_PBE.pulay ... using dE_dnG = -7.250568e-04 computed for Ecut = 30.

Reading pseudopotential file '/data2/jt577/jdftx_eat_withLibXC/build/pseudopotentials/SG15/Co_ONCV_PBE.upf':
  'Co' pseudopotential, 'PBE' functional
  Generated using ONCVPSP code by D. R. Hamann
  Author: Martin Schlipf and Francois Gygi  Date: 150915.
  17 valence electrons, 4 orbitals, 6 projectors, 1388 radial grid points, with lMax = 2
  Transforming local potential to a uniform radial grid of dG=0.02 with 1419 points.
  Transforming nonlocal projectors to a uniform radial grid of dG=0.02 with 528 points.
    3S    l: 0   occupation:  2.0   eigenvalue: -3.763303
    3P    l: 1   occupation:  6.0   eigenvalue: -2.412101
    4S    l: 0   occupation:  2.0   eigenvalue: -0.201022
    3D    l: 2   occupation:  7.0   eigenvalue: -0.301498
  Transforming atomic orbitals to a uniform radial grid of dG=0.02 with 528 points.
  Core radius for overlap checks: 1.94 bohrs.
  Reading pulay file /data2/jt577/jdftx_eat_withLibXC/build/pseudopotentials/SG15/Co_ONCV_PBE.pulay ... using dE_dnG = -9.787391e-05 computed for Ecut = 30.

Reading pseudopotential file '/data2/jt577/jdftx_eat_withLibXC/build/pseudopotentials/SG15/V_ONCV_PBE.upf':
  'V' pseudopotential, 'PBE' functional
  Generated using ONCVPSP code by D. R. Hamann
  Author: Martin Schlipf and Francois Gygi  Date: 150915.
  13 valence electrons, 4 orbitals, 6 projectors, 1536 radial grid points, with lMax = 2
  Transforming local potential to a uniform radial grid of dG=0.02 with 1419 points.
  Transforming nonlocal projectors to a uniform radial grid of dG=0.02 with 528 points.
    3S    l: 0   occupation:  2.0   eigenvalue: -2.581105
    3P    l: 1   occupation:  6.0   eigenvalue: -1.618486
    4S    l: 0   occupation:  2.0   eigenvalue: -0.172804
    3D    l: 2   occupation:  3.0   eigenvalue: -0.189795
  Transforming atomic orbitals to a uniform radial grid of dG=0.02 with 528 points.
  Core radius for overlap checks: 1.80 bohrs.
  Reading pulay file /data2/jt577/jdftx_eat_withLibXC/build/pseudopotentials/SG15/V_ONCV_PBE.pulay ... using dE_dnG = -1.698632e-04 computed for Ecut = 30.

Reading pseudopotential file '/data2/jt577/jdftx_eat_withLibXC/build/pseudopotentials/SG15/Cr_ONCV_PBE.upf':
  'Cr' pseudopotential, 'PBE' functional
  Generated using ONCVPSP code by D. R. Hamann
  Author: Martin Schlipf and Francois Gygi  Date: 150915.
  14 valence electrons, 4 orbitals, 6 projectors, 1160 radial grid points, with lMax = 2
  Transforming local potential to a uniform radial grid of dG=0.02 with 1419 points.
  Transforming nonlocal projectors to a uniform radial grid of dG=0.02 with 528 points.
    3S    l: 0   occupation:  2.0   eigenvalue: -2.865131
    3P    l: 1   occupation:  6.0   eigenvalue: -1.810600
    4S    l: 0   occupation:  2.0   eigenvalue: -0.180525
    3D    l: 2   occupation:  4.0   eigenvalue: -0.220312
  Transforming atomic orbitals to a uniform radial grid of dG=0.02 with 528 points.
  WARNING: large normalization error in atomic orbital 1s (integral: 0.000001).
  Core radius for overlap checks: 2.10 bohrs.
  Reading pulay file /data2/jt577/jdftx_eat_withLibXC/build/pseudopotentials/SG15/Cr_ONCV_PBE.pulay ... using dE_dnG = -9.817895e-06 computed for Ecut = 30.

Reading pseudopotential file '/data2/jt577/jdftx_eat_withLibXC/build/pseudopotentials/SG15/O_ONCV_PBE.upf':
  'O' pseudopotential, 'PBE' functional
  Generated using ONCVPSP code by D. R. Hamann
  Author: Martin Schlipf and Francois Gygi  Date: 150915.
  6 valence electrons, 2 orbitals, 4 projectors, 936 radial grid points, with lMax = 1
  Transforming local potential to a uniform radial grid of dG=0.02 with 1419 points.
  Transforming nonlocal projectors to a uniform radial grid of dG=0.02 with 528 points.
    2S    l: 0   occupation:  2.0   eigenvalue: -0.880572
    2P    l: 1   occupation:  4.0   eigenvalue: -0.331869
  Transforming atomic orbitals to a uniform radial grid of dG=0.02 with 528 points.
  Core radius for overlap checks: 1.29 bohrs.
  Reading pulay file /data2/jt577/jdftx_eat_withLibXC/build/pseudopotentials/SG15/O_ONCV_PBE.pulay ... using dE_dnG = -8.209514e-03 computed for Ecut = 30.

Initialized 5 species with 33 total atoms.

Folded 1 k-points by 3x3x1 to 9 k-points.

---------- Setting up k-points, bands, fillings ----------
No reducable k-points. 
Computing the number of bands and number of electrons
Calculating initial fillings.
nElectrons: 347.000000   nBands: 228   nStates: 18

----- Setting up reduced wavefunction bases (one per k-point) -----
average nbasis = 42312.000 , ideal nbasis = 42330.081

---------- Setting up ewald sum ----------
Optimum gaussian width for ewald sums = 3.906449 bohr.
Real space sum over 605 unit cells with max indices [  5  5  2  ]
Reciprocal space sum over 5915 terms with max indices [  6  6  17  ]

---------- Allocating electronic variables ----------
Initializing wave functions:  linear combination of atomic orbitals
Ni (M=1) pseudo-atom majority spin occupations:   s ( 1 0.5 )  p ( 3 )  d ( 5 )
Ni (M=1) pseudo-atom minority spin occupations:   s ( 1 0 )  p ( 3 )  d ( 4.5 )
Co (M=1) pseudo-atom majority spin occupations:   s ( 1 0 )  p ( 3 )  d ( 5 )
Co (M=1) pseudo-atom minority spin occupations:   s ( 1 0 )  p ( 3 )  d ( 4 )
V (M=1) pseudo-atom majority spin occupations:   s ( 1 0 )  p ( 3 )  d ( 3 )
V (M=1) pseudo-atom minority spin occupations:   s ( 1 0 )  p ( 3 )  d ( 2 )
Cr (M=1) pseudo-atom majority spin occupations:   s ( 1 0 )  p ( 3 )  d ( 3.5 )
Cr (M=1) pseudo-atom minority spin occupations:   s ( 1 0 )  p ( 3 )  d ( 2.5 )
O pseudo-atom occupations:   s ( 2 )  p ( 4 )
	FillingsUpdate:  mu: -0.132473287  nElectrons: 347.000000  magneticMoment: [ Abs: 4.32212  Tot: -0.00000 ]
LCAOMinimize: Iter:   0  F: -1883.3106544177642263  |grad|_K:  2.587e-02  alpha:  1.000e+00
LCAOMinimize: 	Step increased F by 8.633502e+01, reducing alpha to 4.365249e-02.
	FillingsUpdate:  mu: +0.967385612  nElectrons: 347.000000  magneticMoment: [ Abs: 3.14446  Tot: +0.00000 ]
LCAOMinimize: Iter:   1  F: -1901.3977281966322153  |grad|_K:  4.501e-02  alpha:  4.365e-02  linmin:  2.867e-02  cgtest: -1.570e-01  t[s]:     53.99
LCAOMinimize: 	Step increased F by 1.885282e+00, reducing alpha to 8.247163e-04.
	FillingsUpdate:  mu: +1.042778550  nElectrons: 347.000000  magneticMoment: [ Abs: 3.02275  Tot: -0.00000 ]
LCAOMinimize: Iter:   2  F: -1901.6498846604686150  |grad|_K:  4.858e-02  alpha:  8.247e-04  linmin: -5.405e-03  cgtest:  9.183e-01  t[s]:     79.02
LCAOMinimize: 	Predicted alpha/alphaT>3.000000, increasing alphaT to 2.474149e-03.
LCAOMinimize: 	Predicted alpha/alphaT>3.000000, increasing alphaT to 7.422447e-03.
	FillingsUpdate:  mu: +0.808930347  nElectrons: 347.000000  magneticMoment: [ Abs: 2.99824  Tot: +0.00000 ]
LCAOMinimize: Iter:   3  F: -1908.6948422280595423  |grad|_K:  1.767e-02  alpha:  6.349e-03  linmin: -8.747e-03  cgtest:  5.290e-01  t[s]:    102.01
LCAOMinimize: Encountered beta<0, resetting CG.
LCAOMinimize: 	Predicted alpha/alphaT>3.000000, increasing alphaT to 1.904552e-02.
	FillingsUpdate:  mu: +0.381144771  nElectrons: 347.000000  magneticMoment: [ Abs: 4.43205  Tot: -0.00000 ]
LCAOMinimize: Iter:   4  F: -1912.7073341776506368  |grad|_K:  2.183e-02  alpha:  2.604e-02  linmin:  5.563e-04  cgtest: -2.783e-01  t[s]:    120.32
	FillingsUpdate:  mu: +0.228872657  nElectrons: 347.000000  magneticMoment: [ Abs: 5.17648  Tot: -0.00000 ]
LCAOMinimize: Iter:   5  F: -1913.7632130902850349  |grad|_K:  2.276e-02  alpha:  2.475e-03  linmin: -1.984e-02  cgtest:  9.278e-01  t[s]:    135.00
LCAOMinimize: 	Predicted alpha/alphaT>3.000000, increasing alphaT to 7.423964e-03.
	FillingsUpdate:  mu: +0.333279461  nElectrons: 347.000000  magneticMoment: [ Abs: 6.22449  Tot: +0.00000 ]
LCAOMinimize: Iter:   6  F: -1917.5858388668252701  |grad|_K:  2.586e-02  alpha:  1.714e-02  linmin:  5.103e-03  cgtest: -2.635e-01  t[s]:    153.80
	FillingsUpdate:  mu: +0.261202180  nElectrons: 347.000000  magneticMoment: [ Abs: 6.56303  Tot: -0.00000 ]
LCAOMinimize: Iter:   7  F: -1920.3970850078194417  |grad|_K:  3.510e-02  alpha:  1.124e-02  linmin:  2.820e-03  cgtest:  8.920e-01  t[s]:    168.45
	FillingsUpdate:  mu: +0.095519723  nElectrons: 347.000000  magneticMoment: [ Abs: 8.32695  Tot: -0.00000 ]
LCAOMinimize: Iter:   8  F: -1928.8011077933688284  |grad|_K:  1.400e-02  alpha:  1.420e-02  linmin: -2.816e-02  cgtest:  2.934e-01  t[s]:    183.23
	FillingsUpdate:  mu: +0.115549590  nElectrons: 347.000000  magneticMoment: [ Abs: 8.18321  Tot: +0.00000 ]
LCAOMinimize: Iter:   9  F: -1932.1473978712720054  |grad|_K:  8.789e-03  alpha:  2.689e-02  linmin: -7.238e-02  cgtest:  8.610e-01  t[s]:    197.79
LCAOMinimize: Encountered beta<0, resetting CG.
LCAOMinimize: 	Wrong curvature in test step, increasing alphaT to 8.067363e-02.
	FillingsUpdate:  mu: +0.252854946  nElectrons: 347.000000  magneticMoment: [ Abs: 9.30300  Tot: +0.00000 ]
LCAOMinimize: Iter:  10  F: -1935.4248514232890557  |grad|_K:  1.268e-02  alpha: -2.002e-02  linmin: -9.306e-02  cgtest:  5.460e-01  t[s]:    211.60
LCAOMinimize: 	Step increased F by 2.746670e+02, reducing alpha to 2.468869e-02.
	FillingsUpdate:  mu: +0.765536110  nElectrons: 347.000000  magneticMoment: [ Abs: 10.11584  Tot: +0.00000 ]
LCAOMinimize: Iter:  11  F: -1936.3163660273471578  |grad|_K:  1.775e-02  alpha:  2.469e-02  linmin:  1.756e-02  cgtest: -8.389e-01  t[s]:    236.30
LCAOMinimize: 	Bad step direction: g.d > 0.
LCAOMinimize: 	Undoing step.
LCAOMinimize: 	Step failed: resetting search direction.
	FillingsUpdate:  mu: +0.765536110  nElectrons: 347.000000  magneticMoment: [ Abs: 10.11584  Tot: +0.00000 ]
LCAOMinimize: Iter:  12  F: -1936.3163660273471578  |grad|_K:  1.775e-02  alpha:  0.000e+00
	FillingsUpdate:  mu: +0.414693628  nElectrons: 347.000000  magneticMoment: [ Abs: 7.89571  Tot: +0.00000 ]
LCAOMinimize: Iter:  13  F: -1939.0668832961691805  |grad|_K:  1.237e-02  alpha:  2.105e-02  linmin: -3.722e-02  cgtest: -5.706e-02  t[s]:    261.03
	FillingsUpdate:  mu: +0.126899381  nElectrons: 347.000000  magneticMoment: [ Abs: 8.56513  Tot: +0.00000 ]
LCAOMinimize: Iter:  14  F: -1939.4965788728577536  |grad|_K:  2.448e-02  alpha:  1.464e-02  linmin:  2.335e-02  cgtest:  3.960e-01  t[s]:    275.66
	FillingsUpdate:  mu: -0.125490632  nElectrons: 347.000000  magneticMoment: [ Abs: 14.12920  Tot: -0.00000 ]
LCAOMinimize: Iter:  15  F: -1942.3564639815670034  |grad|_K:  1.671e-02  alpha:  1.187e-02  linmin:  3.719e-02  cgtest: -3.622e-01  t[s]:    290.15
LCAOMinimize: 	Bad step direction: g.d > 0.
LCAOMinimize: 	Undoing step.
LCAOMinimize: 	Step failed: resetting search direction.
	FillingsUpdate:  mu: -0.125490632  nElectrons: 347.000000  magneticMoment: [ Abs: 14.12920  Tot: -0.00000 ]
LCAOMinimize: Iter:  16  F: -1942.3564639815670034  |grad|_K:  1.671e-02  alpha:  0.000e+00
	FillingsUpdate:  mu: -0.177515801  nElectrons: 347.000000  magneticMoment: [ Abs: 11.49135  Tot: +0.00000 ]
LCAOMinimize: Iter:  17  F: -1944.1270929180068379  |grad|_K:  9.229e-03  alpha:  1.498e-02  linmin:  5.288e-02  cgtest: -3.120e-01  t[s]:    315.38
LCAOMinimize: 	Wrong curvature in test step, increasing alphaT to 4.493137e-02.
	FillingsUpdate:  mu: -0.067653621  nElectrons: 347.000000  magneticMoment: [ Abs: 12.04667  Tot: +0.00000 ]
LCAOMinimize: Iter:  18  F: -1944.9579892589308656  |grad|_K:  8.590e-03  alpha: -4.665e-01  linmin: -5.673e-02  cgtest:  7.218e-01  t[s]:    328.96
LCAOMinimize: 	Step increased F by 2.076122e+01, reducing alpha to 7.015779e-03.
	FillingsUpdate:  mu: +0.017433975  nElectrons: 347.000000  magneticMoment: [ Abs: 12.77617  Tot: +0.00000 ]
LCAOMinimize: Iter:  19  F: -1945.5506124184723831  |grad|_K:  6.328e-03  alpha:  7.016e-03  linmin: -1.203e-01  cgtest:  4.805e-01  t[s]:    354.21
	FillingsUpdate:  mu: +0.278830367  nElectrons: 347.000000  magneticMoment: [ Abs: 13.54004  Tot: +0.00000 ]
LCAOMinimize: Iter:  20  F: -1945.9314141395527713  |grad|_K:  8.886e-03  alpha:  1.806e-02  linmin:  3.992e-02  cgtest: -2.368e-01  t[s]:    368.85
LCAOMinimize: 	Step increased F by 6.170336e-04, reducing alpha to 2.234265e-05.
	FillingsUpdate:  mu: +0.279625459  nElectrons: 347.000000  magneticMoment: [ Abs: 13.54096  Tot: -0.00000 ]
LCAOMinimize: Iter:  21  F: -1945.9314488192144381  |grad|_K:  8.907e-03  alpha:  2.234e-05  linmin: -4.940e-04  cgtest:  1.000e+00  t[s]:    393.68
LCAOMinimize: 	Predicted alpha/alphaT>3.000000, increasing alphaT to 6.702795e-05.
LCAOMinimize: 	Predicted alpha/alphaT>3.000000, increasing alphaT to 2.010839e-04.
LCAOMinimize: 	Predicted alpha/alphaT>3.000000, increasing alphaT to 6.032516e-04.
	FillingsUpdate:  mu: +0.126278124  nElectrons: 347.000000  magneticMoment: [ Abs: 12.99178  Tot: +0.00000 ]
LCAOMinimize: Iter:  22  F: -1946.3165734009919561  |grad|_K:  3.628e-03  alpha:  8.784e-03  linmin: -1.369e-01  cgtest:  6.422e-01  t[s]:    416.87
LCAOMinimize: Encountered beta<0, resetting CG.
LCAOMinimize: 	Predicted alpha/alphaT>3.000000, increasing alphaT to 2.635265e-02.
	FillingsUpdate:  mu: +0.080594479  nElectrons: 347.000000  magneticMoment: [ Abs: 13.21139  Tot: -0.00000 ]
LCAOMinimize: Iter:  23  F: -1946.8110611869637978  |grad|_K:  5.571e-03  alpha:  7.748e-02  linmin:  1.423e-05  cgtest: -1.471e-01  t[s]:    435.93
	FillingsUpdate:  mu: +0.115170435  nElectrons: 347.000000  magneticMoment: [ Abs: 13.77598  Tot: +0.00000 ]
LCAOMinimize: Iter:  24  F: -1946.9253864237389280  |grad|_K:  3.910e-03  alpha:  6.647e-03  linmin: -4.037e-03  cgtest:  7.234e-01  t[s]:    450.44
LCAOMinimize: Encountered beta<0, resetting CG.
LCAOMinimize: 	Predicted alpha/alphaT>3.000000, increasing alphaT to 1.994120e-02.
	FillingsUpdate:  mu: +0.095638082  nElectrons: 347.000000  magneticMoment: [ Abs: 14.68058  Tot: +0.00000 ]
LCAOMinimize: Iter:  25  F: -1947.1119710444079374  |grad|_K:  2.763e-03  alpha:  2.643e-02  linmin:  4.284e-03  cgtest: -6.497e-03  t[s]:    469.44
	FillingsUpdate:  mu: +0.076678582  nElectrons: 347.000000  magneticMoment: [ Abs: 14.90292  Tot: -0.00000 ]
LCAOMinimize: Iter:  26  F: -1947.1523366631975023  |grad|_K:  2.020e-03  alpha:  1.435e-02  linmin:  4.229e-03  cgtest: -1.024e-01  t[s]:    484.05
LCAOMinimize: 	Predicted alpha/alphaT>3.000000, increasing alphaT to 4.304522e-02.
	FillingsUpdate:  mu: +0.129464608  nElectrons: 347.000000  magneticMoment: [ Abs: 16.01346  Tot: +0.00000 ]
LCAOMinimize: Iter:  27  F: -1947.2599458656579827  |grad|_K:  2.622e-03  alpha:  6.067e-02  linmin:  5.969e-04  cgtest: -3.124e-01  t[s]:    503.24
	FillingsUpdate:  mu: +0.122150860  nElectrons: 347.000000  magneticMoment: [ Abs: 16.53607  Tot: -0.00000 ]
LCAOMinimize: Iter:  28  F: -1947.3323819001311676  |grad|_K:  1.398e-03  alpha:  2.502e-02  linmin:  6.470e-05  cgtest:  8.100e-02  t[s]:    518.03
	FillingsUpdate:  mu: +0.127029827  nElectrons: 347.000000  magneticMoment: [ Abs: 17.31283  Tot: -0.00000 ]
LCAOMinimize: Iter:  29  F: -1947.3730896683302944  |grad|_K:  1.969e-03  alpha:  5.192e-02  linmin:  5.374e-03  cgtest: -1.115e-01  t[s]:    532.63
	FillingsUpdate:  mu: +0.110080392  nElectrons: 347.000000  magneticMoment: [ Abs: 17.65146  Tot: +0.00000 ]
LCAOMinimize: Iter:  30  F: -1947.3866326126644708  |grad|_K:  1.477e-03  alpha:  1.399e-02  linmin:  1.323e-03  cgtest:  7.763e-01  t[s]:    547.40
LCAOMinimize: Encountered beta<0, resetting CG.
LCAOMinimize: None of the convergence criteria satisfied after 30 iterations.


---- Citations for features of the code used in this run ----

   Software package:
      R. Sundararaman, K. Letchworth-Weaver, K.A. Schwarz, D. Gunceler, Y. Ozhabes and T.A. Arias, 'JDFTx: software for joint density-functional theory', SoftwareX 6, 278 (2017)

   Simplified rotationally-invariant DFT+U:
      S. L. Dudarev et al., Phys. Rev. B 57, 1505 (1998)

   LibXC library of exchange-correlation functions:
      M. A. L. Marques, M. J. T. Oliveira and T. Burnus, Comput. Phys. Commun. 183, 2272 (2012)

   Hammer, Hansen, and Norskov exchange functional:
      B. Hammer, L. B. Hansen, and J. K. Nørskov, Phys. Rev. B 59, 7413 (1999)

   Perdew, Burke & Ernzerhof correlation functional:
      J. P. Perdew, K. Burke, and M. Ernzerhof, Phys. Rev. Lett. 77, 3865 (1996)

   Pseudopotentials:
      M Schlipf and F Gygi, Comput. Phys. Commun. 196, 36 (2015)

   Total energy minimization with Auxiliary Hamiltonian:
      C. Freysoldt, S. Boeck, and J. Neugebauer, Phys. Rev. B 79, 241103(R) (2009)

This list may not be complete. Please suggest additional citations or
report any other bugs at https://github.com/shankar1729/jdftx/issues

Initialization completed successfully at t[s]:    554.30


-------- Electronic minimization -----------
	FillingsUpdate:  mu: +0.110080451  nElectrons: 347.000000  magneticMoment: [ Abs: 17.65146  Tot: +0.00000 ]
ElecMinimize: Iter:   0  F: -1947.386632612665153  |grad|_K:  8.674e-04  alpha:  1.000e+00
	FillingsUpdate:  mu: +0.391234668  nElectrons: 347.000000  magneticMoment: [ Abs: 18.38182  Tot: +0.00000 ]
	SubspaceRotationAdjust: set factor to 0.996
ElecMinimize: Iter:   1  F: -1980.672929519537092  |grad|_K:  1.168e-03  alpha:  4.740e-01  linmin:  8.069e-03  t[s]:    646.34
	FillingsUpdate:  mu: +0.851633411  nElectrons: 347.000000  magneticMoment: [ Abs: 22.18048  Tot: -0.00000 ]
	SubspaceRotationAdjust: set factor to 0.791
ElecMinimize: Iter:   2  F: -1981.943855792388604  |grad|_K:  1.080e-03  alpha:  3.665e-02  linmin:  1.886e-03  t[s]:    721.50
	FillingsUpdate:  mu: +0.430451944  nElectrons: 347.000000  magneticMoment: [ Abs: 20.79077  Tot: -0.00000 ]
	SubspaceRotationAdjust: set factor to 0.38
ElecMinimize: Iter:   3  F: -1988.263163760317639  |grad|_K:  1.159e-03  alpha:  4.677e-02  linmin:  5.594e-03  t[s]:    796.33
	FillingsUpdate:  mu: +0.353648118  nElectrons: 347.000000  magneticMoment: [ Abs: 22.87836  Tot: +0.00000 ]
	SubspaceRotationAdjust: set factor to 0.278
ElecMinimize: Iter:   4  F: -1991.880225216264989  |grad|_K:  8.419e-04  alpha:  3.859e-02  linmin:  1.535e-03  t[s]:    872.41
	FillingsUpdate:  mu: +0.775811145  nElectrons: 347.000000  magneticMoment: [ Abs: 25.16090  Tot: +0.00000 ]
	SubspaceRotationAdjust: set factor to 0.159
ElecMinimize: Iter:   5  F: -1997.420509625187151  |grad|_K:  6.257e-04  alpha:  7.020e-02  linmin:  2.055e-03  t[s]:    949.37
	FillingsUpdate:  mu: +0.738780954  nElectrons: 347.000000  magneticMoment: [ Abs: 25.50936  Tot: +0.00000 ]
	SubspaceRotationAdjust: set factor to 0.154
ElecMinimize: Iter:   6  F: -2000.000997880962359  |grad|_K:  5.531e-04  alpha:  4.816e-02  linmin:  2.481e-05  t[s]:   1024.25
	FillingsUpdate:  mu: +0.493074841  nElectrons: 347.000000  magneticMoment: [ Abs: 25.94450  Tot: -0.00000 ]
	SubspaceRotationAdjust: set factor to 0.18
ElecMinimize: Iter:   7  F: -2001.802951449181364  |grad|_K:  4.719e-04  alpha:  3.236e-02  linmin:  9.756e-05  t[s]:   1098.80
	FillingsUpdate:  mu: +0.312209989  nElectrons: 347.000000  magneticMoment: [ Abs: 26.06806  Tot: -0.00000 ]
	SubspaceRotationAdjust: set factor to 0.194
ElecMinimize: Iter:   8  F: -2002.886200779965748  |grad|_K:  4.244e-04  alpha:  2.836e-02  linmin:  1.715e-05  t[s]:   1174.79
	FillingsUpdate:  mu: +0.169860140  nElectrons: 347.000000  magneticMoment: [ Abs: 25.94343  Tot: +0.00000 ]
	SubspaceRotationAdjust: set factor to 0.166
ElecMinimize: Iter:   9  F: -2003.825735009791515  |grad|_K:  3.848e-04  alpha:  2.991e-02  linmin: -2.772e-04  t[s]:   1250.33
	FillingsUpdate:  mu: +0.132446315  nElectrons: 347.000000  magneticMoment: [ Abs: 26.11482  Tot: -0.00000 ]
	SubspaceRotationAdjust: set factor to 0.129
	SubspaceRotationAdjust: resetting CG because factor has changed by 0.129267
ElecMinimize: 	State modified externally: resetting search direction.
ElecMinimize: Iter:  10  F: -2004.750494933722848  |grad|_K:  3.020e-04  alpha:  3.432e-02
ElecMinimize: 	Predicted alpha/alphaT>3.000000, increasing alphaT to 1.029578e-01.
	FillingsUpdate:  mu: +0.235620128  nElectrons: 347.000000  magneticMoment: [ Abs: 26.50053  Tot: +0.00000 ]
	SubspaceRotationAdjust: set factor to 0.103
ElecMinimize: Iter:  11  F: -2008.495999054029426  |grad|_K:  1.414e-04  alpha:  2.319e-01  linmin: -2.964e-03  t[s]:   1450.30
	FillingsUpdate:  mu: +0.130206993  nElectrons: 347.000000  magneticMoment: [ Abs: 26.95402  Tot: -0.00000 ]
	SubspaceRotationAdjust: set factor to 0.0771
ElecMinimize: Iter:  12  F: -2009.229326416752656  |grad|_K:  8.990e-05  alpha:  2.037e-01  linmin: -6.188e-04  t[s]:   1521.17
	FillingsUpdate:  mu: +0.141329276  nElectrons: 347.000000  magneticMoment: [ Abs: 27.51317  Tot: -0.00000 ]
	SubspaceRotationAdjust: set factor to 0.0714
ElecMinimize: Iter:  13  F: -2009.727766410105687  |grad|_K:  6.471e-05  alpha:  3.497e-01  linmin:  3.889e-04  t[s]:   1599.29
	FillingsUpdate:  mu: +0.152367239  nElectrons: 347.000000  magneticMoment: [ Abs: 27.63471  Tot: -0.00000 ]
	SubspaceRotationAdjust: set factor to 0.0748
ElecMinimize: Iter:  14  F: -2010.022443635621585  |grad|_K:  5.195e-05  alpha:  4.305e-01  linmin:  4.919e-04  t[s]:   1676.05
	FillingsUpdate:  mu: +0.156325854  nElectrons: 347.000000  magneticMoment: [ Abs: 27.86861  Tot: +0.00000 ]
	SubspaceRotationAdjust: set factor to 0.0831
ElecMinimize: Iter:  15  F: -2010.174611798315709  |grad|_K:  4.498e-05  alpha:  3.529e-01  linmin:  3.186e-05  t[s]:   1751.30
	FillingsUpdate:  mu: +0.124863608  nElectrons: 347.000000  magneticMoment: [ Abs: 28.37225  Tot: +0.00000 ]
	SubspaceRotationAdjust: set factor to 0.0809
ElecMinimize: Iter:  16  F: -2010.264262189773945  |grad|_K:  3.400e-05  alpha:  2.607e-01  linmin: -2.364e-05  t[s]:   1828.57
	FillingsUpdate:  mu: +0.116911044  nElectrons: 347.000000  magneticMoment: [ Abs: 28.78894  Tot: -0.00000 ]
	SubspaceRotationAdjust: set factor to 0.0972
ElecMinimize: Iter:  17  F: -2010.343672627063825  |grad|_K:  3.214e-05  alpha:  3.905e-01  linmin: -5.554e-05  t[s]:   1906.24
	FillingsUpdate:  mu: +0.137055203  nElectrons: 347.000000  magneticMoment: [ Abs: 29.13903  Tot: -0.00000 ]
	SubspaceRotationAdjust: set factor to 0.105
ElecMinimize: Iter:  18  F: -2010.410944617528912  |grad|_K:  3.225e-05  alpha:  3.660e-01  linmin: -5.112e-05  t[s]:   1982.71
	FillingsUpdate:  mu: +0.138791450  nElectrons: 347.000000  magneticMoment: [ Abs: 29.79925  Tot: -0.00000 ]
	SubspaceRotationAdjust: set factor to 0.0969
ElecMinimize: Iter:  19  F: -2010.467605110187378  |grad|_K:  3.252e-05  alpha:  3.041e-01  linmin: -3.735e-05  t[s]:   2059.77
	FillingsUpdate:  mu: +0.128150445  nElectrons: 347.000000  magneticMoment: [ Abs: 30.44324  Tot: +0.00000 ]
	SubspaceRotationAdjust: set factor to 0.111
ElecMinimize: Iter:  20  F: -2010.535578613632651  |grad|_K:  3.188e-05  alpha:  3.584e-01  linmin: -7.233e-05  t[s]:   2136.64
	FillingsUpdate:  mu: +0.126626401  nElectrons: 347.000000  magneticMoment: [ Abs: 31.20017  Tot: +0.00000 ]
	SubspaceRotationAdjust: set factor to 0.12
ElecMinimize: Iter:  21  F: -2010.609178180161280  |grad|_K:  3.624e-05  alpha:  3.974e-01  linmin:  5.276e-05  t[s]:   2215.08
	FillingsUpdate:  mu: +0.125876087  nElectrons: 347.000000  magneticMoment: [ Abs: 32.18645  Tot: +0.00000 ]
	SubspaceRotationAdjust: set factor to 0.146
ElecMinimize: Iter:  22  F: -2010.683207620395251  |grad|_K:  4.339e-05  alpha:  3.467e-01  linmin: -4.462e-05  t[s]:   2292.52
ElecMinimize: 	Step increased F by 8.159069e-03, reducing alpha to 8.179603e-04.
ElecMinimize: 	Step increased F by 1.350888e-02, reducing alpha to 8.179603e-05.
ElecMinimize: 	Step increased F by 1.405115e-02, reducing alpha to 8.179603e-06.
ElecMinimize: 	Step failed to reduce F after 3 attempts. Quitting step.
ElecMinimize: 	Undoing step.
ElecMinimize: 	Step failed: resetting search direction.
	FillingsUpdate:  mu: +0.124950590  nElectrons: 347.000000  magneticMoment: [ Abs: 32.18392  Tot: -0.00000 ]
	SubspaceRotationAdjust: set factor to 0.177
ElecMinimize: Iter:  23  F: -2010.669150438115821  |grad|_K:  4.502e-05  alpha:  8.180e-06
	FillingsUpdate:  mu: +0.141869420  nElectrons: 347.000000  magneticMoment: [ Abs: 32.14616  Tot: +0.00000 ]
	SubspaceRotationAdjust: set factor to 0.13
ElecMinimize: Iter:  24  F: -2010.736021482335900  |grad|_K:  2.941e-05  alpha:  1.671e-01  linmin: -4.137e-03  t[s]:   2571.25
	FillingsUpdate:  mu: +0.135820069  nElectrons: 347.000000  magneticMoment: [ Abs: 32.43713  Tot: -0.00000 ]
	SubspaceRotationAdjust: set factor to 0.116
ElecMinimize: Iter:  25  F: -2010.768755089030947  |grad|_K:  2.446e-05  alpha:  1.990e-01  linmin: -1.915e-03  t[s]:   2645.27
	FillingsUpdate:  mu: +0.115393989  nElectrons: 347.000000  magneticMoment: [ Abs: 32.52883  Tot: +0.00000 ]
	SubspaceRotationAdjust: set factor to 0.0964
ElecMinimize: Iter:  26  F: -2010.797542037515996  |grad|_K:  1.870e-05  alpha:  2.511e-01  linmin: -3.849e-04  t[s]:   2722.03
	FillingsUpdate:  mu: +0.119126354  nElectrons: 347.000000  magneticMoment: [ Abs: 32.90493  Tot: +0.00000 ]
	SubspaceRotationAdjust: set factor to 0.112
ElecMinimize: Iter:  27  F: -2010.823209821274531  |grad|_K:  1.569e-05  alpha:  4.101e-01  linmin: -2.087e-05  t[s]:   2797.13
	FillingsUpdate:  mu: +0.122716359  nElectrons: 347.000000  magneticMoment: [ Abs: 33.27888  Tot: +0.00000 ]
	SubspaceRotationAdjust: set factor to 0.127
ElecMinimize: Iter:  28  F: -2010.841379161877285  |grad|_K:  1.494e-05  alpha:  4.228e-01  linmin: -1.770e-05  t[s]:   2876.72
	FillingsUpdate:  mu: +0.116786223  nElectrons: 347.000000  magneticMoment: [ Abs: 33.61019  Tot: +0.00000 ]
	SubspaceRotationAdjust: set factor to 0.127
ElecMinimize: Iter:  29  F: -2010.856591361335632  |grad|_K:  1.548e-05  alpha:  3.918e-01  linmin: -1.263e-04  t[s]:   2953.35
	FillingsUpdate:  mu: +0.128119983  nElectrons: 347.000000  magneticMoment: [ Abs: 34.16207  Tot: -0.00000 ]
	SubspaceRotationAdjust: set factor to 0.117
ElecMinimize: Iter:  30  F: -2010.873362325814924  |grad|_K:  1.617e-05  alpha:  3.927e-01  linmin:  1.627e-04  t[s]:   3029.51
	FillingsUpdate:  mu: +0.124597975  nElectrons: 347.000000  magneticMoment: [ Abs: 34.79579  Tot: +0.00000 ]
	SubspaceRotationAdjust: set factor to 0.15
ElecMinimize: Iter:  31  F: -2010.888492036569005  |grad|_K:  1.672e-05  alpha:  3.424e-01  linmin:  3.665e-05  t[s]:   3107.29
	FillingsUpdate:  mu: +0.129604527  nElectrons: 347.000000  magneticMoment: [ Abs: 35.27338  Tot: +0.00000 ]
	SubspaceRotationAdjust: set factor to 0.165
ElecMinimize: Iter:  32  F: -2010.900020674869211  |grad|_K:  1.654e-05  alpha:  2.362e-01  linmin: -1.614e-05  t[s]:   3183.76
	FillingsUpdate:  mu: +0.127399500  nElectrons: 347.000000  magneticMoment: [ Abs: 35.81602  Tot: +0.00000 ]
	SubspaceRotationAdjust: set factor to 0.231
ElecMinimize: Iter:  33  F: -2010.910740835541901  |grad|_K:  1.499e-05  alpha:  2.229e-01  linmin:  1.664e-04  t[s]:   3259.62
	FillingsUpdate:  mu: +0.126379669  nElectrons: 347.000000  magneticMoment: [ Abs: 36.14725  Tot: -0.00000 ]
	SubspaceRotationAdjust: set factor to 0.294
ElecMinimize: Iter:  34  F: -2010.916286180844281  |grad|_K:  1.268e-05  alpha:  1.442e-01  linmin: -3.283e-05  t[s]:   3338.50
	FillingsUpdate:  mu: +0.128478812  nElectrons: 347.000000  magneticMoment: [ Abs: 36.37957  Tot: +0.00000 ]
	SubspaceRotationAdjust: set factor to 0.328
ElecMinimize: Iter:  35  F: -2010.919779876760913  |grad|_K:  1.154e-05  alpha:  1.241e-01  linmin: -2.884e-05  t[s]:   3414.85
	FillingsUpdate:  mu: +0.126539962  nElectrons: 347.000000  magneticMoment: [ Abs: 36.69477  Tot: +0.00000 ]
	SubspaceRotationAdjust: set factor to 0.294
ElecMinimize: Iter:  36  F: -2010.923175114735841  |grad|_K:  1.215e-05  alpha:  1.465e-01  linmin:  1.248e-04  t[s]:   3494.04
	FillingsUpdate:  mu: +0.123004756  nElectrons: 347.000000  magneticMoment: [ Abs: 37.03141  Tot: +0.00000 ]
	SubspaceRotationAdjust: set factor to 0.247
ElecMinimize: Iter:  37  F: -2010.926052867331464  |grad|_K:  1.281e-05  alpha:  1.088e-01  linmin:  6.675e-05  t[s]:   3570.83
	FillingsUpdate:  mu: +0.124058231  nElectrons: 347.000000  magneticMoment: [ Abs: 37.35849  Tot: +0.00000 ]
	SubspaceRotationAdjust: set factor to 0.191
ElecMinimize: Iter:  38  F: -2010.928561712481041  |grad|_K:  1.373e-05  alpha:  8.641e-02  linmin:  9.354e-05  t[s]:   3648.11
	FillingsUpdate:  mu: +0.124862748  nElectrons: 347.000000  magneticMoment: [ Abs: 37.69041  Tot: -0.00000 ]
	SubspaceRotationAdjust: set factor to 0.153
ElecMinimize: Iter:  39  F: -2010.931045446261805  |grad|_K:  1.393e-05  alpha:  7.667e-02  linmin: -4.504e-05  t[s]:   3726.26
	FillingsUpdate:  mu: +0.124887846  nElectrons: 347.000000  magneticMoment: [ Abs: 38.05689  Tot: -0.00000 ]
	SubspaceRotationAdjust: set factor to 0.144
ElecMinimize: Iter:  40  F: -2010.934044459087545  |grad|_K:  1.369e-05  alpha:  8.755e-02  linmin: -2.372e-04  t[s]:   3804.76
	FillingsUpdate:  mu: +0.124803781  nElectrons: 347.000000  magneticMoment: [ Abs: 38.46435  Tot: -0.00000 ]
	SubspaceRotationAdjust: set factor to 0.152
ElecMinimize: Iter:  41  F: -2010.937678031492169  |grad|_K:  1.358e-05  alpha:  1.059e-01  linmin: -2.354e-04  t[s]:   3880.65
	FillingsUpdate:  mu: +0.125609018  nElectrons: 347.000000  magneticMoment: [ Abs: 38.89463  Tot: +0.00000 ]
	SubspaceRotationAdjust: set factor to 0.148
ElecMinimize: Iter:  42  F: -2010.941269728158886  |grad|_K:  1.390e-05  alpha:  1.069e-01  linmin:  5.417e-05  t[s]:   3955.08
	FillingsUpdate:  mu: +0.125369582  nElectrons: 347.000000  magneticMoment: [ Abs: 39.24668  Tot: +0.00000 ]
	SubspaceRotationAdjust: set factor to 0.128
ElecMinimize: Iter:  43  F: -2010.943684817768599  |grad|_K:  1.497e-05  alpha:  6.638e-02  linmin: -1.557e-04  t[s]:   4033.29
	FillingsUpdate:  mu: +0.126045804  nElectrons: 347.000000  magneticMoment: [ Abs: 39.70462  Tot: -0.00000 ]
	SubspaceRotationAdjust: set factor to 0.107
ElecMinimize: Iter:  44  F: -2010.946245578244998  |grad|_K:  1.625e-05  alpha:  6.409e-02  linmin: -5.016e-04  t[s]:   4111.34
	FillingsUpdate:  mu: +0.130711676  nElectrons: 347.000000  magneticMoment: [ Abs: 40.49723  Tot: +0.00000 ]
	SubspaceRotationAdjust: set factor to 0.106
ElecMinimize: Iter:  45  F: -2010.947426520184990  |grad|_K:  1.985e-05  alpha:  1.213e-01  linmin:  1.225e-02  t[s]:   4188.35
ElecMinimize: 	Bad step direction: g.d > 0.
ElecMinimize: 	Undoing step.
ElecMinimize: 	Step failed: resetting search direction.
	FillingsUpdate:  mu: +0.130711676  nElectrons: 347.000000  magneticMoment: [ Abs: 40.49723  Tot: +0.00000 ]
	SubspaceRotationAdjust: set factor to 0.105
ElecMinimize: Iter:  46  F: -2010.947426520185218  |grad|_K:  1.977e-05  alpha:  0.000e+00
	FillingsUpdate:  mu: +0.138696142  nElectrons: 347.000000  magneticMoment: [ Abs: 40.39301  Tot: -0.00000 ]
	SubspaceRotationAdjust: set factor to 0.0925
ElecMinimize: Iter:  47  F: -2010.964235945617474  |grad|_K:  1.156e-05  alpha:  2.275e-01  linmin: -1.941e-02  t[s]:   4311.72
	FillingsUpdate:  mu: +0.138429780  nElectrons: 347.000000  magneticMoment: [ Abs: 40.45893  Tot: +0.00000 ]
	SubspaceRotationAdjust: set factor to 0.105
ElecMinimize: Iter:  48  F: -2010.981159337911322  |grad|_K:  9.920e-06  alpha:  5.683e-01  linmin: -6.036e-03  t[s]:   4388.28
	FillingsUpdate:  mu: +0.137831570  nElectrons: 347.000000  magneticMoment: [ Abs: 40.49649  Tot: -0.00000 ]
	SubspaceRotationAdjust: set factor to 0.117
ElecMinimize: Iter:  49  F: -2010.992665565269135  |grad|_K:  1.130e-05  alpha:  5.730e-01  linmin: -3.696e-04  t[s]:   4467.19
	FillingsUpdate:  mu: +0.135505370  nElectrons: 347.000000  magneticMoment: [ Abs: 40.70729  Tot: +0.00000 ]
	SubspaceRotationAdjust: set factor to 0.116
ElecMinimize: Iter:  50  F: -2011.003748567013872  |grad|_K:  1.054e-05  alpha:  4.866e-01  linmin:  2.636e-05  t[s]:   4543.99
	FillingsUpdate:  mu: +0.143293364  nElectrons: 347.000000  magneticMoment: [ Abs: 40.81954  Tot: -0.00000 ]
	SubspaceRotationAdjust: set factor to 0.105
ElecMinimize: Iter:  51  F: -2011.011962557385232  |grad|_K:  9.996e-06  alpha:  4.191e-01  linmin:  2.849e-04  t[s]:   4620.74
	FillingsUpdate:  mu: +0.141335547  nElectrons: 347.000000  magneticMoment: [ Abs: 41.16060  Tot: -0.00000 ]
	SubspaceRotationAdjust: set factor to 0.106
ElecMinimize: Iter:  52  F: -2011.018864767455625  |grad|_K:  9.783e-06  alpha:  4.030e-01  linmin:  9.739e-04  t[s]:   4698.32
	FillingsUpdate:  mu: +0.144786425  nElectrons: 347.000000  magneticMoment: [ Abs: 41.48625  Tot: +0.00000 ]
	SubspaceRotationAdjust: set factor to 0.126
ElecMinimize: Iter:  53  F: -2011.025265298597333  |grad|_K:  1.095e-05  alpha:  4.185e-01  linmin: -5.167e-04  t[s]:   4776.33
	FillingsUpdate:  mu: +0.148300702  nElectrons: 347.000000  magneticMoment: [ Abs: 41.64342  Tot: -0.00000 ]
	SubspaceRotationAdjust: set factor to 0.143
ElecMinimize: Iter:  54  F: -2011.033706413797972  |grad|_K:  1.090e-05  alpha:  3.731e-01  linmin:  4.929e-04  t[s]:   4853.90
	FillingsUpdate:  mu: +0.142959387  nElectrons: 347.000000  magneticMoment: [ Abs: 41.70148  Tot: -0.00000 ]
	SubspaceRotationAdjust: set factor to 0.153
ElecMinimize: Iter:  55  F: -2011.038650129591815  |grad|_K:  1.095e-05  alpha:  2.436e-01  linmin: -1.377e-05  t[s]:   4931.79
	FillingsUpdate:  mu: +0.141375233  nElectrons: 347.000000  magneticMoment: [ Abs: 41.70717  Tot: -0.00000 ]
	SubspaceRotationAdjust: set factor to 0.176
ElecMinimize: Iter:  56  F: -2011.042704758353239  |grad|_K:  1.029e-05  alpha:  1.936e-01  linmin: -1.036e-05  t[s]:   5007.03
	FillingsUpdate:  mu: +0.138032506  nElectrons: 347.000000  magneticMoment: [ Abs: 41.68532  Tot: -0.00000 ]
	SubspaceRotationAdjust: set factor to 0.204
ElecMinimize: Iter:  57  F: -2011.046208794223958  |grad|_K:  9.723e-06  alpha:  1.899e-01  linmin: -9.074e-05  t[s]:   5083.45
	FillingsUpdate:  mu: +0.135748959  nElectrons: 347.000000  magneticMoment: [ Abs: 41.67841  Tot: -0.00000 ]
	SubspaceRotationAdjust: set factor to 0.236
ElecMinimize: Iter:  58  F: -2011.049403746129201  |grad|_K:  9.011e-06  alpha:  1.918e-01  linmin: -7.061e-05  t[s]:   5163.00
	FillingsUpdate:  mu: +0.135650659  nElectrons: 347.000000  magneticMoment: [ Abs: 41.67812  Tot: +0.00000 ]
	SubspaceRotationAdjust: set factor to 0.282
ElecMinimize: Iter:  59  F: -2011.052113741904122  |grad|_K:  8.078e-06  alpha:  1.902e-01  linmin: -7.317e-05  t[s]:   5238.62
	FillingsUpdate:  mu: +0.136919788  nElectrons: 347.000000  magneticMoment: [ Abs: 41.67641  Tot: +0.00000 ]
	SubspaceRotationAdjust: set factor to 0.319
ElecMinimize: Iter:  60  F: -2011.054175803199996  |grad|_K:  7.179e-06  alpha:  1.804e-01  linmin: -9.980e-05  t[s]:   5318.11
	FillingsUpdate:  mu: +0.137720993  nElectrons: 347.000000  magneticMoment: [ Abs: 41.70448  Tot: -0.00000 ]
	SubspaceRotationAdjust: set factor to 0.345
ElecMinimize: Iter:  61  F: -2011.055774585292966  |grad|_K:  6.627e-06  alpha:  1.768e-01  linmin: -8.389e-05  t[s]:   5395.57
	FillingsUpdate:  mu: +0.140586378  nElectrons: 347.000000  magneticMoment: [ Abs: 41.68735  Tot: -0.00000 ]
	SubspaceRotationAdjust: set factor to 0.332
ElecMinimize: Iter:  62  F: -2011.056904231708359  |grad|_K:  6.624e-06  alpha:  1.450e-01  linmin:  1.311e-04  t[s]:   5473.80
	FillingsUpdate:  mu: +0.140599341  nElectrons: 347.000000  magneticMoment: [ Abs: 41.72253  Tot: -0.00000 ]
	SubspaceRotationAdjust: set factor to 0.316
ElecMinimize: Iter:  63  F: -2011.057763664937966  |grad|_K:  5.763e-06  alpha:  1.143e-01  linmin: -2.197e-05  t[s]:   5551.41
	FillingsUpdate:  mu: +0.143437016  nElectrons: 347.000000  magneticMoment: [ Abs: 41.72163  Tot: +0.00000 ]
	SubspaceRotationAdjust: set factor to 0.358
ElecMinimize: Iter:  64  F: -2011.058734491183941  |grad|_K:  5.313e-06  alpha:  1.680e-01  linmin:  6.273e-05  t[s]:   5627.74
	FillingsUpdate:  mu: +0.141681728  nElectrons: 347.000000  magneticMoment: [ Abs: 41.73550  Tot: -0.00000 ]
	SubspaceRotationAdjust: set factor to 0.391
ElecMinimize: Iter:  65  F: -2011.059558676293136  |grad|_K:  4.858e-06  alpha:  1.693e-01  linmin: -8.564e-06  t[s]:   5705.02
	FillingsUpdate:  mu: +0.141076658  nElectrons: 347.000000  magneticMoment: [ Abs: 41.72920  Tot: -0.00000 ]
	SubspaceRotationAdjust: set factor to 0.404
ElecMinimize: Iter:  66  F: -2011.060264789546181  |grad|_K:  4.929e-06  alpha:  1.716e-01  linmin:  7.245e-06  t[s]:   5782.00
	FillingsUpdate:  mu: +0.140627535  nElectrons: 347.000000  magneticMoment: [ Abs: 41.75635  Tot: -0.00000 ]
	SubspaceRotationAdjust: set factor to 0.362
ElecMinimize: Iter:  67  F: -2011.060753735188200  |grad|_K:  5.148e-06  alpha:  1.162e-01  linmin: -1.328e-06  t[s]:   5858.47
	FillingsUpdate:  mu: +0.140294951  nElectrons: 347.000000  magneticMoment: [ Abs: 41.74329  Tot: +0.00000 ]
	SubspaceRotationAdjust: set factor to 0.293
ElecMinimize: Iter:  68  F: -2011.061163931023202  |grad|_K:  4.138e-06  alpha:  8.860e-02  linmin:  8.101e-06  t[s]:   5937.21
	FillingsUpdate:  mu: +0.139272834  nElectrons: 347.000000  magneticMoment: [ Abs: 41.75935  Tot: +0.00000 ]
	SubspaceRotationAdjust: set factor to 0.303
ElecMinimize: Iter:  69  F: -2011.061605986679979  |grad|_K:  3.465e-06  alpha:  1.481e-01  linmin: -2.632e-05  t[s]:   6012.92
	FillingsUpdate:  mu: +0.138605322  nElectrons: 347.000000  magneticMoment: [ Abs: 41.76668  Tot: +0.00000 ]
	SubspaceRotationAdjust: set factor to 0.333
ElecMinimize: Iter:  70  F: -2011.061973567111181  |grad|_K:  3.077e-06  alpha:  1.750e-01  linmin:  6.449e-06  t[s]:   6089.26
	FillingsUpdate:  mu: +0.138886239  nElectrons: 347.000000  magneticMoment: [ Abs: 41.75967  Tot: -0.00000 ]
	SubspaceRotationAdjust: set factor to 0.325
ElecMinimize: Iter:  71  F: -2011.062225435803612  |grad|_K:  3.092e-06  alpha:  1.528e-01  linmin:  1.175e-05  t[s]:   6163.70
	FillingsUpdate:  mu: +0.138574686  nElectrons: 347.000000  magneticMoment: [ Abs: 41.77340  Tot: -0.00000 ]
	SubspaceRotationAdjust: set factor to 0.288
ElecMinimize: Iter:  72  F: -2011.062405723755546  |grad|_K:  2.844e-06  alpha:  1.089e-01  linmin: -7.801e-06  t[s]:   6240.08
	FillingsUpdate:  mu: +0.138671751  nElectrons: 347.000000  magneticMoment: [ Abs: 41.76609  Tot: +0.00000 ]
	SubspaceRotationAdjust: set factor to 0.311
ElecMinimize: Iter:  73  F: -2011.062599147980791  |grad|_K:  2.387e-06  alpha:  1.374e-01  linmin:  3.264e-05  t[s]:   6316.69
	FillingsUpdate:  mu: +0.139018222  nElectrons: 347.000000  magneticMoment: [ Abs: 41.76624  Tot: -0.00000 ]
	SubspaceRotationAdjust: set factor to 0.364
ElecMinimize: Iter:  74  F: -2011.062775226725080  |grad|_K:  2.192e-06  alpha:  1.778e-01  linmin: -3.883e-05  t[s]:   6394.68
	FillingsUpdate:  mu: +0.138907201  nElectrons: 347.000000  magneticMoment: [ Abs: 41.77072  Tot: -0.00000 ]
	SubspaceRotationAdjust: set factor to 0.388
ElecMinimize: Iter:  75  F: -2011.062918980512677  |grad|_K:  2.293e-06  alpha:  1.714e-01  linmin: -3.105e-05  t[s]:   6472.81
	FillingsUpdate:  mu: +0.139858166  nElectrons: 347.000000  magneticMoment: [ Abs: 41.75867  Tot: +0.00000 ]
	SubspaceRotationAdjust: set factor to 0.348
ElecMinimize: Iter:  76  F: -2011.063015973079473  |grad|_K:  2.353e-06  alpha:  1.055e-01  linmin: -4.936e-06  t[s]:   6550.93
	FillingsUpdate:  mu: +0.138792009  nElectrons: 347.000000  magneticMoment: [ Abs: 41.76347  Tot: -0.00000 ]
	SubspaceRotationAdjust: set factor to 0.342
ElecMinimize: Iter:  77  F: -2011.063122207728156  |grad|_K:  1.919e-06  alpha:  1.101e-01  linmin: -2.238e-05  t[s]:   6627.93
	FillingsUpdate:  mu: +0.138500944  nElectrons: 347.000000  magneticMoment: [ Abs: 41.75723  Tot: -0.00000 ]
	SubspaceRotationAdjust: set factor to 0.384
ElecMinimize: Iter:  78  F: -2011.063233829588626  |grad|_K:  1.747e-06  alpha:  1.737e-01  linmin:  6.589e-06  t[s]:   6704.46
	FillingsUpdate:  mu: +0.138337865  nElectrons: 347.000000  magneticMoment: [ Abs: 41.75114  Tot: +0.00000 ]
	SubspaceRotationAdjust: set factor to 0.422
ElecMinimize: Iter:  79  F: -2011.063329532626767  |grad|_K:  1.665e-06  alpha:  1.803e-01  linmin:  1.572e-06  t[s]:   6779.94
	FillingsUpdate:  mu: +0.137923716  nElectrons: 347.000000  magneticMoment: [ Abs: 41.75334  Tot: +0.00000 ]
	SubspaceRotationAdjust: set factor to 0.399
ElecMinimize: Iter:  80  F: -2011.063399460304709  |grad|_K:  1.860e-06  alpha:  1.450e-01  linmin: -4.341e-06  t[s]:   6855.88
	FillingsUpdate:  mu: +0.138505530  nElectrons: 347.000000  magneticMoment: [ Abs: 41.74214  Tot: +0.00000 ]
	SubspaceRotationAdjust: set factor to 0.316
ElecMinimize: Iter:  81  F: -2011.063448397535240  |grad|_K:  1.638e-06  alpha:  8.113e-02  linmin: -6.638e-07  t[s]:   6931.16
	FillingsUpdate:  mu: +0.138210325  nElectrons: 347.000000  magneticMoment: [ Abs: 41.74100  Tot: +0.00000 ]
	SubspaceRotationAdjust: set factor to 0.334
ElecMinimize: Iter:  82  F: -2011.063510741230857  |grad|_K:  1.318e-06  alpha:  1.333e-01  linmin: -1.290e-05  t[s]:   7005.61
	FillingsUpdate:  mu: +0.138140077  nElectrons: 347.000000  magneticMoment: [ Abs: 41.73783  Tot: +0.00000 ]
	SubspaceRotationAdjust: set factor to 0.363
ElecMinimize: Iter:  83  F: -2011.063563696428446  |grad|_K:  1.226e-06  alpha:  1.745e-01  linmin: -9.047e-06  t[s]:   7081.84
	FillingsUpdate:  mu: +0.138617676  nElectrons: 347.000000  magneticMoment: [ Abs: 41.72966  Tot: +0.00000 ]
	SubspaceRotationAdjust: set factor to 0.33
ElecMinimize: Iter:  84  F: -2011.063598665967902  |grad|_K:  1.308e-06  alpha:  1.334e-01  linmin:  1.154e-06  t[s]:   7158.17
	FillingsUpdate:  mu: +0.138198978  nElectrons: 347.000000  magneticMoment: [ Abs: 41.73213  Tot: +0.00000 ]
	SubspaceRotationAdjust: set factor to 0.285
ElecMinimize: Iter:  85  F: -2011.063627285742541  |grad|_K:  1.061e-06  alpha:  9.621e-02  linmin: -2.517e-06  t[s]:   7237.17
	FillingsUpdate:  mu: +0.138342540  nElectrons: 347.000000  magneticMoment: [ Abs: 41.72788  Tot: -0.00000 ]
	SubspaceRotationAdjust: set factor to 0.326
ElecMinimize: Iter:  86  F: -2011.063658831906196  |grad|_K:  9.220e-07  alpha:  1.611e-01  linmin:  4.573e-06  t[s]:   7313.70
	FillingsUpdate:  mu: +0.138597302  nElectrons: 347.000000  magneticMoment: [ Abs: 41.72329  Tot: +0.00000 ]
	SubspaceRotationAdjust: set factor to 0.352
ElecMinimize: Iter:  87  F: -2011.063685205035881  |grad|_K:  9.665e-07  alpha:  1.783e-01  linmin:  3.971e-06  t[s]:   7391.45
	FillingsUpdate:  mu: +0.138219681  nElectrons: 347.000000  magneticMoment: [ Abs: 41.72607  Tot: -0.00000 ]
	SubspaceRotationAdjust: set factor to 0.323
ElecMinimize: Iter:  88  F: -2011.063703837417279  |grad|_K:  9.682e-07  alpha:  1.147e-01  linmin:  6.793e-07  t[s]:   7468.07
	FillingsUpdate:  mu: +0.138476215  nElectrons: 347.000000  magneticMoment: [ Abs: 41.72145  Tot: +0.00000 ]
	SubspaceRotationAdjust: set factor to 0.342
ElecMinimize: Iter:  89  F: -2011.063724675702360  |grad|_K:  8.344e-07  alpha:  1.277e-01  linmin:  4.045e-06  t[s]:   7547.08
	FillingsUpdate:  mu: +0.138414175  nElectrons: 347.000000  magneticMoment: [ Abs: 41.72036  Tot: +0.00000 ]
	SubspaceRotationAdjust: set factor to 0.404
ElecMinimize: Iter:  90  F: -2011.063747356880413  |grad|_K:  8.108e-07  alpha:  1.871e-01  linmin: -3.107e-06  t[s]:   7625.58
	FillingsUpdate:  mu: +0.138259185  nElectrons: 347.000000  magneticMoment: [ Abs: 41.72073  Tot: -0.00000 ]
	SubspaceRotationAdjust: set factor to 0.448
ElecMinimize: Iter:  91  F: -2011.063768432013376  |grad|_K:  8.891e-07  alpha:  1.841e-01  linmin: -2.517e-06  t[s]:   7703.09
	FillingsUpdate:  mu: +0.138648834  nElectrons: 347.000000  magneticMoment: [ Abs: 41.71544  Tot: +0.00000 ]
	SubspaceRotationAdjust: set factor to 0.404
ElecMinimize: Iter:  92  F: -2011.063783735703282  |grad|_K:  1.038e-06  alpha:  1.111e-01  linmin: -4.064e-07  t[s]:   7779.92
	FillingsUpdate:  mu: +0.138296605  nElectrons: 347.000000  magneticMoment: [ Abs: 41.71814  Tot: -0.00000 ]
	SubspaceRotationAdjust: set factor to 0.371
ElecMinimize: Iter:  93  F: -2011.063802613237385  |grad|_K:  9.073e-07  alpha:  1.006e-01  linmin: -1.580e-06  t[s]:   7855.26
	FillingsUpdate:  mu: +0.138419498  nElectrons: 347.000000  magneticMoment: [ Abs: 41.71552  Tot: +0.00000 ]
	SubspaceRotationAdjust: set factor to 0.402
ElecMinimize: Iter:  94  F: -2011.063828044764250  |grad|_K:  8.937e-07  alpha:  1.774e-01  linmin:  1.878e-06  t[s]:   7933.00
	FillingsUpdate:  mu: +0.138375675  nElectrons: 347.000000  magneticMoment: [ Abs: 41.71519  Tot: +0.00000 ]
	SubspaceRotationAdjust: set factor to 0.441
ElecMinimize: Iter:  95  F: -2011.063855684972168  |grad|_K:  9.343e-07  alpha:  1.988e-01  linmin:  1.234e-06  t[s]:   8011.26
	FillingsUpdate:  mu: +0.138293574  nElectrons: 347.000000  magneticMoment: [ Abs: 41.71626  Tot: +0.00000 ]
	SubspaceRotationAdjust: set factor to 0.478
ElecMinimize: Iter:  96  F: -2011.063886508481346  |grad|_K:  1.018e-06  alpha:  2.029e-01  linmin:  1.901e-06  t[s]:   8091.48
	FillingsUpdate:  mu: +0.138684835  nElectrons: 347.000000  magneticMoment: [ Abs: 41.71277  Tot: +0.00000 ]
	SubspaceRotationAdjust: set factor to 0.47
ElecMinimize: Iter:  97  F: -2011.063915906867578  |grad|_K:  1.283e-06  alpha:  1.628e-01  linmin:  1.343e-06  t[s]:   8169.76
	FillingsUpdate:  mu: +0.138243495  nElectrons: 347.000000  magneticMoment: [ Abs: 41.71899  Tot: -0.00000 ]
	SubspaceRotationAdjust: set factor to 0.385
ElecMinimize: Iter:  98  F: -2011.063938018015961  |grad|_K:  1.262e-06  alpha:  7.706e-02  linmin: -2.599e-06  t[s]:   8249.18
	FillingsUpdate:  mu: +0.138576741  nElectrons: 347.000000  magneticMoment: [ Abs: 41.71680  Tot: -0.00000 ]
	SubspaceRotationAdjust: set factor to 0.409
ElecMinimize: Iter:  99  F: -2011.063977272408465  |grad|_K:  1.198e-06  alpha:  1.416e-01  linmin:  1.026e-05  t[s]:   8326.78
	FillingsUpdate:  mu: +0.138608710  nElectrons: 347.000000  magneticMoment: [ Abs: 41.71886  Tot: -0.00000 ]
	SubspaceRotationAdjust: set factor to 0.47
ElecMinimize: Iter: 100  F: -2011.064029495901423  |grad|_K:  1.339e-06  alpha:  2.096e-01  linmin:  6.253e-06  t[s]:   8401.67
	FillingsUpdate:  mu: +0.138257859  nElectrons: 347.000000  magneticMoment: [ Abs: 41.72590  Tot: +0.00000 ]
	SubspaceRotationAdjust: set factor to 0.5
ElecMinimize: Iter: 101  F: -2011.064089604531091  |grad|_K:  1.730e-06  alpha:  1.927e-01  linmin: -2.982e-06  t[s]:   8477.77
	FillingsUpdate:  mu: +0.138969358  nElectrons: 347.000000  magneticMoment: [ Abs: 41.72018  Tot: +0.00000 ]
	SubspaceRotationAdjust: set factor to 0.437
ElecMinimize: Iter: 102  F: -2011.064137641237949  |grad|_K:  2.057e-06  alpha:  9.126e-02  linmin: -2.384e-05  t[s]:   8556.01
	FillingsUpdate:  mu: +0.138342371  nElectrons: 347.000000  magneticMoment: [ Abs: 41.73219  Tot: -0.00000 ]
	SubspaceRotationAdjust: set factor to 0.437
ElecMinimize: Iter: 103  F: -2011.064222987462927  |grad|_K:  1.942e-06  alpha:  1.153e-01  linmin:  1.514e-06  t[s]:   8633.77
	FillingsUpdate:  mu: +0.138510751  nElectrons: 347.000000  magneticMoment: [ Abs: 41.74001  Tot: +0.00000 ]
	SubspaceRotationAdjust: set factor to 0.486
ElecMinimize: Iter: 104  F: -2011.064352820262684  |grad|_K:  2.247e-06  alpha:  2.000e-01  linmin:  6.103e-05  t[s]:   8709.59
	FillingsUpdate:  mu: +0.138604115  nElectrons: 347.000000  magneticMoment: [ Abs: 41.75305  Tot: +0.00000 ]
	SubspaceRotationAdjust: set factor to 0.539
ElecMinimize: Iter: 105  F: -2011.064512102160279  |grad|_K:  2.623e-06  alpha:  1.841e-01  linmin:  3.505e-05  t[s]:   8786.44
	FillingsUpdate:  mu: +0.138100633  nElectrons: 347.000000  magneticMoment: [ Abs: 41.77596  Tot: -0.00000 ]
	SubspaceRotationAdjust: set factor to 0.567
ElecMinimize: Iter: 106  F: -2011.064678938919087  |grad|_K:  3.085e-06  alpha:  1.394e-01  linmin:  5.149e-06  t[s]:   8863.26
	FillingsUpdate:  mu: +0.138902795  nElectrons: 347.000000  magneticMoment: [ Abs: 41.77862  Tot: +0.00000 ]
	SubspaceRotationAdjust: set factor to 0.526
ElecMinimize: Iter: 107  F: -2011.064810822985237  |grad|_K:  3.395e-06  alpha:  7.759e-02  linmin: -3.519e-05  t[s]:   8943.69
	FillingsUpdate:  mu: +0.138264856  nElectrons: 347.000000  magneticMoment: [ Abs: 41.80328  Tot: +0.00000 ]
	SubspaceRotationAdjust: set factor to 0.567
ElecMinimize: Iter: 108  F: -2011.064968572179623  |grad|_K:  3.008e-06  alpha:  7.749e-02  linmin:  2.039e-05  t[s]:   9019.67
	FillingsUpdate:  mu: +0.138351319  nElectrons: 347.000000  magneticMoment: [ Abs: 41.82109  Tot: +0.00000 ]
	SubspaceRotationAdjust: set factor to 0.694
ElecMinimize: Iter: 109  F: -2011.065131091522062  |grad|_K:  3.052e-06  alpha:  1.048e-01  linmin:  4.053e-05  t[s]:   9099.52
	FillingsUpdate:  mu: +0.139115895  nElectrons: 347.000000  magneticMoment: [ Abs: 41.82493  Tot: +0.00000 ]
	SubspaceRotationAdjust: set factor to 0.751
ElecMinimize: Iter: 110  F: -2011.065256599290478  |grad|_K:  3.452e-06  alpha:  7.830e-02  linmin:  3.298e-06  t[s]:   9176.57
	FillingsUpdate:  mu: +0.138412693  nElectrons: 347.000000  magneticMoment: [ Abs: 41.84261  Tot: +0.00000 ]
	SubspaceRotationAdjust: set factor to 0.799
ElecMinimize: Iter: 111  F: -2011.065365511986784  |grad|_K:  3.168e-06  alpha:  5.247e-02  linmin: -1.729e-06  t[s]:   9255.23
	FillingsUpdate:  mu: +0.138715394  nElectrons: 347.000000  magneticMoment: [ Abs: 41.84444  Tot: +0.00000 ]
	SubspaceRotationAdjust: set factor to 1.04
	SubspaceRotationAdjust: resetting CG because factor has changed by 8.08208
ElecMinimize: 	State modified externally: resetting search direction.
ElecMinimize: Iter: 112  F: -2011.065492025532649  |grad|_K:  3.081e-06  alpha:  7.253e-02
ElecMinimize: 	Predicted alpha/alphaT>3.000000, increasing alphaT to 2.175777e-01.
	FillingsUpdate:  mu: +0.137668096  nElectrons: 347.000000  magneticMoment: [ Abs: 41.85284  Tot: -0.00000 ]
	SubspaceRotationAdjust: set factor to 0.54
ElecMinimize: Iter: 113  F: -2011.066004257157601  |grad|_K:  1.040e-05  alpha:  3.074e-01  linmin: -2.407e-04  t[s]:   9455.30
	FillingsUpdate:  mu: +0.138116089  nElectrons: 347.000000  magneticMoment: [ Abs: 41.80185  Tot: -0.00000 ]
	SubspaceRotationAdjust: set factor to 0.274
ElecMinimize: Iter: 114  F: -2011.066492455762045  |grad|_K:  3.183e-06  alpha:  2.601e-02  linmin:  2.354e-04  t[s]:   9535.64
ElecMinimize: 	Predicted alpha/alphaT>3.000000, increasing alphaT to 7.804448e-02.
ElecMinimize: 	Predicted alpha/alphaT>3.000000, increasing alphaT to 2.341335e-01.
	FillingsUpdate:  mu: +0.138533200  nElectrons: 347.000000  magneticMoment: [ Abs: 41.78521  Tot: -0.00000 ]
	SubspaceRotationAdjust: set factor to 0.215
ElecMinimize: Iter: 115  F: -2011.067057753474955  |grad|_K:  2.573e-06  alpha:  3.289e-01  linmin: -8.467e-05  t[s]:   9676.39
	FillingsUpdate:  mu: +0.139777958  nElectrons: 347.000000  magneticMoment: [ Abs: 41.75406  Tot: +0.00000 ]
	SubspaceRotationAdjust: set factor to 0.145
ElecMinimize: Iter: 116  F: -2011.067273702995180  |grad|_K:  2.992e-06  alpha:  1.853e-01  linmin: -1.128e-05  t[s]:   9754.70
	FillingsUpdate:  mu: +0.137931472  nElectrons: 347.000000  magneticMoment: [ Abs: 41.75607  Tot: -0.00000 ]
	SubspaceRotationAdjust: set factor to 0.142
ElecMinimize: Iter: 117  F: -2011.067501571503044  |grad|_K:  1.552e-06  alpha:  1.469e-01  linmin: -6.656e-05  t[s]:   9835.44
	FillingsUpdate:  mu: +0.137916266  nElectrons: 347.000000  magneticMoment: [ Abs: 41.75513  Tot: -0.00000 ]
	SubspaceRotationAdjust: set factor to 0.137
	SubspaceRotationAdjust: resetting CG because factor has changed by 0.131366
ElecMinimize: 	State modified externally: resetting search direction.
ElecMinimize: Iter: 118  F: -2011.067632036791110  |grad|_K:  1.386e-06  alpha:  3.089e-01
	FillingsUpdate:  mu: +0.138181779  nElectrons: 347.000000  magneticMoment: [ Abs: 41.74569  Tot: -0.00000 ]
	SubspaceRotationAdjust: set factor to 0.119
ElecMinimize: Iter: 119  F: -2011.067676620822567  |grad|_K:  7.900e-07  alpha:  1.332e-01  linmin: -1.140e-04  t[s]:  10007.62
	FillingsUpdate:  mu: +0.137978400  nElectrons: 347.000000  magneticMoment: [ Abs: 41.75047  Tot: +0.00000 ]
	SubspaceRotationAdjust: set factor to 0.128
ElecMinimize: Iter: 120  F: -2011.067711385335542  |grad|_K:  6.978e-07  alpha:  3.196e-01  linmin: -3.102e-06  t[s]:  10085.84
	FillingsUpdate:  mu: +0.138184321  nElectrons: 347.000000  magneticMoment: [ Abs: 41.74929  Tot: +0.00000 ]
	SubspaceRotationAdjust: set factor to 0.153
ElecMinimize: Iter: 121  F: -2011.067751037802054  |grad|_K:  7.989e-07  alpha:  4.677e-01  linmin: -8.087e-08  t[s]:  10165.09
	FillingsUpdate:  mu: +0.138212548  nElectrons: 347.000000  magneticMoment: [ Abs: 41.74756  Tot: -0.00000 ]
	SubspaceRotationAdjust: set factor to 0.173
ElecMinimize: Iter: 122  F: -2011.067805371975510  |grad|_K:  9.210e-07  alpha:  4.890e-01  linmin: -2.256e-06  t[s]:  10241.36
	FillingsUpdate:  mu: +0.137925931  nElectrons: 347.000000  magneticMoment: [ Abs: 41.75520  Tot: +0.00000 ]
	SubspaceRotationAdjust: set factor to 0.141
ElecMinimize: Iter: 123  F: -2011.067854691619232  |grad|_K:  1.116e-06  alpha:  3.348e-01  linmin: -2.310e-06  t[s]:  10317.46
	FillingsUpdate:  mu: +0.138282816  nElectrons: 347.000000  magneticMoment: [ Abs: 41.74676  Tot: +0.00000 ]
	SubspaceRotationAdjust: set factor to 0.107
ElecMinimize: Iter: 124  F: -2011.067901911168065  |grad|_K:  1.097e-06  alpha:  2.176e-01  linmin:  2.405e-07  t[s]:  10396.34
	FillingsUpdate:  mu: +0.138522094  nElectrons: 347.000000  magneticMoment: [ Abs: 41.74824  Tot: +0.00000 ]
	SubspaceRotationAdjust: set factor to 0.128
ElecMinimize: Iter: 125  F: -2011.068013336714102  |grad|_K:  1.089e-06  alpha:  5.309e-01  linmin: -1.380e-05  t[s]:  10472.00
	FillingsUpdate:  mu: +0.138096403  nElectrons: 347.000000  magneticMoment: [ Abs: 41.75466  Tot: +0.00000 ]
	SubspaceRotationAdjust: set factor to 0.124
ElecMinimize: Iter: 126  F: -2011.068081242858625  |grad|_K:  1.081e-06  alpha:  3.287e-01  linmin:  6.459e-07  t[s]:  10547.33
	FillingsUpdate:  mu: +0.138622664  nElectrons: 347.000000  magneticMoment: [ Abs: 41.74757  Tot: +0.00000 ]
	SubspaceRotationAdjust: set factor to 0.101
ElecMinimize: Iter: 127  F: -2011.068136600891876  |grad|_K:  9.189e-07  alpha:  2.722e-01  linmin: -1.178e-06  t[s]:  10624.19
	FillingsUpdate:  mu: +0.138173730  nElectrons: 347.000000  magneticMoment: [ Abs: 41.75285  Tot: +0.00000 ]
	SubspaceRotationAdjust: set factor to 0.102
ElecMinimize: Iter: 128  F: -2011.068183793502612  |grad|_K:  9.034e-07  alpha:  3.209e-01  linmin: -9.069e-06  t[s]:  10701.84
	FillingsUpdate:  mu: +0.138203755  nElectrons: 347.000000  magneticMoment: [ Abs: 41.75398  Tot: +0.00000 ]
	SubspaceRotationAdjust: set factor to 0.121
ElecMinimize: Iter: 129  F: -2011.068240776141693  |grad|_K:  8.421e-07  alpha:  4.005e-01  linmin: -6.005e-06  t[s]:  10779.98
	FillingsUpdate:  mu: +0.138689480  nElectrons: 347.000000  magneticMoment: [ Abs: 41.74871  Tot: +0.00000 ]
	SubspaceRotationAdjust: set factor to 0.115
ElecMinimize: Iter: 130  F: -2011.068282249611229  |grad|_K:  8.577e-07  alpha:  3.357e-01  linmin: -2.825e-06  t[s]:  10855.85
	FillingsUpdate:  mu: +0.137979978  nElectrons: 347.000000  magneticMoment: [ Abs: 41.75540  Tot: -0.00000 ]
	SubspaceRotationAdjust: set factor to 0.0979
ElecMinimize: Iter: 131  F: -2011.068325499964430  |grad|_K:  9.173e-07  alpha:  3.376e-01  linmin: -1.038e-05  t[s]:  10932.26
	FillingsUpdate:  mu: +0.137982938  nElectrons: 347.000000  magneticMoment: [ Abs: 41.75098  Tot: +0.00000 ]
	SubspaceRotationAdjust: set factor to 0.112
ElecMinimize: Iter: 132  F: -2011.068383079714749  |grad|_K:  8.460e-07  alpha:  3.926e-01  linmin: -1.656e-07  t[s]:  11010.45
	FillingsUpdate:  mu: +0.138400026  nElectrons: 347.000000  magneticMoment: [ Abs: 41.74454  Tot: +0.00000 ]
	SubspaceRotationAdjust: set factor to 0.117
ElecMinimize: Iter: 133  F: -2011.068437458284279  |grad|_K:  9.372e-07  alpha:  4.363e-01  linmin: -1.103e-06  t[s]:  11087.31
	FillingsUpdate:  mu: +0.137908735  nElectrons: 347.000000  magneticMoment: [ Abs: 41.74809  Tot: +0.00000 ]
	SubspaceRotationAdjust: set factor to 0.0963
ElecMinimize: Iter: 134  F: -2011.068485897236997  |grad|_K:  8.558e-07  alpha:  3.168e-01  linmin: -3.301e-06  t[s]:  11165.49
	FillingsUpdate:  mu: +0.138282597  nElectrons: 347.000000  magneticMoment: [ Abs: 41.73914  Tot: +0.00000 ]
	SubspaceRotationAdjust: set factor to 0.0859
ElecMinimize: Iter: 135  F: -2011.068527497290006  |grad|_K:  8.061e-07  alpha:  3.261e-01  linmin: -1.904e-06  t[s]:  11243.38
	FillingsUpdate:  mu: +0.138107730  nElectrons: 347.000000  magneticMoment: [ Abs: 41.73520  Tot: +0.00000 ]
	SubspaceRotationAdjust: set factor to 0.0961
ElecMinimize: Iter: 136  F: -2011.068573479497900  |grad|_K:  7.768e-07  alpha:  4.063e-01  linmin: -2.825e-06  t[s]:  11317.02
	FillingsUpdate:  mu: +0.137820489  nElectrons: 347.000000  magneticMoment: [ Abs: 41.73477  Tot: +0.00000 ]
	SubspaceRotationAdjust: set factor to 0.0955
ElecMinimize: Iter: 137  F: -2011.068608215781978  |grad|_K:  6.814e-07  alpha:  3.305e-01  linmin: -2.046e-06  t[s]:  11392.87
	FillingsUpdate:  mu: +0.138252830  nElectrons: 347.000000  magneticMoment: [ Abs: 41.72688  Tot: +0.00000 ]
	SubspaceRotationAdjust: set factor to 0.0855
ElecMinimize: Iter: 138  F: -2011.068638819180478  |grad|_K:  6.504e-07  alpha:  3.785e-01  linmin:  2.015e-06  t[s]:  11469.48
	FillingsUpdate:  mu: +0.137971094  nElectrons: 347.000000  magneticMoment: [ Abs: 41.72667  Tot: +0.00000 ]
	SubspaceRotationAdjust: set factor to 0.0878
ElecMinimize: Iter: 139  F: -2011.068667019514123  |grad|_K:  6.220e-07  alpha:  3.829e-01  linmin:  3.874e-07  t[s]:  11547.11
	FillingsUpdate:  mu: +0.137917380  nElectrons: 347.000000  magneticMoment: [ Abs: 41.72520  Tot: +0.00000 ]
	SubspaceRotationAdjust: set factor to 0.0989
ElecMinimize: Iter: 140  F: -2011.068691077279254  |grad|_K:  5.490e-07  alpha:  3.572e-01  linmin:  1.443e-06  t[s]:  11623.25
	FillingsUpdate:  mu: +0.138202914  nElectrons: 347.000000  magneticMoment: [ Abs: 41.72128  Tot: -0.00000 ]
	SubspaceRotationAdjust: set factor to 0.0975
ElecMinimize: Iter: 141  F: -2011.068708632056314  |grad|_K:  4.949e-07  alpha:  3.345e-01  linmin:  3.313e-06  t[s]:  11702.76
	FillingsUpdate:  mu: +0.138021491  nElectrons: 347.000000  magneticMoment: [ Abs: 41.72366  Tot: -0.00000 ]
	SubspaceRotationAdjust: set factor to 0.097
ElecMinimize: Iter: 142  F: -2011.068725901566950  |grad|_K:  4.958e-07  alpha:  4.051e-01  linmin:  2.137e-06  t[s]:  11780.17
	FillingsUpdate:  mu: +0.138255210  nElectrons: 347.000000  magneticMoment: [ Abs: 41.72241  Tot: -0.00000 ]
	SubspaceRotationAdjust: set factor to 0.106
ElecMinimize: Iter: 143  F: -2011.068743955380796  |grad|_K:  5.276e-07  alpha:  4.220e-01  linmin:  2.156e-06  t[s]:  11858.05
	FillingsUpdate:  mu: +0.138313496  nElectrons: 347.000000  magneticMoment: [ Abs: 41.72230  Tot: -0.00000 ]
	SubspaceRotationAdjust: set factor to 0.117
ElecMinimize: Iter: 144  F: -2011.068763312767487  |grad|_K:  5.675e-07  alpha:  3.995e-01  linmin:  1.068e-06  t[s]:  11935.06
	FillingsUpdate:  mu: +0.137944239  nElectrons: 347.000000  magneticMoment: [ Abs: 41.72667  Tot: -0.00000 ]
	SubspaceRotationAdjust: set factor to 0.114
ElecMinimize: Iter: 145  F: -2011.068787895075502  |grad|_K:  6.160e-07  alpha:  4.384e-01  linmin:  1.818e-06  t[s]:  12011.76
	FillingsUpdate:  mu: +0.138265554  nElectrons: 347.000000  magneticMoment: [ Abs: 41.72363  Tot: +0.00000 ]
	SubspaceRotationAdjust: set factor to 0.0978
ElecMinimize: Iter: 146  F: -2011.068810975371889  |grad|_K:  6.478e-07  alpha:  3.494e-01  linmin:  5.867e-07  t[s]:  12089.74
	FillingsUpdate:  mu: +0.138167509  nElectrons: 347.000000  magneticMoment: [ Abs: 41.72889  Tot: -0.00000 ]
	SubspaceRotationAdjust: set factor to 0.0984
ElecMinimize: Iter: 147  F: -2011.068837387294025  |grad|_K:  6.155e-07  alpha:  3.615e-01  linmin:  7.530e-07  t[s]:  12165.07
	FillingsUpdate:  mu: +0.138365347  nElectrons: 347.000000  magneticMoment: [ Abs: 41.73249  Tot: -0.00000 ]
	SubspaceRotationAdjust: set factor to 0.11
ElecMinimize: Iter: 148  F: -2011.068865889189965  |grad|_K:  6.148e-07  alpha:  4.323e-01  linmin:  2.273e-06  t[s]:  12239.27
	FillingsUpdate:  mu: +0.138894987  nElectrons: 347.000000  magneticMoment: [ Abs: 41.73154  Tot: +0.00000 ]
	SubspaceRotationAdjust: set factor to 0.105
ElecMinimize: Iter: 149  F: -2011.068890041458644  |grad|_K:  6.111e-07  alpha:  3.671e-01  linmin:  1.488e-06  t[s]:  12315.76
	FillingsUpdate:  mu: +0.138521206  nElectrons: 347.000000  magneticMoment: [ Abs: 41.73819  Tot: +0.00000 ]
	SubspaceRotationAdjust: set factor to 0.0954
ElecMinimize: Iter: 150  F: -2011.068912686373551  |grad|_K:  5.990e-07  alpha:  3.483e-01  linmin: -2.501e-06  t[s]:  12392.42
	FillingsUpdate:  mu: +0.138633798  nElectrons: 347.000000  magneticMoment: [ Abs: 41.73862  Tot: +0.00000 ]
	SubspaceRotationAdjust: set factor to 0.104
ElecMinimize: Iter: 151  F: -2011.068936600781171  |grad|_K:  5.650e-07  alpha:  3.827e-01  linmin: -9.916e-07  t[s]:  12469.39
	FillingsUpdate:  mu: +0.138586032  nElectrons: 347.000000  magneticMoment: [ Abs: 41.73980  Tot: +0.00000 ]
	SubspaceRotationAdjust: set factor to 0.116
ElecMinimize: Iter: 152  F: -2011.068958598546260  |grad|_K:  5.497e-07  alpha:  3.957e-01  linmin: -1.117e-06  t[s]:  12546.24
	FillingsUpdate:  mu: +0.138301871  nElectrons: 347.000000  magneticMoment: [ Abs: 41.74497  Tot: +0.00000 ]
	SubspaceRotationAdjust: set factor to 0.11
ElecMinimize: Iter: 153  F: -2011.068977321041302  |grad|_K:  5.456e-07  alpha:  3.559e-01  linmin: -3.622e-06  t[s]:  12624.67
	FillingsUpdate:  mu: +0.138490640  nElectrons: 347.000000  magneticMoment: [ Abs: 41.74303  Tot: +0.00000 ]
	SubspaceRotationAdjust: set factor to 0.0981
ElecMinimize: Iter: 154  F: -2011.068994206869547  |grad|_K:  5.100e-07  alpha:  3.256e-01  linmin:  5.730e-06  t[s]:  12701.74
	FillingsUpdate:  mu: +0.138341609  nElectrons: 347.000000  magneticMoment: [ Abs: 41.74670  Tot: +0.00000 ]
	SubspaceRotationAdjust: set factor to 0.107
ElecMinimize: Iter: 155  F: -2011.069010616927926  |grad|_K:  4.783e-07  alpha:  3.626e-01  linmin: -5.075e-06  t[s]:  12777.96
	FillingsUpdate:  mu: +0.138277239  nElectrons: 347.000000  magneticMoment: [ Abs: 41.74985  Tot: +0.00000 ]
	SubspaceRotationAdjust: set factor to 0.118
ElecMinimize: Iter: 156  F: -2011.069027222029945  |grad|_K:  4.670e-07  alpha:  4.165e-01  linmin: -3.841e-06  t[s]:  12855.88
	FillingsUpdate:  mu: +0.138538240  nElectrons: 347.000000  magneticMoment: [ Abs: 41.74899  Tot: +0.00000 ]
	SubspaceRotationAdjust: set factor to 0.11
ElecMinimize: Iter: 157  F: -2011.069039658841348  |grad|_K:  4.324e-07  alpha:  3.271e-01  linmin:  3.247e-06  t[s]:  12933.13
	FillingsUpdate:  mu: +0.138348622  nElectrons: 347.000000  magneticMoment: [ Abs: 41.75339  Tot: -0.00000 ]
	SubspaceRotationAdjust: set factor to 0.0962
ElecMinimize: Iter: 158  F: -2011.069049699345442  |grad|_K:  4.022e-07  alpha:  3.086e-01  linmin: -2.843e-06  t[s]:  13009.83
	FillingsUpdate:  mu: +0.138495570  nElectrons: 347.000000  magneticMoment: [ Abs: 41.75319  Tot: +0.00000 ]
	SubspaceRotationAdjust: set factor to 0.105
ElecMinimize: Iter: 159  F: -2011.069060156813748  |grad|_K:  3.663e-07  alpha:  3.712e-01  linmin:  1.740e-06  t[s]:  13085.99
	FillingsUpdate:  mu: +0.138562970  nElectrons: 347.000000  magneticMoment: [ Abs: 41.75294  Tot: +0.00000 ]
	SubspaceRotationAdjust: set factor to 0.116
ElecMinimize: Iter: 160  F: -2011.069069526782869  |grad|_K:  3.685e-07  alpha:  4.012e-01  linmin:  1.936e-09  t[s]:  13157.82
	FillingsUpdate:  mu: +0.138332077  nElectrons: 347.000000  magneticMoment: [ Abs: 41.75510  Tot: -0.00000 ]
	SubspaceRotationAdjust: set factor to 0.108
ElecMinimize: Iter: 161  F: -2011.069077447100653  |grad|_K:  3.387e-07  alpha:  3.350e-01  linmin: -5.597e-07  t[s]:  13236.60
	FillingsUpdate:  mu: +0.138465458  nElectrons: 347.000000  magneticMoment: [ Abs: 41.75248  Tot: +0.00000 ]
	SubspaceRotationAdjust: set factor to 0.0991
ElecMinimize: Iter: 162  F: -2011.069083785086605  |grad|_K:  3.163e-07  alpha:  3.172e-01  linmin: -1.141e-07  t[s]:  13313.77
	FillingsUpdate:  mu: +0.138342605  nElectrons: 347.000000  magneticMoment: [ Abs: 41.75259  Tot: -0.00000 ]
	SubspaceRotationAdjust: set factor to 0.108
ElecMinimize: Iter: 163  F: -2011.069090486430696  |grad|_K:  3.048e-07  alpha:  3.848e-01  linmin: -9.746e-07  t[s]:  13390.89
	FillingsUpdate:  mu: +0.138320965  nElectrons: 347.000000  magneticMoment: [ Abs: 41.75192  Tot: -0.00000 ]
	SubspaceRotationAdjust: set factor to 0.122
ElecMinimize: Iter: 164  F: -2011.069096733200467  |grad|_K:  3.063e-07  alpha:  3.861e-01  linmin: -1.272e-07  t[s]:  13468.20
	FillingsUpdate:  mu: +0.138513451  nElectrons: 347.000000  magneticMoment: [ Abs: 41.74879  Tot: -0.00000 ]
	SubspaceRotationAdjust: set factor to 0.12
ElecMinimize: Iter: 165  F: -2011.069103048497254  |grad|_K:  3.254e-07  alpha:  3.866e-01  linmin:  5.260e-07  t[s]:  13546.03
	FillingsUpdate:  mu: +0.138359050  nElectrons: 347.000000  magneticMoment: [ Abs: 41.74990  Tot: +0.00000 ]
	SubspaceRotationAdjust: set factor to 0.106
ElecMinimize: Iter: 166  F: -2011.069108943618858  |grad|_K:  3.262e-07  alpha:  3.198e-01  linmin: -1.917e-06  t[s]:  13622.86
	FillingsUpdate:  mu: +0.138498762  nElectrons: 347.000000  magneticMoment: [ Abs: 41.74718  Tot: -0.00000 ]
	SubspaceRotationAdjust: set factor to 0.11
ElecMinimize: Iter: 167  F: -2011.069115757738700  |grad|_K:  3.153e-07  alpha:  3.677e-01  linmin:  1.480e-06  t[s]:  13699.12
	FillingsUpdate:  mu: +0.138531506  nElectrons: 347.000000  magneticMoment: [ Abs: 41.74555  Tot: +0.00000 ]
	SubspaceRotationAdjust: set factor to 0.124
ElecMinimize: Iter: 168  F: -2011.069123513085515  |grad|_K:  3.396e-07  alpha:  4.482e-01  linmin:  4.092e-07  t[s]:  13775.86
	FillingsUpdate:  mu: +0.138339640  nElectrons: 347.000000  magneticMoment: [ Abs: 41.74614  Tot: -0.00000 ]
	SubspaceRotationAdjust: set factor to 0.121
ElecMinimize: Iter: 169  F: -2011.069131596159650  |grad|_K:  3.764e-07  alpha:  4.026e-01  linmin: -5.241e-06  t[s]:  13852.12
	FillingsUpdate:  mu: +0.138517228  nElectrons: 347.000000  magneticMoment: [ Abs: 41.74200  Tot: -0.00000 ]
	SubspaceRotationAdjust: set factor to 0.103
ElecMinimize: Iter: 170  F: -2011.069139370409630  |grad|_K:  3.749e-07  alpha:  3.149e-01  linmin:  9.348e-07  t[s]:  13927.95
	FillingsUpdate:  mu: +0.138326521  nElectrons: 347.000000  magneticMoment: [ Abs: 41.74223  Tot: -0.00000 ]
	SubspaceRotationAdjust: set factor to 0.103
ElecMinimize: Iter: 171  F: -2011.069148170005974  |grad|_K:  3.579e-07  alpha:  3.596e-01  linmin: -5.560e-06  t[s]:  14003.77
	FillingsUpdate:  mu: +0.138309822  nElectrons: 347.000000  magneticMoment: [ Abs: 41.74080  Tot: -0.00000 ]
	SubspaceRotationAdjust: set factor to 0.116
ElecMinimize: Iter: 172  F: -2011.069156914181349  |grad|_K:  3.430e-07  alpha:  3.918e-01  linmin:  6.764e-07  t[s]:  14078.09
	FillingsUpdate:  mu: +0.138459659  nElectrons: 347.000000  magneticMoment: [ Abs: 41.73768  Tot: -0.00000 ]
	SubspaceRotationAdjust: set factor to 0.113
ElecMinimize: Iter: 173  F: -2011.069164281160965  |grad|_K:  3.344e-07  alpha:  3.596e-01  linmin:  1.465e-06  t[s]:  14155.08
	FillingsUpdate:  mu: +0.138286338  nElectrons: 347.000000  magneticMoment: [ Abs: 41.73881  Tot: -0.00000 ]
	SubspaceRotationAdjust: set factor to 0.0968
ElecMinimize: Iter: 174  F: -2011.069170410932202  |grad|_K:  3.071e-07  alpha:  3.150e-01  linmin: -8.475e-07  t[s]:  14232.58
	FillingsUpdate:  mu: +0.138395064  nElectrons: 347.000000  magneticMoment: [ Abs: 41.73650  Tot: -0.00000 ]
	SubspaceRotationAdjust: set factor to 0.0985
ElecMinimize: Iter: 175  F: -2011.069175728447362  |grad|_K:  2.603e-07  alpha:  3.238e-01  linmin:  1.250e-06  t[s]:  14306.99
	FillingsUpdate:  mu: +0.138383423  nElectrons: 347.000000  magneticMoment: [ Abs: 41.73553  Tot: -0.00000 ]
	SubspaceRotationAdjust: set factor to 0.112
ElecMinimize: Iter: 176  F: -2011.069179893446289  |grad|_K:  2.291e-07  alpha:  3.530e-01  linmin:  2.361e-07  t[s]:  14384.09
	FillingsUpdate:  mu: +0.138236645  nElectrons: 347.000000  magneticMoment: [ Abs: 41.73619  Tot: -0.00000 ]
	SubspaceRotationAdjust: set factor to 0.108
ElecMinimize: Iter: 177  F: -2011.069183025705343  |grad|_K:  2.089e-07  alpha:  3.428e-01  linmin:  5.099e-07  t[s]:  14462.77
	FillingsUpdate:  mu: +0.138312513  nElectrons: 347.000000  magneticMoment: [ Abs: 41.73458  Tot: -0.00000 ]
	SubspaceRotationAdjust: set factor to 0.0974
ElecMinimize: Iter: 178  F: -2011.069185339575142  |grad|_K:  1.844e-07  alpha:  3.045e-01  linmin:  3.598e-07  t[s]:  14537.47
	FillingsUpdate:  mu: +0.138257159  nElectrons: 347.000000  magneticMoment: [ Abs: 41.73509  Tot: +0.00000 ]
	SubspaceRotationAdjust: set factor to 0.107
ElecMinimize: Iter: 179  F: -2011.069187381480788  |grad|_K:  1.575e-07  alpha:  3.449e-01  linmin:  4.310e-07  t[s]:  14613.62
	FillingsUpdate:  mu: +0.138246525  nElectrons: 347.000000  magneticMoment: [ Abs: 41.73525  Tot: +0.00000 ]
	SubspaceRotationAdjust: set factor to 0.122
ElecMinimize: Iter: 180  F: -2011.069188943944482  |grad|_K:  1.443e-07  alpha:  3.615e-01  linmin: -2.277e-07  t[s]:  14689.92
	FillingsUpdate:  mu: +0.138318899  nElectrons: 347.000000  magneticMoment: [ Abs: 41.73442  Tot: +0.00000 ]
	SubspaceRotationAdjust: set factor to 0.118
ElecMinimize: Iter: 181  F: -2011.069190169253034  |grad|_K:  1.394e-07  alpha:  3.379e-01  linmin:  1.577e-06  t[s]:  14764.71
	FillingsUpdate:  mu: +0.138234943  nElectrons: 347.000000  magneticMoment: [ Abs: 41.73542  Tot: +0.00000 ]
	SubspaceRotationAdjust: set factor to 0.105
ElecMinimize: Iter: 182  F: -2011.069191223808048  |grad|_K:  1.313e-07  alpha:  3.118e-01  linmin: -3.477e-07  t[s]:  14842.01
	FillingsUpdate:  mu: +0.138271134  nElectrons: 347.000000  magneticMoment: [ Abs: 41.73498  Tot: +0.00000 ]
	SubspaceRotationAdjust: set factor to 0.111
ElecMinimize: Iter: 183  F: -2011.069192275365594  |grad|_K:  1.193e-07  alpha:  3.506e-01  linmin:  1.882e-06  t[s]:  14917.18
	FillingsUpdate:  mu: +0.138273539  nElectrons: 347.000000  magneticMoment: [ Abs: 41.73501  Tot: -0.00000 ]
	SubspaceRotationAdjust: set factor to 0.128
ElecMinimize: Iter: 184  F: -2011.069193200187328  |grad|_K:  1.102e-07  alpha:  3.731e-01  linmin: -3.783e-07  t[s]:  14990.67
	FillingsUpdate:  mu: +0.138225857  nElectrons: 347.000000  magneticMoment: [ Abs: 41.73572  Tot: +0.00000 ]
	SubspaceRotationAdjust: set factor to 0.126
ElecMinimize: Iter: 185  F: -2011.069193962040572  |grad|_K:  1.101e-07  alpha:  3.603e-01  linmin:  7.685e-07  t[s]:  15067.14
	FillingsUpdate:  mu: +0.138295899  nElectrons: 347.000000  magneticMoment: [ Abs: 41.73504  Tot: +0.00000 ]
	SubspaceRotationAdjust: set factor to 0.107
ElecMinimize: Iter: 186  F: -2011.069194588052824  |grad|_K:  1.072e-07  alpha:  2.966e-01  linmin:  5.198e-07  t[s]:  15143.55
	FillingsUpdate:  mu: +0.138249144  nElectrons: 347.000000  magneticMoment: [ Abs: 41.73571  Tot: -0.00000 ]
	SubspaceRotationAdjust: set factor to 0.108
ElecMinimize: Iter: 187  F: -2011.069195240725776  |grad|_K:  9.433e-08  alpha:  3.263e-01  linmin:  1.121e-06  t[s]:  15219.47
	FillingsUpdate:  mu: +0.138248241  nElectrons: 347.000000  magneticMoment: [ Abs: 41.73588  Tot: -0.00000 ]
	SubspaceRotationAdjust: set factor to 0.124
ElecMinimize: Iter: 188  F: -2011.069195840985458  |grad|_K:  8.903e-08  alpha:  3.876e-01  linmin:  3.529e-06  t[s]:  15294.31
ElecMinimize: Converged (|Delta F|<1.000000e-06 for 5 iters).
Setting wave functions to eigenvectors of Hamiltonian

# Ionic positions in lattice coordinates:
ion Ni   0.000000000000000   0.000000000000000   0.150000000000000 1
ion Ni   0.500000000000000   0.500000000000000   0.150000000000000 1
ion Ni   0.250000000000000   0.250000000000000   0.050000000000000 1
ion Ni   0.250000000000000   0.750000000000000   0.050000000000000 1
ion Co   0.500000000000000   0.000000000000000   0.150000000000000 1
ion Co  -0.250000000000000   0.250000000000000   0.050000000000000 1
ion Co  -0.250000000000000   0.750000000000000   0.050000000000000 1
ion Co   0.000000000000000   0.000000000000000  -0.050000000000000 0
ion V   0.000000000000000   0.500000000000000   0.150000000000000 1
ion V   0.500000000000000   0.000000000000000  -0.050000000000000 0
ion V   0.500000000000000   0.500000000000000  -0.050000000000000 0
[...]
	SubspaceRotationAdjust: set factor to 0.154
ElecMinimize: Iter:  14  F: -2011.099369399662464  |grad|_K:  1.385e-07  alpha:  2.656e-01  linmin:  5.841e-07  t[s]:  63687.64
	FillingsUpdate:  mu: +0.137043670  nElectrons: 347.000000  magneticMoment: [ Abs: 42.06724  Tot: +0.00000 ]
	SubspaceRotationAdjust: set factor to 0.167
ElecMinimize: Iter:  15  F: -2011.099370469294854  |grad|_K:  1.051e-07  alpha:  3.201e-01  linmin: -7.145e-07  t[s]:  63767.37
	FillingsUpdate:  mu: +0.137129843  nElectrons: 347.000000  magneticMoment: [ Abs: 42.06791  Tot: -0.00000 ]
	SubspaceRotationAdjust: set factor to 0.146
ElecMinimize: Iter:  16  F: -2011.099370975519832  |grad|_K:  8.194e-08  alpha:  2.631e-01  linmin:  7.928e-07  t[s]:  63846.39
	FillingsUpdate:  mu: +0.137086334  nElectrons: 347.000000  magneticMoment: [ Abs: 42.06754  Tot: +0.00000 ]
	SubspaceRotationAdjust: set factor to 0.16
ElecMinimize: Iter:  17  F: -2011.099371321735134  |grad|_K:  6.334e-08  alpha:  2.962e-01  linmin: -5.521e-07  t[s]:  63923.52
	FillingsUpdate:  mu: +0.137076294  nElectrons: 347.000000  magneticMoment: [ Abs: 42.06746  Tot: +0.00000 ]
	SubspaceRotationAdjust: set factor to 0.196
ElecMinimize: Iter:  18  F: -2011.099371563429258  |grad|_K:  5.727e-08  alpha:  3.461e-01  linmin: -2.858e-06  t[s]:  63996.19
	FillingsUpdate:  mu: +0.137118664  nElectrons: 347.000000  magneticMoment: [ Abs: 42.06782  Tot: +0.00000 ]
	SubspaceRotationAdjust: set factor to 0.208
ElecMinimize: Iter:  19  F: -2011.099371767134016  |grad|_K:  5.936e-08  alpha:  3.566e-01  linmin:  3.082e-05  t[s]:  64075.01
	FillingsUpdate:  mu: +0.137070852  nElectrons: 347.000000  magneticMoment: [ Abs: 42.06746  Tot: +0.00000 ]
	SubspaceRotationAdjust: set factor to 0.213
ElecMinimize: Iter:  20  F: -2011.099371958792972  |grad|_K:  6.101e-08  alpha:  3.129e-01  linmin: -2.461e-06  t[s]:  64153.04
ElecMinimize: Converged (|Delta F|<1.000000e-06 for 5 iters).
Setting wave functions to eigenvectors of Hamiltonian

# Ionic positions in lattice coordinates:
ion Ni   0.019039308990500  -0.000570794253596   0.151918997237072 1
ion Ni   0.496721837074395   0.500401782230343   0.145973727810350 1
ion Ni   0.251154848265829   0.248970496177829   0.053349204811167 1
ion Ni   0.250995736515301   0.751196566916478   0.053867685253060 1
ion Co   0.499603565012705   0.000387422807624   0.158082950852106 1
ion Co  -0.253729082747890   0.249271363219382   0.057005582753523 1
ion Co  -0.253449662414967   0.751332449279373   0.056817405683521 1
ion Co   0.000000000000000   0.000000000000000  -0.050000000000000 0
ion V   0.000228858161188   0.499213362751194   0.157038073067449 1
ion V   0.500000000000000   0.000000000000000  -0.050000000000000 0
ion V   0.500000000000000   0.500000000000000  -0.050000000000000 0
ion V   0.250000000000000   0.250000000000000  -0.150000000000000 0
ion V   0.250000000000000   0.750000000000000  -0.150000000000000 0
ion V  -0.250000000000000   0.250000000000000  -0.150000000000000 0
ion V  -0.250000000000000   0.750000000000000  -0.150000000000000 0
ion Cr   0.000000000000000   0.500000000000000  -0.050000000000000 0
ion O   0.271836602832131   0.263183680940022   0.146112383892126 1
ion O   0.273381735868019   0.732376586468325   0.146511498745884 1
ion O  -0.278612421515929   0.271509037264540   0.151416526637664 1
ion O  -0.276546199992156   0.733120210570389   0.151288654057205 1
ion O   0.007975473924623   0.001936048336297   0.056247618776342 1
ion O   0.492062343954534  -0.000605764368741   0.049128475072942 1
ion O   0.009525938808105   0.501453233898817   0.046563270769515 1
ion O   0.490622122919163   0.499999999162903   0.048202109092957 1
ion O   0.250000000000000   0.250000000000000  -0.050000000000000 0
ion O   0.250000000000000   0.750000000000000  -0.050000000000000 0
ion O  -0.250000000000000   0.250000000000000  -0.050000000000000 0
ion O  -0.250000000000000   0.750000000000000  -0.050000000000000 0
ion O   0.000000000000000   0.000000000000000  -0.150000000000000 0
ion O   0.500000000000000   0.000000000000000  -0.150000000000000 0
ion O   0.000000000000000   0.500000000000000  -0.150000000000000 0
ion O   0.500000000000000   0.500000000000000  -0.150000000000000 0
ion O   0.007759266453603   0.005062704093974   0.230699774308977 1

# Forces in Lattice coordinates:
force Ni   0.018372569952880   0.004029520091950   0.000766537313578 1
force Ni  -0.004542185480228   0.001325919295277   0.026509879163244 1
force Ni   0.002836160071111   0.000770614865712   0.029613131636927 1
force Ni   0.004149028295082  -0.000049028408389   0.026769927654792 1
force Co   0.004582124457533  -0.001076175568653   0.023849369311813 1
force Co   0.002812092685172   0.002560024243072  -0.024989608887062 1
force Co   0.003201169206749  -0.002585034974893  -0.014759094542078 1
force Co   0.038624080790971  -0.000035674191322   0.640649917064572 0
force V  -0.003692968831427   0.003875262320933   0.026542057600133 1
force V  -0.113677998693695  -0.001445073248424   0.700171634717650 0
force V  -0.106359283447090   0.001310884900285   0.537374947485997 0
force V   0.032611774451666  -0.032679683247985  -0.356979166459082 0
force V   0.032481205053498   0.032624887755903  -0.353954680035395 0
force V   0.023130625149567  -0.018559115110284  -0.560075265180207 0
force V   0.023139791663038   0.018587010925602  -0.559709580423193 0
force Cr   0.004844325233798   0.003183578351658   0.607225956998758 0
force O  -0.008041948228655  -0.001704662485077  -0.000205548980958 1
force O  -0.004806262075436   0.004534751682119   0.011569551724611 1
force O   0.008160190268173  -0.001462336320782   0.026191242803439 1
force O   0.008844686526711  -0.004679551670785   0.031592838030678 1
force O   0.001684040052476   0.000377299723754   0.043480527387476 1
force O   0.002910548326329   0.000618812674736   0.014136286043660 1
force O  -0.002096689257755  -0.001066399588429   0.015435913177869 1
force O   0.001486200020878   0.000488969291676  -0.009105183238589 1
force O   0.041889998576106  -0.068870581854963  -0.081960000245620 0
force O   0.041323754303760   0.070185429815599  -0.079753618237979 0
force O  -0.060809923726420  -0.072739249095340  -0.062203045726762 0
force O  -0.061246690691459   0.073790478818724  -0.069922531015787 0
force O   0.011302142912640  -0.000003535612545  -0.173584691711099 0
force O   0.032225935530247   0.000367650239609  -0.336710006687863 0
force O   0.029478738822824  -0.000609543857424   0.212865284234196 0
force O   0.032716070029508  -0.000100568322426  -0.345541377339476 0
force O  -0.002965604936161   0.002356675462919   0.018256432853924 1

# Energy components:
   Eewald =     5661.5810700071378960
       EH =     7477.8199418165459065
     Eloc =   -15313.2733010479296354
      Enl =     -521.0721431118683995
   Epulay =       -0.0004829005249220
      Exc =     -246.3617128411172814
       KE =      929.0380480619664922
        U =        1.1702017813065950
-------------------------------------
     Etot =    -2011.0983782344831070
       TS =        0.0009937243098304
-------------------------------------
        F =    -2011.0993719587929718

IonicMinimize: Iter:  13  F: -2011.099371958792972  |grad|_K:  4.737e-04  alpha:  1.000e+00  linmin:  3.705e-04  t[s]:  64165.36

#--- Lowdin population analysis ---
# oxidation-state Ni +3.482 +3.705 +3.552 +3.556
# magnetic-moments Ni +0.668 +0.631 +0.989 +0.992
# oxidation-state Co +1.326 +1.246 +1.246 +1.273
# magnetic-moments Co -2.828 -2.719 -2.719 -2.755
# oxidation-state V +1.145 +1.040 +1.027 +1.042 +1.042 +1.044 +1.045
# magnetic-moments V +2.960 +2.676 +2.723 -2.921 -2.922 +2.942 +2.942
# oxidation-state Cr +2.885
# magnetic-moments Cr -3.684
# oxidation-state O -0.761 -0.764 -0.877 -0.873 -0.866 -0.917 -0.855 -0.840 -0.896 -0.896 -0.953 -0.953 -0.998 -0.963 -0.932 -0.965 -0.376
# magnetic-moments O +0.208 +0.205 -0.059 -0.048 +0.175 +0.129 +0.203 +0.268 +0.025 +0.024 -0.059 -0.059 -0.044 -0.003 +0.045 -0.002 +1.227


-------- Electronic minimization -----------
	FillingsUpdate:  mu: +0.137903694  nElectrons: 347.000000  magneticMoment: [ Abs: 42.07734  Tot: +0.00000 ]
ElecMinimize: Iter:   0  F: -2011.091217457018274  |grad|_K:  1.552e-05  alpha:  1.000e+00
	FillingsUpdate:  mu: +0.135581674  nElectrons: 347.000000  magneticMoment: [ Abs: 42.06177  Tot: +0.00000 ]
	SubspaceRotationAdjust: set factor to 0.182
ElecMinimize: Iter:   1  F: -2011.099008083007448  |grad|_K:  2.660e-06  alpha:  1.857e-01  linmin: -5.675e-04  t[s]:  64290.65
	FillingsUpdate:  mu: +0.137808538  nElectrons: 347.000000  magneticMoment: [ Abs: 42.07975  Tot: -0.00000 ]
	SubspaceRotationAdjust: set factor to 0.115
ElecMinimize: Iter:   2  F: -2011.099226043735598  |grad|_K:  1.613e-06  alpha:  1.768e-01  linmin: -8.646e-05  t[s]:  64369.27
	FillingsUpdate:  mu: +0.136797256  nElectrons: 347.000000  magneticMoment: [ Abs: 42.06938  Tot: -0.00000 ]
	SubspaceRotationAdjust: set factor to 0.0861
ElecMinimize: Iter:   3  F: -2011.099327621794600  |grad|_K:  8.372e-07  alpha:  2.240e-01  linmin:  3.668e-05  t[s]:  64446.88
	FillingsUpdate:  mu: +0.136829310  nElectrons: 347.000000  magneticMoment: [ Abs: 42.06917  Tot: -0.00000 ]
	SubspaceRotationAdjust: set factor to 0.0989
ElecMinimize: Iter:   4  F: -2011.099359654217778  |grad|_K:  5.766e-07  alpha:  2.627e-01  linmin:  5.124e-07  t[s]:  64526.17
	FillingsUpdate:  mu: +0.137129201  nElectrons: 347.000000  magneticMoment: [ Abs: 42.07133  Tot: -0.00000 ]
	SubspaceRotationAdjust: set factor to 0.1
ElecMinimize: Iter:   5  F: -2011.099375744994859  |grad|_K:  3.761e-07  alpha:  2.780e-01  linmin: -6.314e-08  t[s]:  64603.59
	FillingsUpdate:  mu: +0.137050257  nElectrons: 347.000000  magneticMoment: [ Abs: 42.07117  Tot: +0.00000 ]
	SubspaceRotationAdjust: set factor to 0.116
ElecMinimize: Iter:   6  F: -2011.099383551462097  |grad|_K:  2.812e-07  alpha:  3.170e-01  linmin: -7.446e-07  t[s]:  64681.48
	FillingsUpdate:  mu: +0.136944006  nElectrons: 347.000000  magneticMoment: [ Abs: 42.07076  Tot: +0.00000 ]
	SubspaceRotationAdjust: set factor to 0.136
ElecMinimize: Iter:   7  F: -2011.099388424459448  |grad|_K:  2.363e-07  alpha:  3.540e-01  linmin: -5.760e-07  t[s]:  64759.90
	FillingsUpdate:  mu: +0.137069774  nElectrons: 347.000000  magneticMoment: [ Abs: 42.07187  Tot: -0.00000 ]
	SubspaceRotationAdjust: set factor to 0.158
ElecMinimize: Iter:   8  F: -2011.099391959318382  |grad|_K:  2.229e-07  alpha:  3.637e-01  linmin:  7.270e-07  t[s]:  64837.35
	FillingsUpdate:  mu: +0.137050895  nElectrons: 347.000000  magneticMoment: [ Abs: 42.07200  Tot: -0.00000 ]
	SubspaceRotationAdjust: set factor to 0.19
ElecMinimize: Iter:   9  F: -2011.099395373590369  |grad|_K:  2.194e-07  alpha:  3.949e-01  linmin: -4.675e-07  t[s]:  64914.46
	FillingsUpdate:  mu: +0.136973729  nElectrons: 347.000000  magneticMoment: [ Abs: 42.07182  Tot: +0.00000 ]
	SubspaceRotationAdjust: set factor to 0.211
ElecMinimize: Iter:  10  F: -2011.099398772050563  |grad|_K:  2.267e-07  alpha:  4.055e-01  linmin: -1.127e-06  t[s]:  64991.80
	FillingsUpdate:  mu: +0.137153422  nElectrons: 347.000000  magneticMoment: [ Abs: 42.07359  Tot: +0.00000 ]
	SubspaceRotationAdjust: set factor to 0.197
ElecMinimize: Iter:  11  F: -2011.099401793189600  |grad|_K:  2.201e-07  alpha:  3.374e-01  linmin:  1.102e-06  t[s]:  65071.27
	FillingsUpdate:  mu: +0.136984604  nElectrons: 347.000000  magneticMoment: [ Abs: 42.07243  Tot: +0.00000 ]
	SubspaceRotationAdjust: set factor to 0.164
ElecMinimize: Iter:  12  F: -2011.099403970309822  |grad|_K:  1.768e-07  alpha:  2.584e-01  linmin: -1.059e-06  t[s]:  65148.01
	FillingsUpdate:  mu: +0.137063516  nElectrons: 347.000000  magneticMoment: [ Abs: 42.07324  Tot: +0.00000 ]
	SubspaceRotationAdjust: set factor to 0.162
ElecMinimize: Iter:  13  F: -2011.099405602988782  |grad|_K:  1.337e-07  alpha:  2.998e-01  linmin:  9.080e-07  t[s]:  65226.66
	FillingsUpdate:  mu: +0.137071832  nElectrons: 347.000000  magneticMoment: [ Abs: 42.07347  Tot: -0.00000 ]
	SubspaceRotationAdjust: set factor to 0.173
ElecMinimize: Iter:  14  F: -2011.099406641967562  |grad|_K:  1.047e-07  alpha:  3.339e-01  linmin:  3.980e-07  t[s]:  65304.50
	FillingsUpdate:  mu: +0.137016747  nElectrons: 347.000000  magneticMoment: [ Abs: 42.07309  Tot: -0.00000 ]
	SubspaceRotationAdjust: set factor to 0.17
ElecMinimize: Iter:  15  F: -2011.099407184059601  |grad|_K:  8.240e-08  alpha:  2.840e-01  linmin: -1.675e-06  t[s]:  65381.95
	FillingsUpdate:  mu: +0.137067573  nElectrons: 347.000000  magneticMoment: [ Abs: 42.07347  Tot: +0.00000 ]
	SubspaceRotationAdjust: set factor to 0.173
ElecMinimize: Iter:  16  F: -2011.099407541166784  |grad|_K:  6.545e-08  alpha:  3.020e-01  linmin: -3.524e-06  t[s]:  65459.15
	FillingsUpdate:  mu: +0.137042118  nElectrons: 347.000000  magneticMoment: [ Abs: 42.07328  Tot: +0.00000 ]
	SubspaceRotationAdjust: set factor to 0.201
ElecMinimize: Iter:  17  F: -2011.099407789789893  |grad|_K:  5.759e-08  alpha:  3.330e-01  linmin: -4.287e-06  t[s]:  65536.22
	FillingsUpdate:  mu: +0.137040776  nElectrons: 347.000000  magneticMoment: [ Abs: 42.07329  Tot: +0.00000 ]
	SubspaceRotationAdjust: set factor to 0.247
ElecMinimize: Iter:  18  F: -2011.099408003394046  |grad|_K:  5.588e-08  alpha:  3.695e-01  linmin:  3.801e-06  t[s]:  65609.39
	FillingsUpdate:  mu: +0.137066703  nElectrons: 347.000000  magneticMoment: [ Abs: 42.07352  Tot: -0.00000 ]
	SubspaceRotationAdjust: set factor to 0.285
ElecMinimize: Iter:  19  F: -2011.099408210722004  |grad|_K:  6.166e-08  alpha:  3.815e-01  linmin: -1.708e-05  t[s]:  65687.18
ElecMinimize: Converged (|Delta F|<1.000000e-06 for 5 iters).
Setting wave functions to eigenvectors of Hamiltonian

# Ionic positions in lattice coordinates:
ion Ni   0.020258315042986  -0.000270211045177   0.151996233520246 1
ion Ni   0.496748736794448   0.500425353085019   0.146003863877067 1
ion Ni   0.251265018435862   0.249086814637984   0.053395822232297 1
ion Ni   0.251094290476783   0.751155787581209   0.053890895712146 1
ion Co   0.500002896425945   0.000361931894964   0.158108626997832 1
ion Co  -0.253465857100269   0.249322516050922   0.056941378313497 1
ion Co  -0.253198270813894   0.751279373593792   0.056793221175320 1
ion Co   0.000000000000000   0.000000000000000  -0.050000000000000 0
ion V   0.000113922814259   0.499358413566380   0.157060969736616 1
ion V   0.500000000000000   0.000000000000000  -0.050000000000000 0
ion V   0.500000000000000   0.500000000000000  -0.050000000000000 0
ion V   0.250000000000000   0.250000000000000  -0.150000000000000 0
ion V   0.250000000000000   0.750000000000000  -0.150000000000000 0
ion V  -0.250000000000000   0.250000000000000  -0.150000000000000 0
ion V  -0.250000000000000   0.750000000000000  -0.150000000000000 0
ion Cr   0.000000000000000   0.500000000000000  -0.050000000000000 0
ion O   0.271596275650005   0.263212507774765   0.146200057150989 1
ion O   0.273343622974379   0.732650229767340   0.146629408143649 1
ion O  -0.278492953161270   0.271543780623606   0.151504912586898 1
ion O  -0.276347770476032   0.732683847608761   0.151408343502465 1
ion O   0.008112015920217   0.001898728644154   0.056363241282585 1
ion O   0.492174515109518  -0.000558078206914   0.049224663229220 1
ion O   0.009605477232567   0.501414086757789   0.046588012949253 1
ion O   0.490618126628436   0.499990532170253   0.048238764010317 1
ion O   0.250000000000000   0.250000000000000  -0.050000000000000 0
ion O   0.250000000000000   0.750000000000000  -0.050000000000000 0
ion O  -0.250000000000000   0.250000000000000  -0.050000000000000 0
ion O  -0.250000000000000   0.750000000000000  -0.050000000000000 0
ion O   0.000000000000000   0.000000000000000  -0.150000000000000 0
ion O   0.500000000000000   0.000000000000000  -0.150000000000000 0
ion O   0.000000000000000   0.500000000000000  -0.150000000000000 0
ion O   0.500000000000000   0.500000000000000  -0.150000000000000 0
ion O   0.007654197039340   0.005250466620600   0.230784208491046 1

# Forces in Lattice coordinates:
force Ni   0.007096697835238   0.002510909167492   0.000120688367943 1
force Ni   0.001783074575712  -0.000200023155370  -0.004244156697433 1
force Ni   0.002508822536082   0.001787114224887   0.001736004279027 1
force Ni   0.004656669556265  -0.000523790061019   0.004510194112946 1
force Co   0.010898836917488  -0.000729682297990   0.021497636095029 1
force Co   0.001581648806642   0.000935891106077   0.005538773863898 1
force Co   0.002388099202394  -0.000541744326150   0.013933794492377 1
force Co   0.039813685618516   0.000001635918737   0.645248265387288 0
force V  -0.002355104511787   0.003224156455286   0.023560581455023 1
force V  -0.114258333456118  -0.001463386751580   0.704454364120855 0
force V  -0.107040337709795   0.001374599511311   0.537935379938948 0
force V   0.032310113938755  -0.032298259639615  -0.352820826346335 0
force V   0.032169162397708   0.032248290370445  -0.349977318565581 0
force V   0.023438938944904  -0.018235565389269  -0.556626756095243 0
force V   0.023447149863171   0.018260406824065  -0.556109925196080 0
force Cr   0.005773561419700   0.003194601392922   0.602413791212792 0
force O  -0.001710757285113   0.000834481351405  -0.017553296397100 1
force O  -0.000083564704448   0.000536672381506  -0.008384352561933 1
force O   0.003658687893463   0.000217896793605   0.002141508966632 1
force O   0.002781884150869  -0.004936681375495   0.007169121303210 1
force O  -0.000148867342798   0.000441575892208   0.031630331507243 1
force O   0.002511047635026   0.000383597432762  -0.002286755985737 1
force O  -0.002747440907243  -0.000849322563537   0.008014313787776 1
force O   0.001981571070827   0.000950256366623  -0.016083545129557 1
force O   0.041954555991537  -0.069759657830386  -0.079737998615353 0
force O   0.041468763546642   0.071058615320420  -0.077257852313906 0
force O  -0.060892790625889  -0.073570648972459  -0.061195483013879 0
force O  -0.061278620237753   0.074613450543004  -0.068607710438980 0
force O   0.011200083332286  -0.000000827861092  -0.171103928332963 0
force O   0.032332664130419   0.000354932709642  -0.333636741619790 0
force O   0.029337760766347  -0.000599878182641   0.214213200426251 0
force O   0.032867202283351  -0.000098794043762  -0.343544824120814 0
force O  -0.003825941132603   0.001374201079053   0.005224845099242 1

# Energy components:
   Eewald =     5659.8609536183139426
       EH =     7476.0941433379639420
     Eloc =   -15309.8242362360215338
      Enl =     -521.0713964514679901
   Epulay =       -0.0004829005249220
      Exc =     -246.3602085576691820
       KE =      929.0327428014992392
        U =        1.1700668179151654
-------------------------------------
     Etot =    -2011.0984175699918524
       TS =        0.0009906407300746
-------------------------------------
        F =    -2011.0994082107220038

IonicMinimize: Iter:  14  F: -2011.099408210722004  |grad|_K:  2.898e-04  alpha:  1.000e+00  linmin: -2.327e-02  t[s]:  65699.66
IonicMinimize: Converged (|Delta F|<1.000000e-04 for 3 iters).

#--- Lowdin population analysis ---
# oxidation-state Ni +3.482 +3.706 +3.552 +3.556
# magnetic-moments Ni +0.669 +0.632 +0.989 +0.992
# oxidation-state Co +1.327 +1.246 +1.246 +1.273
# magnetic-moments Co -2.828 -2.719 -2.720 -2.755
# oxidation-state V +1.145 +1.040 +1.027 +1.042 +1.042 +1.045 +1.045
# magnetic-moments V +2.959 +2.676 +2.723 -2.921 -2.922 +2.942 +2.942
# oxidation-state Cr +2.884
# magnetic-moments Cr -3.686
# oxidation-state O -0.761 -0.764 -0.877 -0.872 -0.866 -0.917 -0.855 -0.840 -0.896 -0.896 -0.953 -0.953 -0.998 -0.963 -0.932 -0.965 -0.376
# magnetic-moments O +0.209 +0.205 -0.058 -0.048 +0.175 +0.129 +0.203 +0.268 +0.025 +0.024 -0.059 -0.059 -0.045 -0.003 +0.045 -0.002 +1.228


Dumping 'run.ionpos' ... done
Dumping 'run.lattice' ... done
Dumping 'run.Ecomponents' ... done
End date and time: Sat May 10 05:59:06 2025  (Duration: 0-18:15:02.84)
Done!
