/var/spool/slurmd/job44095/slurm_script: line 9: module: command not found
/var/spool/slurmd/job44095/slurm_script: line 10: module: command not found

*************** JDFTx 1.7.0  ***************

Start date and time: Tue May  6 14:54:31 2025
Executable /data2/jt577/jdftx_eat_withLibXC/build/jdftx with command-line: -i /data2/jt577/May_2025/Relax_Mag/rel5+1_6/OH/runs/calc_/run.in
Running on hosts (process indices):  node3221 (0-8)
Divided in process groups (process indices):  0 (0)  1 (1)  2 (2)  3 (3)  4 (4)  5 (5)  6 (6)  7 (7)  8 (8)
Resource initialization completed at t[s]:      0.00
Run totals: 9 processes, 36 threads, 0 GPUs


Input parsed successfully to the following command list (including defaults):

add-mix 
add-U 	Ni d 0.22 \
	V d 0.12 \
	Cr d 0.16 \
	Co d 0.2
basis kpoint-dependent
coords-type Lattice
core-overlap-check vector
coulomb-interaction Periodic
davidson-band-ratio 1.1
dump End IonicPositions Lattice Ecomponents
dump-name run.$VAR
elec-cutoff 30
elec-eigen-algo Davidson
elec-ex-corr gga-x-rpbe gga-c-pbe
elec-smearing Fermi 0.001
electronic-minimize  \
	dirUpdateScheme      FletcherReeves \
	linminMethod         DirUpdateRecommended \
	nIterations          1000 \
	history              15 \
	knormThreshold       0 \
	energyDiffThreshold  1e-06 \
	nEnergyDiff          5 \
	alphaTstart          1 \
	alphaTmin            1e-10 \
	updateTestStepSize   yes \
	alphaTreduceFactor   0.1 \
	alphaTincreaseFactor 3 \
	nAlphaAdjustMax      3 \
	wolfeEnergy          0.0001 \
	wolfeGradient        0.9 \
	fdTest               no
exchange-regularization WignerSeitzTruncated
fluid None
fluid-ex-corr (null) lda-PZ
fluid-gummel-loop 10 1.000000e-05
fluid-minimize  \
	dirUpdateScheme      PolakRibiere \
	linminMethod         DirUpdateRecommended \
	nIterations          100 \
	history              15 \
	knormThreshold       0 \
	energyDiffThreshold  0 \
	nEnergyDiff          2 \
	alphaTstart          1 \
	alphaTmin            1e-10 \
	updateTestStepSize   yes \
	alphaTreduceFactor   0.1 \
	alphaTincreaseFactor 3 \
	nAlphaAdjustMax      3 \
	wolfeEnergy          0.0001 \
	wolfeGradient        0.9 \
	fdTest               no
fluid-solvent H2O 55.338 ScalarEOS \
	epsBulk 78.4 \
	pMol 0.92466 \
	epsInf 1.77 \
	Pvap 1.06736e-10 \
	sigmaBulk 4.62e-05 \
	Rvdw 2.61727 \
	Res 1.42 \
	tauNuc 343133 \
	poleEl 15 7 1
forces-output-coords Positions
initial-magnetic-moments  \
	Ni 1 -1 -1 1 1 1 \
	V 1 1 -1 -1 -1 \
	Cr -1 1 -1 \
	Co -1 1
initial-state run.$VAR
ion Ni  0.000000000000000   0.000000000000000   0.150000000000000 1
ion Ni  0.500000000000000   0.000000000000000   0.150000000000000 1
ion Ni  0.500000000000000   0.500000000000000   0.150000000000000 1
ion Ni  0.250000000000000   0.250000000000000   0.050000000000000 1
ion Ni  0.500000000000000   0.000000000000000  -0.050000000000000 0
ion Ni -0.250000000000000   0.750000000000000  -0.150000000000000 0
ion V  0.000000000000000   0.500000000000000   0.150000000000000 1
ion V  0.250000000000000   0.750000000000000   0.050000000000000 1
ion V -0.250000000000000   0.250000000000000   0.050000000000000 1
ion V -0.250000000000000   0.750000000000000   0.050000000000000 1
ion V  0.000000000000000   0.000000000000000  -0.050000000000000 0
ion Cr  0.000000000000000   0.500000000000000  -0.050000000000000 0
ion Cr  0.500000000000000   0.500000000000000  -0.050000000000000 0
ion Cr  0.250000000000000   0.250000000000000  -0.150000000000000 0
ion Co  0.250000000000000   0.750000000000000  -0.150000000000000 0
ion Co -0.250000000000000   0.250000000000000  -0.150000000000000 0
ion O  0.250000000000000   0.250000000000000   0.150000000000000 1
ion O  0.250000000000000   0.750000000000000   0.150000000000000 1
ion O -0.250000000000000   0.250000000000000   0.150000000000000 1
ion O -0.250000000000000   0.750000000000000   0.150000000000000 1
ion O  0.000000000000000   0.000000000000000   0.050000000000000 1
ion O  0.500000000000000   0.000000000000000   0.050000000000000 1
ion O  0.000000000000000   0.500000000000000   0.050000000000000 1
ion O  0.500000000000000   0.500000000000000   0.050000000000000 1
ion O  0.250000000000000   0.250000000000000  -0.050000000000000 0
ion O  0.250000000000000   0.750000000000000  -0.050000000000000 0
ion O -0.250000000000000   0.250000000000000  -0.050000000000000 0
ion O -0.250000000000000   0.750000000000000  -0.050000000000000 0
ion O  0.000000000000000   0.000000000000000  -0.150000000000000 0
ion O  0.500000000000000   0.000000000000000  -0.150000000000000 0
ion O  0.000000000000000   0.500000000000000  -0.150000000000000 0
ion O  0.500000000000000   0.500000000000000  -0.150000000000000 0
ion O -0.008040138212305  -0.008269777577920   0.235000196603227 1
ion H  0.095742872057713   0.094897636790041   0.252810710255288 1
ion-species SG15/$ID_ONCV_PBE.upf
ion-width 0
ionic-minimize  \
	dirUpdateScheme      L-BFGS \
	linminMethod         DirUpdateRecommended \
	nIterations          1000 \
	history              15 \
	knormThreshold       0.0001 \
	energyDiffThreshold  0.0001 \
	nEnergyDiff          3 \
	alphaTstart          1 \
	alphaTmin            1e-10 \
	updateTestStepSize   yes \
	alphaTreduceFactor   0.1 \
	alphaTincreaseFactor 3 \
	nAlphaAdjustMax      3 \
	wolfeEnergy          0.0001 \
	wolfeGradient        0.9 \
	fdTest               no
kpoint   0.500000000000   0.500000000000   0.500000000000  1.00000000000000
kpoint-folding 3 3 1 
latt-move-scale 1 1 1
latt-scale 1 1 1 
lattice  \
	   8.140000000000001    8.140000000000001    0.000000000000000  \
	   8.140000000000001   -8.140000000000001    0.000000000000000  \
	   0.000000000000000    0.000000000000000   40.700000000000003 
lattice-minimize  \
	dirUpdateScheme      L-BFGS \
	linminMethod         DirUpdateRecommended \
	nIterations          0 \
	history              15 \
	knormThreshold       0 \
	energyDiffThreshold  1e-06 \
	nEnergyDiff          2 \
	alphaTstart          1 \
	alphaTmin            1e-10 \
	updateTestStepSize   yes \
	alphaTreduceFactor   0.1 \
	alphaTincreaseFactor 3 \
	nAlphaAdjustMax      3 \
	wolfeEnergy          0.0001 \
	wolfeGradient        0.9 \
	fdTest               no
lcao-params -1 1e-06 0.001
pcm-variant GLSSA13
spintype z-spin
subspace-rotation-factor 1 yes
symmetries none
symmetry-threshold 0.0001


Applied RMS atom displacement 0 bohrs to make symmetries exact.

---------- Initializing the Grid ----------
R = 
[         8.14         8.14            0  ]
[         8.14        -8.14            0  ]
[            0            0         40.7  ]
unit cell volume = 5393.53
G =
[   0.385945   0.385945         -0  ]
[   0.385945  -0.385945         -0  ]
[         -0         -0   0.154378  ]
Minimum fftbox size, Smin = [  60  60  204  ]
Chosen fftbox size, S = [  60  60  210  ]

---------- Exchange Correlation functional ----------
Initialized LibXC exchange functional 'Hammer, Hansen, and Norskov'
Initialized LibXC correlation functional 'Perdew, Burke & Ernzerhof'

---------- Setting up pseudopotentials ----------
Width of ionic core gaussian charges (only for fluid interactions / plotting) set to 0

Reading pseudopotential file '/data2/jt577/jdftx_eat_withLibXC/build/pseudopotentials/SG15/Ni_ONCV_PBE.upf':
  'Ni' pseudopotential, 'PBE' functional
  Generated using ONCVPSP code by D. R. Hamann
  Author: Martin Schlipf and Francois Gygi  Date: 150915.
  18 valence electrons, 4 orbitals, 6 projectors, 1292 radial grid points, with lMax = 2
  Transforming local potential to a uniform radial grid of dG=0.02 with 1419 points.
  Transforming nonlocal projectors to a uniform radial grid of dG=0.02 with 528 points.
    3S    l: 0   occupation:  2.0   eigenvalue: -4.081355
    3P    l: 1   occupation:  6.0   eigenvalue: -2.623460
    4S    l: 0   occupation:  2.0   eigenvalue: -0.207378
    3D    l: 2   occupation:  8.0   eigenvalue: -0.326118
  Transforming atomic orbitals to a uniform radial grid of dG=0.02 with 528 points.
  WARNING: large normalization error in atomic orbital 1s (integral: 0.000006).
  Core radius for overlap checks: 1.99 bohrs.
  Reading pulay file /data2/jt577/jdftx_eat_withLibXC/build/pseudopotentials/SG15/Ni_ONCV_PBE.pulay ... using dE_dnG = -7.250568e-04 computed for Ecut = 30.

Reading pseudopotential file '/data2/jt577/jdftx_eat_withLibXC/build/pseudopotentials/SG15/V_ONCV_PBE.upf':
  'V' pseudopotential, 'PBE' functional
  Generated using ONCVPSP code by D. R. Hamann
  Author: Martin Schlipf and Francois Gygi  Date: 150915.
  13 valence electrons, 4 orbitals, 6 projectors, 1536 radial grid points, with lMax = 2
  Transforming local potential to a uniform radial grid of dG=0.02 with 1419 points.
  Transforming nonlocal projectors to a uniform radial grid of dG=0.02 with 528 points.
    3S    l: 0   occupation:  2.0   eigenvalue: -2.581105
    3P    l: 1   occupation:  6.0   eigenvalue: -1.618486
    4S    l: 0   occupation:  2.0   eigenvalue: -0.172804
    3D    l: 2   occupation:  3.0   eigenvalue: -0.189795
  Transforming atomic orbitals to a uniform radial grid of dG=0.02 with 528 points.
  Core radius for overlap checks: 1.80 bohrs.
  Reading pulay file /data2/jt577/jdftx_eat_withLibXC/build/pseudopotentials/SG15/V_ONCV_PBE.pulay ... using dE_dnG = -1.698632e-04 computed for Ecut = 30.

Reading pseudopotential file '/data2/jt577/jdftx_eat_withLibXC/build/pseudopotentials/SG15/Cr_ONCV_PBE.upf':
  'Cr' pseudopotential, 'PBE' functional
  Generated using ONCVPSP code by D. R. Hamann
  Author: Martin Schlipf and Francois Gygi  Date: 150915.
  14 valence electrons, 4 orbitals, 6 projectors, 1160 radial grid points, with lMax = 2
  Transforming local potential to a uniform radial grid of dG=0.02 with 1419 points.
  Transforming nonlocal projectors to a uniform radial grid of dG=0.02 with 528 points.
    3S    l: 0   occupation:  2.0   eigenvalue: -2.865131
    3P    l: 1   occupation:  6.0   eigenvalue: -1.810600
    4S    l: 0   occupation:  2.0   eigenvalue: -0.180525
    3D    l: 2   occupation:  4.0   eigenvalue: -0.220312
  Transforming atomic orbitals to a uniform radial grid of dG=0.02 with 528 points.
  WARNING: large normalization error in atomic orbital 1s (integral: 0.000001).
  Core radius for overlap checks: 2.10 bohrs.
  Reading pulay file /data2/jt577/jdftx_eat_withLibXC/build/pseudopotentials/SG15/Cr_ONCV_PBE.pulay ... using dE_dnG = -9.817895e-06 computed for Ecut = 30.

Reading pseudopotential file '/data2/jt577/jdftx_eat_withLibXC/build/pseudopotentials/SG15/Co_ONCV_PBE.upf':
  'Co' pseudopotential, 'PBE' functional
  Generated using ONCVPSP code by D. R. Hamann
  Author: Martin Schlipf and Francois Gygi  Date: 150915.
  17 valence electrons, 4 orbitals, 6 projectors, 1388 radial grid points, with lMax = 2
  Transforming local potential to a uniform radial grid of dG=0.02 with 1419 points.
  Transforming nonlocal projectors to a uniform radial grid of dG=0.02 with 528 points.
    3S    l: 0   occupation:  2.0   eigenvalue: -3.763303
    3P    l: 1   occupation:  6.0   eigenvalue: -2.412101
    4S    l: 0   occupation:  2.0   eigenvalue: -0.201022
    3D    l: 2   occupation:  7.0   eigenvalue: -0.301498
  Transforming atomic orbitals to a uniform radial grid of dG=0.02 with 528 points.
  Core radius for overlap checks: 1.94 bohrs.
  Reading pulay file /data2/jt577/jdftx_eat_withLibXC/build/pseudopotentials/SG15/Co_ONCV_PBE.pulay ... using dE_dnG = -9.787391e-05 computed for Ecut = 30.

Reading pseudopotential file '/data2/jt577/jdftx_eat_withLibXC/build/pseudopotentials/SG15/O_ONCV_PBE.upf':
  'O' pseudopotential, 'PBE' functional
  Generated using ONCVPSP code by D. R. Hamann
  Author: Martin Schlipf and Francois Gygi  Date: 150915.
  6 valence electrons, 2 orbitals, 4 projectors, 936 radial grid points, with lMax = 1
  Transforming local potential to a uniform radial grid of dG=0.02 with 1419 points.
  Transforming nonlocal projectors to a uniform radial grid of dG=0.02 with 528 points.
    2S    l: 0   occupation:  2.0   eigenvalue: -0.880572
    2P    l: 1   occupation:  4.0   eigenvalue: -0.331869
  Transforming atomic orbitals to a uniform radial grid of dG=0.02 with 528 points.
  Core radius for overlap checks: 1.29 bohrs.
  Reading pulay file /data2/jt577/jdftx_eat_withLibXC/build/pseudopotentials/SG15/O_ONCV_PBE.pulay ... using dE_dnG = -8.209514e-03 computed for Ecut = 30.

Reading pseudopotential file '/data2/jt577/jdftx_eat_withLibXC/build/pseudopotentials/SG15/H_ONCV_PBE.upf':
  'H' pseudopotential, 'PBE' functional
  Generated using ONCVPSP code by D. R. Hamann
  Author: Martin Schlipf and Francois Gygi  Date: 150915.
  1 valence electrons, 1 orbitals, 2 projectors, 1166 radial grid points, with lMax = 0
  Transforming local potential to a uniform radial grid of dG=0.02 with 1419 points.
  Transforming nonlocal projectors to a uniform radial grid of dG=0.02 with 528 points.
    1S    l: 0   occupation:  1.0   eigenvalue: -0.238602
  Transforming atomic orbitals to a uniform radial grid of dG=0.02 with 528 points.
  Core radius for overlap checks: 1.01 bohrs.
  Reading pulay file /data2/jt577/jdftx_eat_withLibXC/build/pseudopotentials/SG15/H_ONCV_PBE.pulay ... using dE_dnG = -8.245991e-05 computed for Ecut = 30.

Initialized 6 species with 34 total atoms.

Folded 1 k-points by 3x3x1 to 9 k-points.

---------- Setting up k-points, bands, fillings ----------
No reducable k-points. 
Computing the number of bands and number of electrons
Calculating initial fillings.
nElectrons: 352.000000   nBands: 229   nStates: 18

----- Setting up reduced wavefunction bases (one per k-point) -----
average nbasis = 42312.000 , ideal nbasis = 42330.081

---------- Setting up ewald sum ----------
Optimum gaussian width for ewald sums = 3.887061 bohr.
Real space sum over 605 unit cells with max indices [  5  5  2  ]
Reciprocal space sum over 5915 terms with max indices [  6  6  17  ]

---------- Allocating electronic variables ----------
Initializing wave functions:  linear combination of atomic orbitals
Ni (M=1) pseudo-atom majority spin occupations:   s ( 1 0.5 )  p ( 3 )  d ( 5 )
Ni (M=1) pseudo-atom minority spin occupations:   s ( 1 0 )  p ( 3 )  d ( 4.5 )
V (M=1) pseudo-atom majority spin occupations:   s ( 1 0 )  p ( 3 )  d ( 3 )
V (M=1) pseudo-atom minority spin occupations:   s ( 1 0 )  p ( 3 )  d ( 2 )
Cr (M=1) pseudo-atom majority spin occupations:   s ( 1 0 )  p ( 3 )  d ( 3.5 )
Cr (M=1) pseudo-atom minority spin occupations:   s ( 1 0 )  p ( 3 )  d ( 2.5 )
Co (M=1) pseudo-atom majority spin occupations:   s ( 1 0 )  p ( 3 )  d ( 5 )
Co (M=1) pseudo-atom minority spin occupations:   s ( 1 0 )  p ( 3 )  d ( 4 )
O pseudo-atom occupations:   s ( 2 )  p ( 4 )
H pseudo-atom occupations:   s ( 1 )
	FillingsUpdate:  mu: +0.611840130  nElectrons: 352.000000  magneticMoment: [ Abs: 0.20255  Tot: -0.00000 ]
LCAOMinimize: Iter:   0  F: -1919.6885210195737272  |grad|_K:  6.166e-03  alpha:  1.000e+00
	FillingsUpdate:  mu: +0.537801067  nElectrons: 352.000000  magneticMoment: [ Abs: 0.29722  Tot: +0.00000 ]
LCAOMinimize: Iter:   1  F: -1924.6591776598127126  |grad|_K:  8.588e-03  alpha:  9.806e-02  linmin: -1.302e-01  cgtest:  5.928e-01  t[s]:     82.30
	FillingsUpdate:  mu: +0.486494821  nElectrons: 352.000000  magneticMoment: [ Abs: 0.38755  Tot: +0.00000 ]
LCAOMinimize: Iter:   2  F: -1927.1485517671237631  |grad|_K:  1.124e-02  alpha:  1.150e-02  linmin: -1.378e-01  cgtest:  7.137e-01  t[s]:    110.45
LCAOMinimize: 	Wrong curvature in test step, increasing alphaT to 3.448987e-02.
	FillingsUpdate:  mu: +0.235740443  nElectrons: 352.000000  magneticMoment: [ Abs: 6.00849  Tot: -0.00000 ]
LCAOMinimize: Iter:   3  F: -1947.4814837489814181  |grad|_K:  1.270e-02  alpha: -1.435e-03  linmin: -1.272e-01  cgtest:  2.770e-01  t[s]:    136.33
LCAOMinimize: 	Step increased F by 1.920445e+02, reducing alpha to 3.878553e-02.
LCAOMinimize: 	Step increased F by 3.107408e+01, reducing alpha to 3.878553e-03.
LCAOMinimize: 	Step increased F by 1.540632e+01, reducing alpha to 3.878553e-04.
LCAOMinimize: 	Step failed to reduce F after 3 attempts. Quitting step.
LCAOMinimize: 	Undoing step.
LCAOMinimize: 	Step failed: resetting search direction.
	FillingsUpdate:  mu: +1.279150887  nElectrons: 352.000000  magneticMoment: [ Abs: 2.63358  Tot: +0.00000 ]
LCAOMinimize: Iter:   4  F: -1933.9394478392209749  |grad|_K:  6.323e-02  alpha:  3.879e-04
LCAOMinimize: 	Step increased F by 6.725206e+02, reducing alpha to 4.067238e-02.
	FillingsUpdate:  mu: +0.377694535  nElectrons: 352.000000  magneticMoment: [ Abs: 2.30699  Tot: -0.00000 ]
LCAOMinimize: Iter:   5  F: -1939.6090573121857688  |grad|_K:  3.286e-02  alpha:  4.067e-02  linmin:  3.455e-02  cgtest: -1.171e+00  t[s]:    275.23
LCAOMinimize: 	Step increased F by 4.446919e+00, reducing alpha to 5.846051e-03.
	FillingsUpdate:  mu: +0.315548348  nElectrons: 352.000000  magneticMoment: [ Abs: 3.73032  Tot: -0.00000 ]
LCAOMinimize: Iter:   6  F: -1944.3729161655599000  |grad|_K:  3.293e-02  alpha:  5.846e-03  linmin: -5.707e-02  cgtest:  8.571e-01  t[s]:    324.83
LCAOMinimize: 	Predicted alpha/alphaT>3.000000, increasing alphaT to 1.753815e-02.
	FillingsUpdate:  mu: -0.086205599  nElectrons: 352.000000  magneticMoment: [ Abs: 3.65467  Tot: -0.00000 ]
LCAOMinimize: Iter:   7  F: -1958.5918695069285604  |grad|_K:  8.432e-03  alpha:  2.486e-02  linmin: -9.228e-03  cgtest: -7.207e-02  t[s]:    361.42
LCAOMinimize: 	Wrong curvature in test step, increasing alphaT to 7.458765e-02.
	FillingsUpdate:  mu: -0.069056160  nElectrons: 352.000000  magneticMoment: [ Abs: 3.82825  Tot: +0.00000 ]
LCAOMinimize: Iter:   8  F: -1960.3322121849314499  |grad|_K:  8.076e-03  alpha: -7.243e-01  linmin: -1.427e-01  cgtest:  9.209e-01  t[s]:    387.75
LCAOMinimize: 	Step increased F by 1.719115e+00, reducing alpha to 1.184622e-02.
	FillingsUpdate:  mu: -0.058019456  nElectrons: 352.000000  magneticMoment: [ Abs: 4.07317  Tot: -0.00000 ]
LCAOMinimize: Iter:   9  F: -1961.0906270061450414  |grad|_K:  7.729e-03  alpha:  1.185e-02  linmin: -1.730e-01  cgtest:  9.573e-01  t[s]:    436.87
LCAOMinimize: Encountered beta<0, resetting CG.
LCAOMinimize: 	Wrong curvature in test step, increasing alphaT to 3.553866e-02.
	FillingsUpdate:  mu: -0.057752325  nElectrons: 352.000000  magneticMoment: [ Abs: 4.25531  Tot: +0.00000 ]
LCAOMinimize: Iter:  10  F: -1961.7733972077082854  |grad|_K:  7.617e-03  alpha: -4.443e-01  linmin: -1.859e-01  cgtest:  9.509e-01  t[s]:    462.79
LCAOMinimize: 	Step increased F by 6.180668e+00, reducing alpha to 1.165709e-02.
	FillingsUpdate:  mu: -0.052770218  nElectrons: 352.000000  magneticMoment: [ Abs: 4.40604  Tot: +0.00000 ]
LCAOMinimize: Iter:  11  F: -1962.4599167944593319  |grad|_K:  7.632e-03  alpha:  1.166e-02  linmin: -1.895e-01  cgtest:  9.388e-01  t[s]:    511.90
LCAOMinimize: 	Wrong curvature in test step, increasing alphaT to 3.497126e-02.
	FillingsUpdate:  mu: -0.027610542  nElectrons: 352.000000  magneticMoment: [ Abs: 4.52412  Tot: +0.00000 ]
LCAOMinimize: Iter:  12  F: -1963.1977370083372989  |grad|_K:  8.023e-03  alpha: -8.706e-02  linmin: -1.562e-01  cgtest:  8.892e-01  t[s]:    538.50
LCAOMinimize: 	Step increased F by 6.373117e+01, reducing alpha to 1.407603e-02.
	FillingsUpdate:  mu: +0.134972972  nElectrons: 352.000000  magneticMoment: [ Abs: 4.52994  Tot: +0.00000 ]
LCAOMinimize: Iter:  13  F: -1964.2155154832646531  |grad|_K:  1.002e-02  alpha:  1.408e-02  linmin: -1.018e-02  cgtest:  5.404e-01  t[s]:    588.81
LCAOMinimize: 	Wrong curvature in test step, increasing alphaT to 4.222808e-02.
	FillingsUpdate:  mu: +0.129602922  nElectrons: 352.000000  magneticMoment: [ Abs: 5.71156  Tot: -0.00000 ]
LCAOMinimize: Iter:  14  F: -1966.7823930045558427  |grad|_K:  7.893e-03  alpha: -1.009e-02  linmin: -9.365e-02  cgtest:  9.999e-01  t[s]:    615.43
LCAOMinimize: Encountered beta<0, resetting CG.
LCAOMinimize: 	Step increased F by 2.883768e+01, reducing alpha to 1.434496e-02.
	FillingsUpdate:  mu: +0.034483837  nElectrons: 352.000000  magneticMoment: [ Abs: 6.51932  Tot: +0.00000 ]
LCAOMinimize: Iter:  15  F: -1967.4741913037869381  |grad|_K:  8.374e-03  alpha:  1.434e-02  linmin: -5.141e-03  cgtest:  4.022e-01  t[s]:    665.73
LCAOMinimize: 	Predicted alpha/alphaT>3.000000, increasing alphaT to 4.303487e-02.
LCAOMinimize: 	Step increased F by 1.533773e+01, reducing alpha to 1.032430e-02.
	FillingsUpdate:  mu: +0.020747645  nElectrons: 352.000000  magneticMoment: [ Abs: 6.60387  Tot: -0.00000 ]
LCAOMinimize: Iter:  16  F: -1968.1673414465399219  |grad|_K:  7.382e-03  alpha:  1.032e-02  linmin: -7.445e-02  cgtest:  9.649e-01  t[s]:    723.46
LCAOMinimize: Encountered beta<0, resetting CG.
	FillingsUpdate:  mu: +0.089717171  nElectrons: 352.000000  magneticMoment: [ Abs: 6.25329  Tot: -0.00000 ]
LCAOMinimize: Iter:  17  F: -1968.6008371738498681  |grad|_K:  6.958e-03  alpha:  1.525e-02  linmin: -2.508e-02  cgtest:  4.252e-02  t[s]:    753.35
LCAOMinimize: 	Predicted alpha/alphaT>3.000000, increasing alphaT to 4.575427e-02.
	FillingsUpdate:  mu: +0.108810971  nElectrons: 352.000000  magneticMoment: [ Abs: 8.69167  Tot: -0.00000 ]
LCAOMinimize: Iter:  18  F: -1969.9127576489843250  |grad|_K:  5.863e-03  alpha:  3.722e-02  linmin:  2.261e-02  cgtest: -2.345e-01  t[s]:    790.72
	FillingsUpdate:  mu: +0.118118750  nElectrons: 352.000000  magneticMoment: [ Abs: 8.82132  Tot: +0.00000 ]
LCAOMinimize: Iter:  19  F: -1969.9635663156636838  |grad|_K:  5.435e-03  alpha:  4.382e-03  linmin: -6.659e-03  cgtest:  9.897e-01  t[s]:    819.30
LCAOMinimize: Encountered beta<0, resetting CG.
LCAOMinimize: 	Predicted alpha/alphaT>3.000000, increasing alphaT to 1.314553e-02.
	FillingsUpdate:  mu: +0.036792324  nElectrons: 352.000000  magneticMoment: [ Abs: 8.14325  Tot: +0.00000 ]
LCAOMinimize: Iter:  20  F: -1970.1850336746981611  |grad|_K:  2.705e-03  alpha:  1.570e-02  linmin: -4.798e-03  cgtest:  1.391e-02  t[s]:    855.45
	FillingsUpdate:  mu: -0.011421087  nElectrons: 352.000000  magneticMoment: [ Abs: 8.22150  Tot: +0.00000 ]
LCAOMinimize: Iter:  21  F: -1970.3013265773115563  |grad|_K:  2.086e-03  alpha:  2.922e-02  linmin: -1.540e-02  cgtest:  2.234e-01  t[s]:    883.61
	FillingsUpdate:  mu: +0.032364400  nElectrons: 352.000000  magneticMoment: [ Abs: 8.69813  Tot: +0.00000 ]
LCAOMinimize: Iter:  22  F: -1970.4523199631280477  |grad|_K:  1.294e-03  alpha:  5.470e-02  linmin: -2.472e-02  cgtest:  1.303e-01  t[s]:    911.99
	FillingsUpdate:  mu: +0.024287519  nElectrons: 352.000000  magneticMoment: [ Abs: 9.12874  Tot: -0.00000 ]
LCAOMinimize: Iter:  23  F: -1970.5177100232117482  |grad|_K:  1.678e-03  alpha:  6.501e-02  linmin: -2.198e-04  cgtest: -6.002e-02  t[s]:    940.32
	FillingsUpdate:  mu: +0.024139501  nElectrons: 352.000000  magneticMoment: [ Abs: 9.43243  Tot: -0.00000 ]
LCAOMinimize: Iter:  24  F: -1970.5602523825386925  |grad|_K:  8.521e-04  alpha:  3.227e-02  linmin: -4.218e-05  cgtest:  6.599e-01  t[s]:    968.56
LCAOMinimize: Encountered beta<0, resetting CG.
	FillingsUpdate:  mu: +0.029108690  nElectrons: 352.000000  magneticMoment: [ Abs: 9.56199  Tot: -0.00000 ]
LCAOMinimize: Iter:  25  F: -1970.5788899406397832  |grad|_K:  8.249e-04  alpha:  5.139e-02  linmin: -4.928e-03  cgtest:  9.518e-02  t[s]:    996.81
	FillingsUpdate:  mu: +0.039457501  nElectrons: 352.000000  magneticMoment: [ Abs: 9.97603  Tot: -0.00000 ]
LCAOMinimize: Iter:  26  F: -1970.6001814407738948  |grad|_K:  9.262e-04  alpha:  6.180e-02  linmin:  2.740e-03  cgtest: -2.458e-01  t[s]:   1025.02
	FillingsUpdate:  mu: +0.043014709  nElectrons: 352.000000  magneticMoment: [ Abs: 10.66922  Tot: -0.00000 ]
LCAOMinimize: Iter:  27  F: -1970.6222015711821314  |grad|_K:  1.023e-03  alpha:  6.586e-02  linmin: -5.736e-04  cgtest:  9.610e-01  t[s]:   1053.21
	FillingsUpdate:  mu: +0.028983464  nElectrons: 352.000000  magneticMoment: [ Abs: 10.72734  Tot: +0.00000 ]
LCAOMinimize: Iter:  28  F: -1970.6385111170820892  |grad|_K:  7.961e-04  alpha:  3.703e-02  linmin:  1.535e-03  cgtest: -1.585e-01  t[s]:   1081.39
	FillingsUpdate:  mu: +0.029434224  nElectrons: 352.000000  magneticMoment: [ Abs: 11.19911  Tot: +0.00000 ]
LCAOMinimize: Iter:  29  F: -1970.6602993146350400  |grad|_K:  5.140e-04  alpha:  7.699e-02  linmin:  2.368e-03  cgtest:  1.570e-01  t[s]:   1110.14
	FillingsUpdate:  mu: +0.039789270  nElectrons: 352.000000  magneticMoment: [ Abs: 11.65547  Tot: +0.00000 ]
LCAOMinimize: Iter:  30  F: -1970.6720830046065203  |grad|_K:  6.083e-04  alpha:  9.742e-02  linmin:  3.410e-04  cgtest:  7.828e-02  t[s]:   1138.68
LCAOMinimize: None of the convergence criteria satisfied after 30 iterations.


---- Citations for features of the code used in this run ----

   Software package:
      R. Sundararaman, K. Letchworth-Weaver, K.A. Schwarz, D. Gunceler, Y. Ozhabes and T.A. Arias, 'JDFTx: software for joint density-functional theory', SoftwareX 6, 278 (2017)

   Simplified rotationally-invariant DFT+U:
      S. L. Dudarev et al., Phys. Rev. B 57, 1505 (1998)

   LibXC library of exchange-correlation functions:
      M. A. L. Marques, M. J. T. Oliveira and T. Burnus, Comput. Phys. Commun. 183, 2272 (2012)

   Hammer, Hansen, and Norskov exchange functional:
      B. Hammer, L. B. Hansen, and J. K. Nørskov, Phys. Rev. B 59, 7413 (1999)

   Perdew, Burke & Ernzerhof correlation functional:
      J. P. Perdew, K. Burke, and M. Ernzerhof, Phys. Rev. Lett. 77, 3865 (1996)

   Pseudopotentials:
      M Schlipf and F Gygi, Comput. Phys. Commun. 196, 36 (2015)

   Total energy minimization with Auxiliary Hamiltonian:
      C. Freysoldt, S. Boeck, and J. Neugebauer, Phys. Rev. B 79, 241103(R) (2009)

This list may not be complete. Please suggest additional citations or
report any other bugs at https://github.com/shankar1729/jdftx/issues

Initialization completed successfully at t[s]:   1150.52


-------- Electronic minimization -----------
	FillingsUpdate:  mu: +0.039789275  nElectrons: 352.000000  magneticMoment: [ Abs: 11.65547  Tot: +0.00000 ]
ElecMinimize: Iter:   0  F: -1970.672083004608339  |grad|_K:  1.054e-03  alpha:  1.000e+00
	FillingsUpdate:  mu: +0.472986086  nElectrons: 352.000000  magneticMoment: [ Abs: 11.96102  Tot: -0.00000 ]
	SubspaceRotationAdjust: set factor to 0.997
ElecMinimize: Iter:   1  F: -2024.430286891929200  |grad|_K:  1.287e-03  alpha:  4.814e-01  linmin:  5.398e-02  t[s]:   1254.27
	FillingsUpdate:  mu: +1.250371871  nElectrons: 352.000000  magneticMoment: [ Abs: 15.83923  Tot: -0.00000 ]
	SubspaceRotationAdjust: set factor to 0.589
ElecMinimize: Iter:   2  F: -2027.848557771894775  |grad|_K:  1.989e-03  alpha:  8.378e-02  linmin:  5.551e-03  t[s]:   1326.40
	FillingsUpdate:  mu: +0.299396479  nElectrons: 352.000000  magneticMoment: [ Abs: 16.17473  Tot: +0.00000 ]
	SubspaceRotationAdjust: set factor to 0.783
ElecMinimize: Iter:   3  F: -2037.963108703050239  |grad|_K:  7.943e-04  alpha:  3.681e-02  linmin:  6.854e-04  t[s]:   1398.48
ElecMinimize: 	Predicted alpha/alphaT>3.000000, increasing alphaT to 1.104244e-01.
	FillingsUpdate:  mu: +0.841261451  nElectrons: 352.000000  magneticMoment: [ Abs: 15.11198  Tot: +0.00000 ]
	SubspaceRotationAdjust: set factor to 0.481
ElecMinimize: Iter:   4  F: -2049.938568642458449  |grad|_K:  1.172e-03  alpha:  1.187e-01  linmin:  2.681e-04  t[s]:   1489.81
	FillingsUpdate:  mu: +0.610521984  nElectrons: 352.000000  magneticMoment: [ Abs: 15.64460  Tot: -0.00000 ]
	SubspaceRotationAdjust: set factor to 0.377
ElecMinimize: Iter:   5  F: -2054.405445002365923  |grad|_K:  7.641e-04  alpha:  1.196e-02  linmin: -3.574e-03  t[s]:   1560.94
	FillingsUpdate:  mu: +0.421463635  nElectrons: 352.000000  magneticMoment: [ Abs: 16.98591  Tot: +0.00000 ]
	SubspaceRotationAdjust: set factor to 0.281
ElecMinimize: Iter:   6  F: -2059.982406708205417  |grad|_K:  6.542e-04  alpha:  3.397e-02  linmin: -4.684e-04  t[s]:   1631.96
	FillingsUpdate:  mu: +0.233280103  nElectrons: 352.000000  magneticMoment: [ Abs: 17.85592  Tot: +0.00000 ]
	SubspaceRotationAdjust: set factor to 0.204
ElecMinimize: Iter:   7  F: -2062.948055769102666  |grad|_K:  6.495e-04  alpha:  4.057e-02  linmin:  1.833e-03  t[s]:   1703.16
	FillingsUpdate:  mu: +0.175050897  nElectrons: 352.000000  magneticMoment: [ Abs: 18.21845  Tot: +0.00000 ]
	SubspaceRotationAdjust: set factor to 0.17
ElecMinimize: Iter:   8  F: -2063.479692855924895  |grad|_K:  5.562e-04  alpha:  9.883e-03  linmin: -5.214e-04  t[s]:   1773.99
	FillingsUpdate:  mu: +0.156492798  nElectrons: 352.000000  magneticMoment: [ Abs: 19.35458  Tot: +0.00000 ]
	SubspaceRotationAdjust: set factor to 0.171
ElecMinimize: Iter:   9  F: -2064.629363509559425  |grad|_K:  4.380e-04  alpha:  2.163e-02  linmin:  1.023e-03  t[s]:   1844.96
	FillingsUpdate:  mu: +0.305737914  nElectrons: 352.000000  magneticMoment: [ Abs: 19.77981  Tot: +0.00000 ]
	SubspaceRotationAdjust: set factor to 0.16
ElecMinimize: Iter:  10  F: -2065.019741375113881  |grad|_K:  4.139e-04  alpha:  1.548e-02  linmin: -1.287e-05  t[s]:   1915.90
	FillingsUpdate:  mu: +0.403640397  nElectrons: 352.000000  magneticMoment: [ Abs: 20.03431  Tot: +0.00000 ]
	SubspaceRotationAdjust: set factor to 0.132
	SubspaceRotationAdjust: resetting CG because factor has changed by 0.131985
ElecMinimize: 	State modified externally: resetting search direction.
ElecMinimize: Iter:  11  F: -2065.585397860184912  |grad|_K:  3.625e-04  alpha:  1.875e-02
ElecMinimize: 	Predicted alpha/alphaT>3.000000, increasing alphaT to 5.625554e-02.
ElecMinimize: 	Predicted alpha/alphaT>3.000000, increasing alphaT to 1.687666e-01.
	FillingsUpdate:  mu: +0.278100284  nElectrons: 352.000000  magneticMoment: [ Abs: 19.59915  Tot: -0.00000 ]
	SubspaceRotationAdjust: set factor to 0.0919
ElecMinimize: Iter:  12  F: -2070.177372844484125  |grad|_K:  2.006e-04  alpha:  2.043e-01  linmin:  8.532e-03  t[s]:   2129.35
	FillingsUpdate:  mu: +0.134496887  nElectrons: 352.000000  magneticMoment: [ Abs: 19.14356  Tot: -0.00000 ]
	SubspaceRotationAdjust: set factor to 0.0617
ElecMinimize: Iter:  13  F: -2071.073067807442385  |grad|_K:  1.017e-04  alpha:  1.493e-01  linmin: -5.572e-04  t[s]:   2200.69
	FillingsUpdate:  mu: +0.142231552  nElectrons: 352.000000  magneticMoment: [ Abs: 19.21415  Tot: -0.00000 ]
	SubspaceRotationAdjust: set factor to 0.0676
ElecMinimize: Iter:  14  F: -2071.682106834492970  |grad|_K:  7.124e-05  alpha:  3.324e-01  linmin:  8.581e-05  t[s]:   2271.72
	FillingsUpdate:  mu: +0.124418981  nElectrons: 352.000000  magneticMoment: [ Abs: 19.29236  Tot: +0.00000 ]
	SubspaceRotationAdjust: set factor to 0.0751
ElecMinimize: Iter:  15  F: -2072.042131277522458  |grad|_K:  5.936e-05  alpha:  4.117e-01  linmin:  1.493e-04  t[s]:   2342.72
	FillingsUpdate:  mu: +0.078387038  nElectrons: 352.000000  magneticMoment: [ Abs: 19.32579  Tot: +0.00000 ]
	SubspaceRotationAdjust: set factor to 0.0699
ElecMinimize: Iter:  16  F: -2072.244380741789882  |grad|_K:  5.381e-05  alpha:  3.391e-01  linmin: -9.595e-05  t[s]:   2413.69
	FillingsUpdate:  mu: +0.115201101  nElectrons: 352.000000  magneticMoment: [ Abs: 19.77127  Tot: +0.00000 ]
	SubspaceRotationAdjust: set factor to 0.0585
ElecMinimize: Iter:  17  F: -2072.395002893556466  |grad|_K:  4.605e-05  alpha:  2.873e-01  linmin:  8.513e-05  t[s]:   2485.53
	FillingsUpdate:  mu: +0.114645225  nElectrons: 352.000000  magneticMoment: [ Abs: 20.39642  Tot: +0.00000 ]
	SubspaceRotationAdjust: set factor to 0.064
ElecMinimize: Iter:  18  F: -2072.559585548233372  |grad|_K:  4.621e-05  alpha:  4.502e-01  linmin: -9.904e-05  t[s]:   2556.83
	FillingsUpdate:  mu: +0.112061537  nElectrons: 352.000000  magneticMoment: [ Abs: 21.25687  Tot: +0.00000 ]
	SubspaceRotationAdjust: set factor to 0.0735
ElecMinimize: Iter:  19  F: -2072.727121208075914  |grad|_K:  4.442e-05  alpha:  4.292e-01  linmin: -1.024e-04  t[s]:   2627.90
	FillingsUpdate:  mu: +0.119476387  nElectrons: 352.000000  magneticMoment: [ Abs: 22.32991  Tot: +0.00000 ]
	SubspaceRotationAdjust: set factor to 0.0841
ElecMinimize: Iter:  20  F: -2072.885256638405735  |grad|_K:  4.441e-05  alpha:  4.346e-01  linmin: -1.308e-04  t[s]:   2699.16
	FillingsUpdate:  mu: +0.147023978  nElectrons: 352.000000  magneticMoment: [ Abs: 23.67538  Tot: -0.00000 ]
	SubspaceRotationAdjust: set factor to 0.0819
ElecMinimize: Iter:  21  F: -2073.050571044665048  |grad|_K:  5.894e-05  alpha:  4.450e-01  linmin:  6.886e-05  t[s]:   2770.81
	FillingsUpdate:  mu: +0.142020569  nElectrons: 352.000000  magneticMoment: [ Abs: 25.01553  Tot: +0.00000 ]
	SubspaceRotationAdjust: set factor to 0.0967
ElecMinimize: Iter:  22  F: -2073.230804391165748  |grad|_K:  6.011e-05  alpha:  3.202e-01  linmin: -6.609e-05  t[s]:   2841.67
	FillingsUpdate:  mu: +0.118821727  nElectrons: 352.000000  magneticMoment: [ Abs: 25.68511  Tot: +0.00000 ]
	SubspaceRotationAdjust: set factor to 0.102
ElecMinimize: Iter:  23  F: -2073.407806839345994  |grad|_K:  5.837e-05  alpha:  2.413e-01  linmin: -1.581e-05  t[s]:   2912.57
ElecMinimize: 	Step increased F by 7.199029e-04, reducing alpha to 3.454962e-04.
ElecMinimize: 	Step increased F by 4.552259e-03, reducing alpha to 3.454962e-05.
ElecMinimize: 	Step increased F by 4.938823e-03, reducing alpha to 3.454962e-06.
ElecMinimize: 	Step failed to reduce F after 3 attempts. Quitting step.
ElecMinimize: 	Undoing step.
ElecMinimize: 	Step failed: resetting search direction.
	FillingsUpdate:  mu: +0.117999020  nElectrons: 352.000000  magneticMoment: [ Abs: 25.68294  Tot: -0.00000 ]
	SubspaceRotationAdjust: set factor to 0.131
ElecMinimize: Iter:  24  F: -2073.402863717756645  |grad|_K:  5.878e-05  alpha:  3.455e-06
	FillingsUpdate:  mu: +0.139567652  nElectrons: 352.000000  magneticMoment: [ Abs: 25.83630  Tot: +0.00000 ]
	SubspaceRotationAdjust: set factor to 0.118
ElecMinimize: Iter:  25  F: -2073.568026209876280  |grad|_K:  4.024e-05  alpha:  2.703e-01  linmin: -7.749e-03  t[s]:   3191.59
	FillingsUpdate:  mu: +0.132044470  nElectrons: 352.000000  magneticMoment: [ Abs: 25.86348  Tot: -0.00000 ]
	SubspaceRotationAdjust: set factor to 0.11
ElecMinimize: Iter:  26  F: -2073.668794065312341  |grad|_K:  3.445e-05  alpha:  3.280e-01  linmin: -3.804e-03  t[s]:   3262.88
	FillingsUpdate:  mu: +0.123502084  nElectrons: 352.000000  magneticMoment: [ Abs: 26.18155  Tot: +0.00000 ]
	SubspaceRotationAdjust: set factor to 0.0776
ElecMinimize: Iter:  27  F: -2073.722319907094970  |grad|_K:  3.593e-05  alpha:  2.315e-01  linmin:  1.355e-04  t[s]:   3333.90
	FillingsUpdate:  mu: +0.130183164  nElectrons: 352.000000  magneticMoment: [ Abs: 26.70072  Tot: +0.00000 ]
	SubspaceRotationAdjust: set factor to 0.0862
ElecMinimize: Iter:  28  F: -2073.769058198537550  |grad|_K:  2.604e-05  alpha:  2.075e-01  linmin:  1.701e-04  t[s]:   3404.34
	FillingsUpdate:  mu: +0.129056008  nElectrons: 352.000000  magneticMoment: [ Abs: 27.21295  Tot: +0.00000 ]
	SubspaceRotationAdjust: set factor to 0.0708
ElecMinimize: Iter:  29  F: -2073.809016567516665  |grad|_K:  2.532e-05  alpha:  3.338e-01  linmin: -8.045e-04  t[s]:   3474.87
	FillingsUpdate:  mu: +0.111240374  nElectrons: 352.000000  magneticMoment: [ Abs: 27.51475  Tot: -0.00000 ]
	SubspaceRotationAdjust: set factor to 0.0543
ElecMinimize: Iter:  30  F: -2073.829707255784797  |grad|_K:  1.925e-05  alpha:  1.713e-01  linmin: -2.055e-04  t[s]:   3545.73
	FillingsUpdate:  mu: +0.105095482  nElectrons: 352.000000  magneticMoment: [ Abs: 28.12682  Tot: +0.00000 ]
	SubspaceRotationAdjust: set factor to 0.0729
ElecMinimize: Iter:  31  F: -2073.854903199492128  |grad|_K:  1.976e-05  alpha:  3.863e-01  linmin:  1.394e-04  t[s]:   3616.54
	FillingsUpdate:  mu: +0.108454938  nElectrons: 352.000000  magneticMoment: [ Abs: 28.72296  Tot: -0.00000 ]
	SubspaceRotationAdjust: set factor to 0.0722
ElecMinimize: Iter:  32  F: -2073.873199127435782  |grad|_K:  1.723e-05  alpha:  2.816e-01  linmin: -1.950e-04  t[s]:   3686.91
	FillingsUpdate:  mu: +0.105625751  nElectrons: 352.000000  magneticMoment: [ Abs: 29.48014  Tot: +0.00000 ]
	SubspaceRotationAdjust: set factor to 0.0783
ElecMinimize: Iter:  33  F: -2073.891850582498137  |grad|_K:  1.718e-05  alpha:  3.582e-01  linmin:  4.383e-04  t[s]:   3758.08
	FillingsUpdate:  mu: +0.107407980  nElectrons: 352.000000  magneticMoment: [ Abs: 30.21843  Tot: -0.00000 ]
	SubspaceRotationAdjust: set factor to 0.098
ElecMinimize: Iter:  34  F: -2073.907097224909649  |grad|_K:  1.660e-05  alpha:  3.068e-01  linmin:  1.346e-04  t[s]:   3829.36
	FillingsUpdate:  mu: +0.106781606  nElectrons: 352.000000  magneticMoment: [ Abs: 30.82382  Tot: +0.00000 ]
	SubspaceRotationAdjust: set factor to 0.116
ElecMinimize: Iter:  35  F: -2073.920671068921820  |grad|_K:  1.642e-05  alpha:  2.872e-01  linmin: -3.356e-04  t[s]:   3900.51
	FillingsUpdate:  mu: +0.106405888  nElectrons: 352.000000  magneticMoment: [ Abs: 31.47160  Tot: -0.00000 ]
	SubspaceRotationAdjust: set factor to 0.138
ElecMinimize: Iter:  36  F: -2073.938156292902477  |grad|_K:  1.767e-05  alpha:  3.552e-01  linmin: -1.355e-04  t[s]:   3971.77
	FillingsUpdate:  mu: +0.106076804  nElectrons: 352.000000  magneticMoment: [ Abs: 32.04210  Tot: +0.00000 ]
	SubspaceRotationAdjust: set factor to 0.153
ElecMinimize: Iter:  37  F: -2073.955315642649566  |grad|_K:  1.778e-05  alpha:  3.089e-01  linmin: -5.557e-05  t[s]:   4042.72
	FillingsUpdate:  mu: +0.108964263  nElectrons: 352.000000  magneticMoment: [ Abs: 32.48592  Tot: +0.00000 ]
	SubspaceRotationAdjust: set factor to 0.164
ElecMinimize: Iter:  38  F: -2073.970666308926866  |grad|_K:  1.702e-05  alpha:  2.736e-01  linmin:  1.029e-04  t[s]:   4114.05
	FillingsUpdate:  mu: +0.108382746  nElectrons: 352.000000  magneticMoment: [ Abs: 32.87961  Tot: -0.00000 ]
	SubspaceRotationAdjust: set factor to 0.203
ElecMinimize: Iter:  39  F: -2073.982088164010293  |grad|_K:  1.466e-05  alpha:  2.292e-01  linmin: -5.876e-06  t[s]:   4184.80
	FillingsUpdate:  mu: +0.106625504  nElectrons: 352.000000  magneticMoment: [ Abs: 33.22256  Tot: +0.00000 ]
	SubspaceRotationAdjust: set factor to 0.239
ElecMinimize: Iter:  40  F: -2073.991136844959328  |grad|_K:  1.392e-05  alpha:  2.403e-01  linmin: -7.059e-05  t[s]:   4256.35
	FillingsUpdate:  mu: +0.103563668  nElectrons: 352.000000  magneticMoment: [ Abs: 33.50744  Tot: -0.00000 ]
	SubspaceRotationAdjust: set factor to 0.268
ElecMinimize: Iter:  41  F: -2073.998280181750943  |grad|_K:  1.339e-05  alpha:  2.096e-01  linmin: -7.463e-05  t[s]:   4327.90
	FillingsUpdate:  mu: +0.104093738  nElectrons: 352.000000  magneticMoment: [ Abs: 33.85583  Tot: -0.00000 ]
	SubspaceRotationAdjust: set factor to 0.345
ElecMinimize: Iter:  42  F: -2074.005303695927068  |grad|_K:  1.197e-05  alpha:  2.212e-01  linmin: -3.158e-04  t[s]:   4398.59
	FillingsUpdate:  mu: +0.111688773  nElectrons: 352.000000  magneticMoment: [ Abs: 34.24620  Tot: -0.00000 ]
	SubspaceRotationAdjust: set factor to 0.39
ElecMinimize: Iter:  43  F: -2074.011635072301942  |grad|_K:  1.305e-05  alpha:  2.479e-01  linmin:  8.708e-04  t[s]:   4469.27
	FillingsUpdate:  mu: +0.116388438  nElectrons: 352.000000  magneticMoment: [ Abs: 34.60995  Tot: +0.00000 ]
	SubspaceRotationAdjust: set factor to 0.37
ElecMinimize: Iter:  44  F: -2074.016438004990505  |grad|_K:  1.510e-05  alpha:  1.715e-01  linmin: -5.279e-05  t[s]:   4539.76
	FillingsUpdate:  mu: +0.111713986  nElectrons: 352.000000  magneticMoment: [ Abs: 34.94399  Tot: +0.00000 ]
	SubspaceRotationAdjust: set factor to 0.422
ElecMinimize: Iter:  45  F: -2074.021671076544862  |grad|_K:  1.402e-05  alpha:  1.309e-01  linmin: -1.065e-04  t[s]:   4610.92
	FillingsUpdate:  mu: +0.106819959  nElectrons: 352.000000  magneticMoment: [ Abs: 35.36542  Tot: -0.00000 ]
	SubspaceRotationAdjust: set factor to 0.527
ElecMinimize: Iter:  46  F: -2074.027155674780715  |grad|_K:  1.366e-05  alpha:  1.570e-01  linmin: -1.053e-04  t[s]:   4681.29
	FillingsUpdate:  mu: +0.111426142  nElectrons: 352.000000  magneticMoment: [ Abs: 35.86728  Tot: +0.00000 ]
	SubspaceRotationAdjust: set factor to 0.59
ElecMinimize: Iter:  47  F: -2074.032574128617398  |grad|_K:  1.470e-05  alpha:  1.633e-01  linmin: -1.621e-04  t[s]:   4752.71
	FillingsUpdate:  mu: +0.110385572  nElectrons: 352.000000  magneticMoment: [ Abs: 36.05864  Tot: -0.00000 ]
	SubspaceRotationAdjust: set factor to 0.563
ElecMinimize: Iter:  48  F: -2074.036119913966559  |grad|_K:  1.501e-05  alpha:  8.229e-02  linmin: -3.513e-04  t[s]:   4823.88
	FillingsUpdate:  mu: +0.113116962  nElectrons: 352.000000  magneticMoment: [ Abs: 36.38305  Tot: +0.00000 ]
	SubspaceRotationAdjust: set factor to 0.604
ElecMinimize: Iter:  49  F: -2074.040817616395998  |grad|_K:  1.433e-05  alpha:  1.101e-01  linmin: -3.032e-04  t[s]:   4895.60
	FillingsUpdate:  mu: +0.111672695  nElectrons: 352.000000  magneticMoment: [ Abs: 36.72973  Tot: +0.00000 ]
	SubspaceRotationAdjust: set factor to 0.538
ElecMinimize: Iter:  50  F: -2074.044552001804732  |grad|_K:  1.592e-05  alpha:  9.884e-02  linmin: -1.374e-04  t[s]:   4968.39
	FillingsUpdate:  mu: +0.106107018  nElectrons: 352.000000  magneticMoment: [ Abs: 36.88281  Tot: +0.00000 ]
	SubspaceRotationAdjust: set factor to 0.548
ElecMinimize: Iter:  51  F: -2074.047735525176449  |grad|_K:  1.423e-05  alpha:  6.222e-02  linmin: -1.397e-04  t[s]:   5039.53
	FillingsUpdate:  mu: +0.106077602  nElectrons: 352.000000  magneticMoment: [ Abs: 37.07348  Tot: -0.00000 ]
	SubspaceRotationAdjust: set factor to 0.367
ElecMinimize: Iter:  52  F: -2074.050905904652154  |grad|_K:  1.947e-05  alpha:  9.047e-02  linmin:  5.600e-04  t[s]:   5109.98
	FillingsUpdate:  mu: +0.104288465  nElectrons: 352.000000  magneticMoment: [ Abs: 37.22962  Tot: +0.00000 ]
	SubspaceRotationAdjust: set factor to 0.326
ElecMinimize: Iter:  53  F: -2074.053053188112244  |grad|_K:  1.549e-05  alpha:  3.286e-02  linmin: -5.461e-04  t[s]:   5181.07
	FillingsUpdate:  mu: +0.104808054  nElectrons: 352.000000  magneticMoment: [ Abs: 37.40090  Tot: +0.00000 ]
	SubspaceRotationAdjust: set factor to 0.416
ElecMinimize: Iter:  54  F: -2074.055684928121991  |grad|_K:  1.289e-05  alpha:  5.349e-02  linmin: -6.837e-04  t[s]:   5252.30
	FillingsUpdate:  mu: +0.107655270  nElectrons: 352.000000  magneticMoment: [ Abs: 37.56453  Tot: +0.00000 ]
	SubspaceRotationAdjust: set factor to 0.368
ElecMinimize: Iter:  55  F: -2074.059327955930257  |grad|_K:  1.302e-05  alpha:  1.038e-01  linmin: -8.463e-04  t[s]:   5323.27
	FillingsUpdate:  mu: +0.107792008  nElectrons: 352.000000  magneticMoment: [ Abs: 37.64102  Tot: -0.00000 ]
	SubspaceRotationAdjust: set factor to 0.393
ElecMinimize: Iter:  56  F: -2074.062191561180953  |grad|_K:  1.163e-05  alpha:  8.522e-02  linmin:  6.395e-06  t[s]:   5395.26
	FillingsUpdate:  mu: +0.114102058  nElectrons: 352.000000  magneticMoment: [ Abs: 37.75252  Tot: -0.00000 ]
	SubspaceRotationAdjust: set factor to 0.422
ElecMinimize: Iter:  57  F: -2074.064751952366350  |grad|_K:  1.215e-05  alpha:  1.071e-01  linmin: -2.408e-04  t[s]:   5467.37
	FillingsUpdate:  mu: +0.115356953  nElectrons: 352.000000  magneticMoment: [ Abs: 37.87065  Tot: +0.00000 ]
	SubspaceRotationAdjust: set factor to 0.525
ElecMinimize: Iter:  58  F: -2074.067425273789013  |grad|_K:  1.050e-05  alpha:  1.007e-01  linmin: -3.651e-04  t[s]:   5538.98
	FillingsUpdate:  mu: +0.112375590  nElectrons: 352.000000  magneticMoment: [ Abs: 37.93201  Tot: -0.00000 ]
	SubspaceRotationAdjust: set factor to 0.568
ElecMinimize: Iter:  59  F: -2074.070434770605061  |grad|_K:  1.083e-05  alpha:  1.481e-01  linmin: -4.764e-05  t[s]:   5609.80
	FillingsUpdate:  mu: +0.108688097  nElectrons: 352.000000  magneticMoment: [ Abs: 37.95648  Tot: +0.00000 ]
	SubspaceRotationAdjust: set factor to 0.552
ElecMinimize: Iter:  60  F: -2074.072495892116876  |grad|_K:  1.154e-05  alpha:  9.427e-02  linmin: -1.686e-04  t[s]:   5680.64
	FillingsUpdate:  mu: +0.104573376  nElectrons: 352.000000  magneticMoment: [ Abs: 38.03537  Tot: -0.00000 ]
	SubspaceRotationAdjust: set factor to 0.42
ElecMinimize: Iter:  61  F: -2074.074929060610884  |grad|_K:  1.415e-05  alpha:  1.033e-01  linmin:  5.353e-04  t[s]:   5751.63
	FillingsUpdate:  mu: +0.103618856  nElectrons: 352.000000  magneticMoment: [ Abs: 38.10424  Tot: -0.00000 ]
	SubspaceRotationAdjust: set factor to 0.437
ElecMinimize: Iter:  62  F: -2074.076787604744823  |grad|_K:  1.267e-05  alpha:  6.087e-02  linmin: -2.311e-06  t[s]:   5822.48
	FillingsUpdate:  mu: +0.107783964  nElectrons: 352.000000  magneticMoment: [ Abs: 38.13981  Tot: -0.00000 ]
	SubspaceRotationAdjust: set factor to 0.566
ElecMinimize: Iter:  63  F: -2074.079012758228146  |grad|_K:  1.121e-05  alpha:  7.762e-02  linmin: -2.700e-04  t[s]:   5892.95
	FillingsUpdate:  mu: +0.112415666  nElectrons: 352.000000  magneticMoment: [ Abs: 38.17196  Tot: -0.00000 ]
	SubspaceRotationAdjust: set factor to 0.579
ElecMinimize: Iter:  64  F: -2074.081421100869193  |grad|_K:  1.191e-05  alpha:  1.034e-01  linmin:  7.872e-05  t[s]:   5963.36
	FillingsUpdate:  mu: +0.114362429  nElectrons: 352.000000  magneticMoment: [ Abs: 38.22419  Tot: +0.00000 ]
	SubspaceRotationAdjust: set factor to 0.51
ElecMinimize: Iter:  65  F: -2074.083441938133092  |grad|_K:  1.283e-05  alpha:  8.084e-02  linmin:  7.765e-05  t[s]:   6033.95
	FillingsUpdate:  mu: +0.110554225  nElectrons: 352.000000  magneticMoment: [ Abs: 38.25547  Tot: +0.00000 ]
	SubspaceRotationAdjust: set factor to 0.499
ElecMinimize: Iter:  66  F: -2074.085196889540384  |grad|_K:  1.274e-05  alpha:  6.123e-02  linmin:  1.026e-05  t[s]:   6104.51
	FillingsUpdate:  mu: +0.106067660  nElectrons: 352.000000  magneticMoment: [ Abs: 38.26652  Tot: -0.00000 ]
	SubspaceRotationAdjust: set factor to 0.512
ElecMinimize: Iter:  67  F: -2074.086973367966948  |grad|_K:  1.288e-05  alpha:  6.267e-02  linmin: -7.911e-05  t[s]:   6175.53
	FillingsUpdate:  mu: +0.104621185  nElectrons: 352.000000  magneticMoment: [ Abs: 38.26635  Tot: +0.00000 ]
	SubspaceRotationAdjust: set factor to 0.522
ElecMinimize: Iter:  68  F: -2074.088975226130060  |grad|_K:  1.286e-05  alpha:  6.744e-02  linmin: -5.273e-05  t[s]:   6246.47
	FillingsUpdate:  mu: +0.103148093  nElectrons: 352.000000  magneticMoment: [ Abs: 38.27294  Tot: +0.00000 ]
	SubspaceRotationAdjust: set factor to 0.533
ElecMinimize: Iter:  69  F: -2074.090875392442740  |grad|_K:  1.276e-05  alpha:  6.481e-02  linmin:  7.057e-06  t[s]:   6316.67
	FillingsUpdate:  mu: +0.102069145  nElectrons: 352.000000  magneticMoment: [ Abs: 38.29868  Tot: -0.00000 ]
	SubspaceRotationAdjust: set factor to 0.572
ElecMinimize: Iter:  70  F: -2074.092650942553973  |grad|_K:  1.255e-05  alpha:  6.252e-02  linmin: -3.600e-05  t[s]:   6387.30
	FillingsUpdate:  mu: +0.103614199  nElectrons: 352.000000  magneticMoment: [ Abs: 38.33133  Tot: +0.00000 ]
	SubspaceRotationAdjust: set factor to 0.608
ElecMinimize: Iter:  71  F: -2074.094420356317187  |grad|_K:  1.244e-05  alpha:  6.370e-02  linmin:  2.206e-05  t[s]:   6458.13
	FillingsUpdate:  mu: +0.107706283  nElectrons: 352.000000  magneticMoment: [ Abs: 38.34975  Tot: -0.00000 ]
	SubspaceRotationAdjust: set factor to 0.556
ElecMinimize: Iter:  72  F: -2074.095910714884212  |grad|_K:  1.303e-05  alpha:  5.446e-02  linmin:  1.173e-04  t[s]:   6529.18
	FillingsUpdate:  mu: +0.110466448  nElectrons: 352.000000  magneticMoment: [ Abs: 38.36308  Tot: -0.00000 ]
	SubspaceRotationAdjust: set factor to 0.455
ElecMinimize: Iter:  73  F: -2074.097149275688025  |grad|_K:  1.376e-05  alpha:  4.189e-02  linmin:  3.678e-05  t[s]:   6600.53
	FillingsUpdate:  mu: +0.110525167  nElectrons: 352.000000  magneticMoment: [ Abs: 38.37367  Tot: +0.00000 ]
	SubspaceRotationAdjust: set factor to 0.368
ElecMinimize: Iter:  74  F: -2074.098408520424528  |grad|_K:  1.389e-05  alpha:  3.816e-02  linmin:  7.859e-05  t[s]:   6671.36
	FillingsUpdate:  mu: +0.110052727  nElectrons: 352.000000  magneticMoment: [ Abs: 38.37763  Tot: +0.00000 ]
	SubspaceRotationAdjust: set factor to 0.309
ElecMinimize: Iter:  75  F: -2074.099599448664321  |grad|_K:  1.349e-05  alpha:  3.576e-02  linmin:  9.075e-05  t[s]:   6743.04
	FillingsUpdate:  mu: +0.110031834  nElectrons: 352.000000  magneticMoment: [ Abs: 38.37814  Tot: -0.00000 ]
	SubspaceRotationAdjust: set factor to 0.269
ElecMinimize: Iter:  76  F: -2074.100695945645839  |grad|_K:  1.302e-05  alpha:  3.503e-02  linmin:  5.356e-05  t[s]:   6814.11
	FillingsUpdate:  mu: +0.108690836  nElectrons: 352.000000  magneticMoment: [ Abs: 38.37980  Tot: -0.00000 ]
	SubspaceRotationAdjust: set factor to 0.239
ElecMinimize: Iter:  77  F: -2074.101781561190364  |grad|_K:  1.250e-05  alpha:  3.695e-02  linmin: -4.795e-05  t[s]:   6885.58
	FillingsUpdate:  mu: +0.106979343  nElectrons: 352.000000  magneticMoment: [ Abs: 38.38543  Tot: -0.00000 ]
	SubspaceRotationAdjust: set factor to 0.22
ElecMinimize: Iter:  78  F: -2074.102962204810865  |grad|_K:  1.176e-05  alpha:  4.257e-02  linmin: -1.886e-04  t[s]:   6958.37
	FillingsUpdate:  mu: +0.104135104  nElectrons: 352.000000  magneticMoment: [ Abs: 38.39608  Tot: +0.00000 ]
	SubspaceRotationAdjust: set factor to 0.226
ElecMinimize: Iter:  79  F: -2074.104305520239905  |grad|_K:  1.084e-05  alpha:  5.304e-02  linmin: -3.179e-04  t[s]:   7032.88
	FillingsUpdate:  mu: +0.101816679  nElectrons: 352.000000  magneticMoment: [ Abs: 38.40959  Tot: +0.00000 ]
	SubspaceRotationAdjust: set factor to 0.286
ElecMinimize: Iter:  80  F: -2074.105826518522008  |grad|_K:  1.007e-05  alpha:  6.892e-02  linmin: -3.449e-04  t[s]:   7103.95
	FillingsUpdate:  mu: +0.102939196  nElectrons: 352.000000  magneticMoment: [ Abs: 38.41920  Tot: +0.00000 ]
	SubspaceRotationAdjust: set factor to 0.382
ElecMinimize: Iter:  81  F: -2074.107428812659691  |grad|_K:  9.606e-06  alpha:  8.434e-02  linmin: -1.940e-04  t[s]:   7175.03
	FillingsUpdate:  mu: +0.104534384  nElectrons: 352.000000  magneticMoment: [ Abs: 38.42185  Tot: +0.00000 ]
	SubspaceRotationAdjust: set factor to 0.479
ElecMinimize: Iter:  82  F: -2074.108851348625649  |grad|_K:  9.621e-06  alpha:  8.509e-02  linmin: -9.356e-06  t[s]:   7246.29
	FillingsUpdate:  mu: +0.105098210  nElectrons: 352.000000  magneticMoment: [ Abs: 38.43079  Tot: -0.00000 ]
	SubspaceRotationAdjust: set factor to 0.525
ElecMinimize: Iter:  83  F: -2074.110187687054349  |grad|_K:  1.045e-05  alpha:  8.239e-02  linmin:  8.359e-06  t[s]:   7317.48
	FillingsUpdate:  mu: +0.103666161  nElectrons: 352.000000  magneticMoment: [ Abs: 38.45791  Tot: +0.00000 ]
	SubspaceRotationAdjust: set factor to 0.724
ElecMinimize: Iter:  84  F: -2074.111523372377633  |grad|_K:  1.011e-05  alpha:  7.029e-02  linmin: -3.086e-05  t[s]:   7388.40
	FillingsUpdate:  mu: +0.101235523  nElectrons: 352.000000  magneticMoment: [ Abs: 38.49547  Tot: +0.00000 ]
	SubspaceRotationAdjust: set factor to 0.888
ElecMinimize: Iter:  85  F: -2074.112763227039522  |grad|_K:  9.891e-06  alpha:  6.902e-02  linmin: -1.173e-04  t[s]:   7461.74
	FillingsUpdate:  mu: +0.100167019  nElectrons: 352.000000  magneticMoment: [ Abs: 38.53436  Tot: -0.00000 ]
	SubspaceRotationAdjust: set factor to 1.12
	SubspaceRotationAdjust: resetting CG because factor has changed by 8.47144
ElecMinimize: 	State modified externally: resetting search direction.
ElecMinimize: Iter:  86  F: -2074.114186835463443  |grad|_K:  1.069e-05  alpha:  8.051e-02
	FillingsUpdate:  mu: +0.106595672  nElectrons: 352.000000  magneticMoment: [ Abs: 38.51788  Tot: -0.00000 ]
	SubspaceRotationAdjust: set factor to 0.629
ElecMinimize: Iter:  87  F: -2074.116831010119768  |grad|_K:  1.807e-05  alpha:  1.498e-01  linmin:  5.000e-03  t[s]:   7638.00
	FillingsUpdate:  mu: +0.106632344  nElectrons: 352.000000  magneticMoment: [ Abs: 38.58670  Tot: -0.00000 ]
	SubspaceRotationAdjust: set factor to 0.452
ElecMinimize: Iter:  88  F: -2074.120077228720220  |grad|_K:  1.355e-05  alpha:  7.757e-02  linmin:  3.520e-05  t[s]:   7710.14
	FillingsUpdate:  mu: +0.103229389  nElectrons: 352.000000  magneticMoment: [ Abs: 38.59274  Tot: -0.00000 ]
	SubspaceRotationAdjust: set factor to 0.467
ElecMinimize: Iter:  89  F: -2074.122860252578448  |grad|_K:  7.952e-06  alpha:  8.606e-02  linmin: -6.370e-04  t[s]:   7780.71
	FillingsUpdate:  mu: +0.103509072  nElectrons: 352.000000  magneticMoment: [ Abs: 38.60238  Tot: +0.00000 ]
	SubspaceRotationAdjust: set factor to 0.305
ElecMinimize: Iter:  90  F: -2074.124744819161606  |grad|_K:  8.463e-06  alpha:  1.641e-01  linmin:  9.342e-04  t[s]:   7852.03
	FillingsUpdate:  mu: +0.102595824  nElectrons: 352.000000  magneticMoment: [ Abs: 38.67440  Tot: +0.00000 ]
	SubspaceRotationAdjust: set factor to 0.511
ElecMinimize: Iter:  91  F: -2074.125972164945779  |grad|_K:  5.439e-06  alpha:  1.048e-01  linmin: -3.177e-05  t[s]:   7923.30
	FillingsUpdate:  mu: +0.106801208  nElectrons: 352.000000  magneticMoment: [ Abs: 38.72131  Tot: +0.00000 ]
	SubspaceRotationAdjust: set factor to 0.397
ElecMinimize: Iter:  92  F: -2074.126777154501724  |grad|_K:  5.703e-06  alpha:  1.561e-01  linmin:  2.781e-04  t[s]:   7994.65
	FillingsUpdate:  mu: +0.104324787  nElectrons: 352.000000  magneticMoment: [ Abs: 38.70458  Tot: +0.00000 ]
	SubspaceRotationAdjust: set factor to 0.405
ElecMinimize: Iter:  93  F: -2074.127375407424552  |grad|_K:  4.140e-06  alpha:  1.063e-01  linmin:  9.543e-06  t[s]:   8066.23
	FillingsUpdate:  mu: +0.102154014  nElectrons: 352.000000  magneticMoment: [ Abs: 38.69977  Tot: +0.00000 ]
	SubspaceRotationAdjust: set factor to 0.472
ElecMinimize: Iter:  94  F: -2074.127814561535160  |grad|_K:  3.223e-06  alpha:  1.458e-01  linmin: -2.441e-04  t[s]:   8136.81
	FillingsUpdate:  mu: +0.101498685  nElectrons: 352.000000  magneticMoment: [ Abs: 38.72946  Tot: -0.00000 ]
	SubspaceRotationAdjust: set factor to 0.383
ElecMinimize: Iter:  95  F: -2074.128055376427710  |grad|_K:  2.962e-06  alpha:  1.309e-01  linmin: -9.234e-05  t[s]:   8207.25
	FillingsUpdate:  mu: +0.102435916  nElectrons: 352.000000  magneticMoment: [ Abs: 38.76505  Tot: +0.00000 ]
	SubspaceRotationAdjust: set factor to 0.502
ElecMinimize: Iter:  96  F: -2074.128314877947560  |grad|_K:  2.401e-06  alpha:  1.695e-01  linmin:  4.567e-04  t[s]:   8278.40
	FillingsUpdate:  mu: +0.102527939  nElectrons: 352.000000  magneticMoment: [ Abs: 38.78476  Tot: -0.00000 ]
	SubspaceRotationAdjust: set factor to 0.359
ElecMinimize: Iter:  97  F: -2074.128491692089483  |grad|_K:  3.037e-06  alpha:  1.799e-01  linmin:  4.684e-04  t[s]:   8348.90
	FillingsUpdate:  mu: +0.102789735  nElectrons: 352.000000  magneticMoment: [ Abs: 38.82226  Tot: +0.00000 ]
	SubspaceRotationAdjust: set factor to 0.454
ElecMinimize: Iter:  98  F: -2074.128683979382458  |grad|_K:  2.282e-06  alpha:  1.234e-01  linmin: -2.139e-05  t[s]:   8419.80
	FillingsUpdate:  mu: +0.102532923  nElectrons: 352.000000  magneticMoment: [ Abs: 38.84608  Tot: +0.00000 ]
	SubspaceRotationAdjust: set factor to 0.417
ElecMinimize: Iter:  99  F: -2074.128880738899170  |grad|_K:  2.402e-06  alpha:  2.121e-01  linmin: -4.759e-04  t[s]:   8490.54
	FillingsUpdate:  mu: +0.102083667  nElectrons: 352.000000  magneticMoment: [ Abs: 38.85047  Tot: -0.00000 ]
	SubspaceRotationAdjust: set factor to 0.374
ElecMinimize: Iter: 100  F: -2074.129011917350908  |grad|_K:  2.222e-06  alpha:  1.227e-01  linmin: -9.599e-05  t[s]:   8561.21
	FillingsUpdate:  mu: +0.102942676  nElectrons: 352.000000  magneticMoment: [ Abs: 38.88267  Tot: -0.00000 ]
	SubspaceRotationAdjust: set factor to 0.381
ElecMinimize: Iter: 101  F: -2074.129147215997818  |grad|_K:  1.911e-06  alpha:  1.577e-01  linmin:  4.558e-04  t[s]:   8631.75
	FillingsUpdate:  mu: +0.103754117  nElectrons: 352.000000  magneticMoment: [ Abs: 38.91033  Tot: +0.00000 ]
	SubspaceRotationAdjust: set factor to 0.315
ElecMinimize: Iter: 102  F: -2074.129261860626684  |grad|_K:  2.193e-06  alpha:  1.873e-01  linmin: -9.273e-05  t[s]:   8703.51
	FillingsUpdate:  mu: +0.101984846  nElectrons: 352.000000  magneticMoment: [ Abs: 38.91184  Tot: -0.00000 ]
	SubspaceRotationAdjust: set factor to 0.27
ElecMinimize: Iter: 103  F: -2074.129357502314633  |grad|_K:  1.723e-06  alpha:  1.134e-01  linmin:  1.272e-05  t[s]:   8777.14
	FillingsUpdate:  mu: +0.101724679  nElectrons: 352.000000  magneticMoment: [ Abs: 38.92417  Tot: -0.00000 ]
	SubspaceRotationAdjust: set factor to 0.266
ElecMinimize: Iter: 104  F: -2074.129475072775676  |grad|_K:  1.765e-06  alpha:  2.258e-01  linmin: -8.351e-05  t[s]:   8848.97
	FillingsUpdate:  mu: +0.102075232  nElectrons: 352.000000  magneticMoment: [ Abs: 38.94853  Tot: +0.00000 ]
	SubspaceRotationAdjust: set factor to 0.238
ElecMinimize: Iter: 105  F: -2074.129557682103950  |grad|_K:  1.539e-06  alpha:  1.474e-01  linmin: -8.810e-06  t[s]:   8919.98
	FillingsUpdate:  mu: +0.102627941  nElectrons: 352.000000  magneticMoment: [ Abs: 38.96319  Tot: +0.00000 ]
	SubspaceRotationAdjust: set factor to 0.293
ElecMinimize: Iter: 106  F: -2074.129642045366381  |grad|_K:  1.421e-06  alpha:  2.045e-01  linmin:  1.722e-04  t[s]:   8991.18
	FillingsUpdate:  mu: +0.101842977  nElectrons: 352.000000  magneticMoment: [ Abs: 38.95927  Tot: +0.00000 ]
	SubspaceRotationAdjust: set factor to 0.283
ElecMinimize: Iter: 107  F: -2074.129701909181676  |grad|_K:  1.592e-06  alpha:  1.718e-01  linmin:  2.264e-05  t[s]:   9062.35
	FillingsUpdate:  mu: +0.101655495  nElectrons: 352.000000  magneticMoment: [ Abs: 38.96448  Tot: +0.00000 ]
	SubspaceRotationAdjust: set factor to 0.347
ElecMinimize: Iter: 108  F: -2074.129789794353655  |grad|_K:  1.478e-06  alpha:  1.980e-01  linmin: -1.213e-04  t[s]:   9133.33
	FillingsUpdate:  mu: +0.102389141  nElectrons: 352.000000  magneticMoment: [ Abs: 38.97937  Tot: -0.00000 ]
	SubspaceRotationAdjust: set factor to 0.278
ElecMinimize: Iter: 109  F: -2074.129865564960255  |grad|_K:  1.862e-06  alpha:  1.952e-01  linmin: -2.820e-05  t[s]:   9204.58
	FillingsUpdate:  mu: +0.101792218  nElectrons: 352.000000  magneticMoment: [ Abs: 38.98148  Tot: -0.00000 ]
	SubspaceRotationAdjust: set factor to 0.28
ElecMinimize: Iter: 110  F: -2074.129957118786024  |grad|_K:  1.609e-06  alpha:  1.495e-01  linmin:  2.943e-05  t[s]:   9275.32
	FillingsUpdate:  mu: +0.102079115  nElectrons: 352.000000  magneticMoment: [ Abs: 38.99030  Tot: +0.00000 ]
	SubspaceRotationAdjust: set factor to 0.271
ElecMinimize: Iter: 111  F: -2074.130070735067875  |grad|_K:  1.983e-06  alpha:  2.545e-01  linmin:  1.326e-04  t[s]:   9345.86
	FillingsUpdate:  mu: +0.102611446  nElectrons: 352.000000  magneticMoment: [ Abs: 39.00966  Tot: +0.00000 ]
	SubspaceRotationAdjust: set factor to 0.268
ElecMinimize: Iter: 112  F: -2074.130170632189220  |grad|_K:  1.915e-06  alpha:  1.478e-01  linmin: -7.031e-06  t[s]:   9416.90
	FillingsUpdate:  mu: +0.101949932  nElectrons: 352.000000  magneticMoment: [ Abs: 39.01418  Tot: -0.00000 ]
	SubspaceRotationAdjust: set factor to 0.318
ElecMinimize: Iter: 113  F: -2074.130306683056915  |grad|_K:  1.940e-06  alpha:  2.128e-01  linmin:  6.844e-05  t[s]:   9487.45
	FillingsUpdate:  mu: +0.101645545  nElectrons: 352.000000  magneticMoment: [ Abs: 39.00729  Tot: -0.00000 ]
	SubspaceRotationAdjust: set factor to 0.314
ElecMinimize: Iter: 114  F: -2074.130411056193680  |grad|_K:  2.156e-06  alpha:  1.610e-01  linmin: -6.357e-06  t[s]:   9557.99
	FillingsUpdate:  mu: +0.101397028  nElectrons: 352.000000  magneticMoment: [ Abs: 39.02492  Tot: +0.00000 ]
	SubspaceRotationAdjust: set factor to 0.381
ElecMinimize: Iter: 115  F: -2074.130557122995015  |grad|_K:  1.884e-06  alpha:  1.795e-01  linmin: -1.360e-05  t[s]:   9628.34
	FillingsUpdate:  mu: +0.102472320  nElectrons: 352.000000  magneticMoment: [ Abs: 39.04403  Tot: -0.00000 ]
	SubspaceRotationAdjust: set factor to 0.333
ElecMinimize: Iter: 116  F: -2074.130675566422269  |grad|_K:  2.313e-06  alpha:  1.905e-01  linmin:  3.301e-05  t[s]:   9699.39
	FillingsUpdate:  mu: +0.101476324  nElectrons: 352.000000  magneticMoment: [ Abs: 39.03606  Tot: +0.00000 ]
	SubspaceRotationAdjust: set factor to 0.342
ElecMinimize: Iter: 117  F: -2074.130785537242900  |grad|_K:  1.881e-06  alpha:  1.191e-01  linmin:  4.253e-06  t[s]:   9770.28
	FillingsUpdate:  mu: +0.101416912  nElectrons: 352.000000  magneticMoment: [ Abs: 39.03282  Tot: -0.00000 ]
	SubspaceRotationAdjust: set factor to 0.412
ElecMinimize: Iter: 118  F: -2074.130902805929964  |grad|_K:  1.840e-06  alpha:  1.915e-01  linmin:  1.500e-04  t[s]:   9841.90
	FillingsUpdate:  mu: +0.101465629  nElectrons: 352.000000  magneticMoment: [ Abs: 39.04559  Tot: +0.00000 ]
	SubspaceRotationAdjust: set factor to 0.396
ElecMinimize: Iter: 119  F: -2074.130982669627883  |grad|_K:  2.022e-06  alpha:  1.375e-01  linmin:  8.703e-06  t[s]:   9912.81
	FillingsUpdate:  mu: +0.101464583  nElectrons: 352.000000  magneticMoment: [ Abs: 39.04808  Tot: +0.00000 ]
	SubspaceRotationAdjust: set factor to 0.502
ElecMinimize: Iter: 120  F: -2074.131090325038713  |grad|_K:  1.710e-06  alpha:  1.503e-01  linmin: -1.275e-04  t[s]:   9984.12
	FillingsUpdate:  mu: +0.101808373  nElectrons: 352.000000  magneticMoment: [ Abs: 39.04362  Tot: +0.00000 ]
	SubspaceRotationAdjust: set factor to 0.398
ElecMinimize: Iter: 121  F: -2074.131183098947986  |grad|_K:  2.037e-06  alpha:  1.769e-01  linmin: -1.516e-04  t[s]:  10055.58
	FillingsUpdate:  mu: +0.101629385  nElectrons: 352.000000  magneticMoment: [ Abs: 39.05436  Tot: -0.00000 ]
	SubspaceRotationAdjust: set factor to 0.37
ElecMinimize: Iter: 122  F: -2074.131253996087707  |grad|_K:  1.709e-06  alpha:  9.425e-02  linmin: -4.247e-05  t[s]:  10126.71
	FillingsUpdate:  mu: +0.101411734  nElectrons: 352.000000  magneticMoment: [ Abs: 39.05390  Tot: -0.00000 ]
	SubspaceRotationAdjust: set factor to 0.395
ElecMinimize: Iter: 123  F: -2074.131352651244924  |grad|_K:  1.785e-06  alpha:  1.938e-01  linmin:  1.430e-04  t[s]:  10198.15
	FillingsUpdate:  mu: +0.101623938  nElectrons: 352.000000  magneticMoment: [ Abs: 39.04739  Tot: -0.00000 ]
	SubspaceRotationAdjust: set factor to 0.422
ElecMinimize: Iter: 124  F: -2074.131423505190014  |grad|_K:  1.794e-06  alpha:  1.318e-01  linmin: -6.520e-06  t[s]:  10269.36
	FillingsUpdate:  mu: +0.101734998  nElectrons: 352.000000  magneticMoment: [ Abs: 39.05989  Tot: +0.00000 ]
	SubspaceRotationAdjust: set factor to 0.474
ElecMinimize: Iter: 125  F: -2074.131504275348107  |grad|_K:  1.509e-06  alpha:  1.434e-01  linmin:  1.870e-05  t[s]:  10340.86
	FillingsUpdate:  mu: +0.102113367  nElectrons: 352.000000  magneticMoment: [ Abs: 39.06751  Tot: -0.00000 ]
	SubspaceRotationAdjust: set factor to 0.39
ElecMinimize: Iter: 126  F: -2074.131576679425962  |grad|_K:  1.780e-06  alpha:  1.826e-01  linmin:  4.757e-05  t[s]:  10411.26
	FillingsUpdate:  mu: +0.101748747  nElectrons: 352.000000  magneticMoment: [ Abs: 39.05499  Tot: -0.00000 ]
	SubspaceRotationAdjust: set factor to 0.371
ElecMinimize: Iter: 127  F: -2074.131630903874793  |grad|_K:  1.487e-06  alpha:  1.008e-01  linmin:  4.752e-05  t[s]:  10482.03
	FillingsUpdate:  mu: +0.101684913  nElectrons: 352.000000  magneticMoment: [ Abs: 39.05014  Tot: -0.00000 ]
	SubspaceRotationAdjust: set factor to 0.415
ElecMinimize: Iter: 128  F: -2074.131707578879286  |grad|_K:  1.502e-06  alpha:  2.004e-01  linmin:  3.367e-05  t[s]:  10552.98
	FillingsUpdate:  mu: +0.101742922  nElectrons: 352.000000  magneticMoment: [ Abs: 39.06143  Tot: -0.00000 ]
	SubspaceRotationAdjust: set factor to 0.436
ElecMinimize: Iter: 129  F: -2074.131759853958556  |grad|_K:  1.504e-06  alpha:  1.316e-01  linmin: -5.710e-06  t[s]:  10623.71
	FillingsUpdate:  mu: +0.101900651  nElectrons: 352.000000  magneticMoment: [ Abs: 39.06349  Tot: -0.00000 ]
	SubspaceRotationAdjust: set factor to 0.479
ElecMinimize: Iter: 130  F: -2074.131815028507845  |grad|_K:  1.323e-06  alpha:  1.393e-01  linmin: -7.771e-05  t[s]:  10694.94
	FillingsUpdate:  mu: +0.101908362  nElectrons: 352.000000  magneticMoment: [ Abs: 39.05954  Tot: +0.00000 ]
	SubspaceRotationAdjust: set factor to 0.396
ElecMinimize: Iter: 131  F: -2074.131868735320950  |grad|_K:  1.438e-06  alpha:  1.724e-01  linmin: -1.593e-04  t[s]:  10765.79
	FillingsUpdate:  mu: +0.101745253  nElectrons: 352.000000  magneticMoment: [ Abs: 39.06662  Tot: +0.00000 ]
	SubspaceRotationAdjust: set factor to 0.355
ElecMinimize: Iter: 132  F: -2074.131902145319600  |grad|_K:  1.083e-06  alpha:  8.943e-02  linmin: -5.205e-05  t[s]:  10837.09
	FillingsUpdate:  mu: +0.101834418  nElectrons: 352.000000  magneticMoment: [ Abs: 39.06754  Tot: +0.00000 ]
	SubspaceRotationAdjust: set factor to 0.353
ElecMinimize: Iter: 133  F: -2074.131943743354441  |grad|_K:  1.173e-06  alpha:  2.034e-01  linmin:  1.408e-04  t[s]:  10907.63
	FillingsUpdate:  mu: +0.102075516  nElectrons: 352.000000  magneticMoment: [ Abs: 39.06315  Tot: -0.00000 ]
	SubspaceRotationAdjust: set factor to 0.368
ElecMinimize: Iter: 134  F: -2074.131973275506880  |grad|_K:  1.060e-06  alpha:  1.256e-01  linmin:  9.078e-06  t[s]:  10977.92
	FillingsUpdate:  mu: +0.102237495  nElectrons: 352.000000  magneticMoment: [ Abs: 39.06996  Tot: -0.00000 ]
	SubspaceRotationAdjust: set factor to 0.457
ElecMinimize: Iter: 135  F: -2074.132005514458342  |grad|_K:  9.605e-07  alpha:  1.642e-01  linmin: -3.102e-05  t[s]:  11048.80
	FillingsUpdate:  mu: +0.102233070  nElectrons: 352.000000  magneticMoment: [ Abs: 39.07865  Tot: -0.00000 ]
	SubspaceRotationAdjust: set factor to 0.395
ElecMinimize: Iter: 136  F: -2074.132029963340301  |grad|_K:  1.094e-06  alpha:  1.509e-01  linmin:  9.324e-06  t[s]:  11120.54
	FillingsUpdate:  mu: +0.101862730  nElectrons: 352.000000  magneticMoment: [ Abs: 39.07469  Tot: +0.00000 ]
	SubspaceRotationAdjust: set factor to 0.435
ElecMinimize: Iter: 137  F: -2074.132053947145778  |grad|_K:  8.215e-07  alpha:  1.154e-01  linmin: -2.719e-05  t[s]:  11192.36
	FillingsUpdate:  mu: +0.101905439  nElectrons: 352.000000  magneticMoment: [ Abs: 39.07258  Tot: -0.00000 ]
	SubspaceRotationAdjust: set factor to 0.367
ElecMinimize: Iter: 138  F: -2074.132078489809828  |grad|_K:  9.892e-07  alpha:  2.070e-01  linmin: -8.890e-06  t[s]:  11264.21
	FillingsUpdate:  mu: +0.101997539  nElectrons: 352.000000  magneticMoment: [ Abs: 39.08145  Tot: +0.00000 ]
	SubspaceRotationAdjust: set factor to 0.362
ElecMinimize: Iter: 139  F: -2074.132097619154592  |grad|_K:  8.724e-07  alpha:  1.098e-01  linmin: -5.075e-05  t[s]:  11335.44
	FillingsUpdate:  mu: +0.102297887  nElectrons: 352.000000  magneticMoment: [ Abs: 39.08764  Tot: +0.00000 ]
	SubspaceRotationAdjust: set factor to 0.396
ElecMinimize: Iter: 140  F: -2074.132122935104235  |grad|_K:  9.241e-07  alpha:  1.885e-01  linmin: -1.624e-05  t[s]:  11405.76
	FillingsUpdate:  mu: +0.102248843  nElectrons: 352.000000  magneticMoment: [ Abs: 39.08370  Tot: +0.00000 ]
	SubspaceRotationAdjust: set factor to 0.396
ElecMinimize: Iter: 141  F: -2074.132143594801164  |grad|_K:  1.013e-06  alpha:  1.385e-01  linmin: -9.541e-06  t[s]:  11476.58
	FillingsUpdate:  mu: +0.101956445  nElectrons: 352.000000  magneticMoment: [ Abs: 39.08619  Tot: +0.00000 ]
	SubspaceRotationAdjust: set factor to 0.449
ElecMinimize: Iter: 142  F: -2074.132172526034992  |grad|_K:  9.173e-07  alpha:  1.611e-01  linmin:  3.338e-05  t[s]:  11547.11
	FillingsUpdate:  mu: +0.101906546  nElectrons: 352.000000  magneticMoment: [ Abs: 39.09309  Tot: +0.00000 ]
	SubspaceRotationAdjust: set factor to 0.348
ElecMinimize: Iter: 143  F: -2074.132198270017852  |grad|_K:  1.221e-06  alpha:  1.766e-01  linmin:  9.480e-05  t[s]:  11619.50
	FillingsUpdate:  mu: +0.101782413  nElectrons: 352.000000  magneticMoment: [ Abs: 39.09034  Tot: +0.00000 ]
	SubspaceRotationAdjust: set factor to 0.408
ElecMinimize: Iter: 144  F: -2074.132226166989767  |grad|_K:  9.549e-07  alpha:  1.103e-01  linmin:  6.926e-06  t[s]:  11691.45
	FillingsUpdate:  mu: +0.101951560  nElectrons: 352.000000  magneticMoment: [ Abs: 39.09034  Tot: -0.00000 ]
	SubspaceRotationAdjust: set factor to 0.384
ElecMinimize: Iter: 145  F: -2074.132255900665768  |grad|_K:  1.069e-06  alpha:  1.848e-01  linmin: -1.342e-04  t[s]:  11762.31
	FillingsUpdate:  mu: +0.101970288  nElectrons: 352.000000  magneticMoment: [ Abs: 39.09800  Tot: -0.00000 ]
	SubspaceRotationAdjust: set factor to 0.351
ElecMinimize: Iter: 146  F: -2074.132276865533186  |grad|_K:  9.216e-07  alpha:  1.002e-01  linmin: -5.736e-05  t[s]:  11833.29
	FillingsUpdate:  mu: +0.101786660  nElectrons: 352.000000  magneticMoment: [ Abs: 39.09731  Tot: +0.00000 ]
	SubspaceRotationAdjust: set factor to 0.451
ElecMinimize: Iter: 147  F: -2074.132304722735626  |grad|_K:  9.324e-07  alpha:  1.881e-01  linmin:  1.435e-04  t[s]:  11904.23
	FillingsUpdate:  mu: +0.101729296  nElectrons: 352.000000  magneticMoment: [ Abs: 39.09181  Tot: +0.00000 ]
	SubspaceRotationAdjust: set factor to 0.43
ElecMinimize: Iter: 148  F: -2074.132322664684125  |grad|_K:  1.022e-06  alpha:  1.210e-01  linmin: -3.048e-06  t[s]:  11975.43
	FillingsUpdate:  mu: +0.101698034  nElectrons: 352.000000  magneticMoment: [ Abs: 39.09871  Tot: -0.00000 ]
	SubspaceRotationAdjust: set factor to 0.564
ElecMinimize: Iter: 149  F: -2074.132349671623615  |grad|_K:  8.582e-07  alpha:  1.477e-01  linmin: -2.172e-05  t[s]:  12046.23
	FillingsUpdate:  mu: +0.102010229  nElectrons: 352.000000  magneticMoment: [ Abs: 39.10771  Tot: -0.00000 ]
	SubspaceRotationAdjust: set factor to 0.439
ElecMinimize: Iter: 150  F: -2074.132372462143849  |grad|_K:  1.130e-06  alpha:  1.762e-01  linmin:  1.535e-06  t[s]:  12116.99
	FillingsUpdate:  mu: +0.101838363  nElectrons: 352.000000  magneticMoment: [ Abs: 39.10288  Tot: +0.00000 ]
	SubspaceRotationAdjust: set factor to 0.397
ElecMinimize: Iter: 151  F: -2074.132389483831048  |grad|_K:  8.713e-07  alpha:  7.528e-02  linmin: -4.202e-05  t[s]:  12187.59
	FillingsUpdate:  mu: +0.101726210  nElectrons: 352.000000  magneticMoment: [ Abs: 39.10113  Tot: +0.00000 ]
	SubspaceRotationAdjust: set factor to 0.506
ElecMinimize: Iter: 152  F: -2074.132413157676183  |grad|_K:  8.668e-07  alpha:  1.798e-01  linmin:  1.564e-04  t[s]:  12258.25
	FillingsUpdate:  mu: +0.101723811  nElectrons: 352.000000  magneticMoment: [ Abs: 39.10706  Tot: -0.00000 ]
	SubspaceRotationAdjust: set factor to 0.418
ElecMinimize: Iter: 153  F: -2074.132428154941408  |grad|_K:  1.008e-06  alpha:  1.174e-01  linmin: -4.782e-07  t[s]:  12329.49
	FillingsUpdate:  mu: +0.101636826  nElectrons: 352.000000  magneticMoment: [ Abs: 39.10647  Tot: -0.00000 ]
	SubspaceRotationAdjust: set factor to 0.512
ElecMinimize: Iter: 154  F: -2074.132448289359672  |grad|_K:  7.586e-07  alpha:  1.133e-01  linmin: -1.840e-05  t[s]:  12400.60
	FillingsUpdate:  mu: +0.101742603  nElectrons: 352.000000  magneticMoment: [ Abs: 39.10862  Tot: -0.00000 ]
	SubspaceRotationAdjust: set factor to 0.446
ElecMinimize: Iter: 155  F: -2074.132468818477719  |grad|_K:  9.266e-07  alpha:  2.024e-01  linmin: -3.674e-05  t[s]:  12471.22
	FillingsUpdate:  mu: +0.101902978  nElectrons: 352.000000  magneticMoment: [ Abs: 39.11596  Tot: -0.00000 ]
	SubspaceRotationAdjust: set factor to 0.399
ElecMinimize: Iter: 156  F: -2074.132482160706331  |grad|_K:  8.681e-07  alpha:  8.788e-02  linmin: -1.144e-05  t[s]:  12542.37
	FillingsUpdate:  mu: +0.101756994  nElectrons: 352.000000  magneticMoment: [ Abs: 39.11412  Tot: +0.00000 ]
	SubspaceRotationAdjust: set factor to 0.473
ElecMinimize: Iter: 157  F: -2074.132501158247578  |grad|_K:  7.609e-07  alpha:  1.452e-01  linmin:  1.033e-04  t[s]:  12613.60
	FillingsUpdate:  mu: +0.101828302  nElectrons: 352.000000  magneticMoment: [ Abs: 39.11146  Tot: +0.00000 ]
	SubspaceRotationAdjust: set factor to 0.369
ElecMinimize: Iter: 158  F: -2074.132517887893300  |grad|_K:  9.826e-07  alpha:  1.693e-01  linmin:  4.318e-05  t[s]:  12684.66
	FillingsUpdate:  mu: +0.101778349  nElectrons: 352.000000  magneticMoment: [ Abs: 39.11877  Tot: +0.00000 ]
	SubspaceRotationAdjust: set factor to 0.367
ElecMinimize: Iter: 159  F: -2074.132531602430845  |grad|_K:  7.263e-07  alpha:  8.279e-02  linmin:  2.485e-05  t[s]:  12755.39
	FillingsUpdate:  mu: +0.101902033  nElectrons: 352.000000  magneticMoment: [ Abs: 39.12351  Tot: -0.00000 ]
	SubspaceRotationAdjust: set factor to 0.415
ElecMinimize: Iter: 160  F: -2074.132548371709163  |grad|_K:  7.535e-07  alpha:  1.813e-01  linmin: -7.470e-05  t[s]:  12826.88
	FillingsUpdate:  mu: +0.101759500  nElectrons: 352.000000  magneticMoment: [ Abs: 39.11974  Tot: +0.00000 ]
	SubspaceRotationAdjust: set factor to 0.382
ElecMinimize: Iter: 161  F: -2074.132559602707715  |grad|_K:  7.688e-07  alpha:  1.108e-01  linmin: -8.145e-06  t[s]:  12897.81
	FillingsUpdate:  mu: +0.101723531  nElectrons: 352.000000  magneticMoment: [ Abs: 39.12135  Tot: +0.00000 ]
	SubspaceRotationAdjust: set factor to 0.482
ElecMinimize: Iter: 162  F: -2074.132572759022423  |grad|_K:  6.009e-07  alpha:  1.271e-01  linmin: -7.289e-06  t[s]:  12968.43
	FillingsUpdate:  mu: +0.101819466  nElectrons: 352.000000  magneticMoment: [ Abs: 39.12411  Tot: +0.00000 ]
	SubspaceRotationAdjust: set factor to 0.372
ElecMinimize: Iter: 163  F: -2074.132583294001506  |grad|_K:  7.672e-07  alpha:  1.664e-01  linmin: -2.269e-05  t[s]:  13038.75
	FillingsUpdate:  mu: +0.101743531  nElectrons: 352.000000  magneticMoment: [ Abs: 39.12044  Tot: -0.00000 ]
	SubspaceRotationAdjust: set factor to 0.372
ElecMinimize: Iter: 164  F: -2074.132591638626764  |grad|_K:  5.738e-07  alpha:  8.009e-02  linmin: -2.666e-05  t[s]:  13109.77
	FillingsUpdate:  mu: +0.101786949  nElectrons: 352.000000  magneticMoment: [ Abs: 39.12099  Tot: +0.00000 ]
	SubspaceRotationAdjust: set factor to 0.436
ElecMinimize: Iter: 165  F: -2074.132601470813370  |grad|_K:  5.740e-07  alpha:  1.699e-01  linmin: -1.712e-06  t[s]:  13180.85
	FillingsUpdate:  mu: +0.101899337  nElectrons: 352.000000  magneticMoment: [ Abs: 39.12487  Tot: +0.00000 ]
	SubspaceRotationAdjust: set factor to 0.409
ElecMinimize: Iter: 166  F: -2074.132607442788867  |grad|_K:  5.814e-07  alpha:  1.042e-01  linmin:  7.334e-06  t[s]:  13251.63
	FillingsUpdate:  mu: +0.101783773  nElectrons: 352.000000  magneticMoment: [ Abs: 39.12267  Tot: -0.00000 ]
	SubspaceRotationAdjust: set factor to 0.546
ElecMinimize: Iter: 167  F: -2074.132615303108651  |grad|_K:  4.547e-07  alpha:  1.333e-01  linmin:  1.860e-05  t[s]:  13322.59
	FillingsUpdate:  mu: +0.101760545  nElectrons: 352.000000  magneticMoment: [ Abs: 39.11969  Tot: +0.00000 ]
	SubspaceRotationAdjust: set factor to 0.423
ElecMinimize: Iter: 168  F: -2074.132621293905231  |grad|_K:  5.902e-07  alpha:  1.664e-01  linmin:  2.648e-05  t[s]:  13393.46
	FillingsUpdate:  mu: +0.101772558  nElectrons: 352.000000  magneticMoment: [ Abs: 39.12269  Tot: -0.00000 ]
	SubspaceRotationAdjust: set factor to 0.402
ElecMinimize: Iter: 169  F: -2074.132625774719600  |grad|_K:  4.617e-07  alpha:  7.435e-02  linmin:  2.660e-05  t[s]:  13464.57
	FillingsUpdate:  mu: +0.101797099  nElectrons: 352.000000  magneticMoment: [ Abs: 39.12301  Tot: +0.00000 ]
	SubspaceRotationAdjust: set factor to 0.528
ElecMinimize: Iter: 170  F: -2074.132631942856278  |grad|_K:  4.338e-07  alpha:  1.661e-01  linmin: -3.297e-06  t[s]:  13535.75
	FillingsUpdate:  mu: +0.101728595  nElectrons: 352.000000  magneticMoment: [ Abs: 39.11973  Tot: -0.00000 ]
	SubspaceRotationAdjust: set factor to 0.418
ElecMinimize: Iter: 171  F: -2074.132635851688974  |grad|_K:  5.250e-07  alpha:  1.185e-01  linmin:  3.062e-06  t[s]:  13607.11
	FillingsUpdate:  mu: +0.101724997  nElectrons: 352.000000  magneticMoment: [ Abs: 39.12044  Tot: +0.00000 ]
	SubspaceRotationAdjust: set factor to 0.479
ElecMinimize: Iter: 172  F: -2074.132640645192168  |grad|_K:  3.916e-07  alpha:  9.958e-02  linmin: -9.009e-06  t[s]:  13678.50
	FillingsUpdate:  mu: +0.101772022  nElectrons: 352.000000  magneticMoment: [ Abs: 39.11995  Tot: +0.00000 ]
	SubspaceRotationAdjust: set factor to 0.47
ElecMinimize: Iter: 173  F: -2074.132645871946806  |grad|_K:  4.439e-07  alpha:  1.945e-01  linmin: -1.033e-05  t[s]:  13748.90
	FillingsUpdate:  mu: +0.101773679  nElectrons: 352.000000  magneticMoment: [ Abs: 39.11708  Tot: +0.00000 ]
	SubspaceRotationAdjust: set factor to 0.434
ElecMinimize: Iter: 174  F: -2074.132649224263787  |grad|_K:  4.648e-07  alpha:  9.674e-02  linmin: -1.603e-05  t[s]:  13819.80
	FillingsUpdate:  mu: +0.101850758  nElectrons: 352.000000  magneticMoment: [ Abs: 39.11881  Tot: -0.00000 ]
	SubspaceRotationAdjust: set factor to 0.515
ElecMinimize: Iter: 175  F: -2074.132654349131371  |grad|_K:  4.112e-07  alpha:  1.354e-01  linmin: -1.012e-06  t[s]:  13892.36
	FillingsUpdate:  mu: +0.101897757  nElectrons: 352.000000  magneticMoment: [ Abs: 39.11996  Tot: -0.00000 ]
	SubspaceRotationAdjust: set factor to 0.429
ElecMinimize: Iter: 176  F: -2074.132659846708520  |grad|_K:  5.374e-07  alpha:  1.858e-01  linmin: -9.515e-06  t[s]:  13964.96
	FillingsUpdate:  mu: +0.101734582  nElectrons: 352.000000  magneticMoment: [ Abs: 39.11602  Tot: -0.00000 ]
	SubspaceRotationAdjust: set factor to 0.371
ElecMinimize: Iter: 177  F: -2074.132663686630167  |grad|_K:  4.541e-07  alpha:  7.560e-02  linmin: -1.808e-05  t[s]:  14037.09
	FillingsUpdate:  mu: +0.101675316  nElectrons: 352.000000  magneticMoment: [ Abs: 39.11401  Tot: +0.00000 ]
	SubspaceRotationAdjust: set factor to 0.431
ElecMinimize: Iter: 178  F: -2074.132670317249904  |grad|_K:  4.791e-07  alpha:  1.833e-01  linmin: -1.653e-06  t[s]:  14107.72
	FillingsUpdate:  mu: +0.101786304  nElectrons: 352.000000  magneticMoment: [ Abs: 39.11691  Tot: -0.00000 ]
	SubspaceRotationAdjust: set factor to 0.398
ElecMinimize: Iter: 179  F: -2074.132674985869471  |grad|_K:  5.313e-07  alpha:  1.161e-01  linmin: -1.423e-06  t[s]:  14178.07
	FillingsUpdate:  mu: +0.101817430  nElectrons: 352.000000  magneticMoment: [ Abs: 39.11616  Tot: -0.00000 ]
	SubspaceRotationAdjust: set factor to 0.454
ElecMinimize: Iter: 180  F: -2074.132681046875405  |grad|_K:  4.446e-07  alpha:  1.228e-01  linmin:  1.150e-05  t[s]:  14249.16
	FillingsUpdate:  mu: +0.101822943  nElectrons: 352.000000  magneticMoment: [ Abs: 39.11455  Tot: +0.00000 ]
	SubspaceRotationAdjust: set factor to 0.36
ElecMinimize: Iter: 181  F: -2074.132687397255722  |grad|_K:  5.846e-07  alpha:  1.842e-01  linmin:  9.630e-06  t[s]:  14320.47
	FillingsUpdate:  mu: +0.101853710  nElectrons: 352.000000  magneticMoment: [ Abs: 39.11742  Tot: +0.00000 ]
	SubspaceRotationAdjust: set factor to 0.345
ElecMinimize: Iter: 182  F: -2074.132692361918544  |grad|_K:  4.740e-07  alpha:  8.311e-02  linmin: -3.297e-06  t[s]:  14391.47
	FillingsUpdate:  mu: +0.101790457  nElectrons: 352.000000  magneticMoment: [ Abs: 39.11720  Tot: +0.00000 ]
	SubspaceRotationAdjust: set factor to 0.4
ElecMinimize: Iter: 183  F: -2074.132699549723839  |grad|_K:  5.137e-07  alpha:  1.826e-01  linmin: -9.026e-06  t[s]:  14463.04
	FillingsUpdate:  mu: +0.101726624  nElectrons: 352.000000  magneticMoment: [ Abs: 39.11439  Tot: +0.00000 ]
	SubspaceRotationAdjust: set factor to 0.373
ElecMinimize: Iter: 184  F: -2074.132704783350619  |grad|_K:  5.495e-07  alpha:  1.129e-01  linmin: -3.166e-06  t[s]:  14534.22
	FillingsUpdate:  mu: +0.101838638  nElectrons: 352.000000  magneticMoment: [ Abs: 39.11788  Tot: +0.00000 ]
	SubspaceRotationAdjust: set factor to 0.484
ElecMinimize: Iter: 185  F: -2074.132711850052146  |grad|_K:  4.566e-07  alpha:  1.338e-01  linmin:  2.961e-06  t[s]:  14605.04
	FillingsUpdate:  mu: +0.102049234  nElectrons: 352.000000  magneticMoment: [ Abs: 39.12248  Tot: +0.00000 ]
	SubspaceRotationAdjust: set factor to 0.373
ElecMinimize: Iter: 186  F: -2074.132717416514424  |grad|_K:  6.087e-07  alpha:  1.528e-01  linmin:  1.004e-05  t[s]:  14675.92
	FillingsUpdate:  mu: +0.101917330  nElectrons: 352.000000  magneticMoment: [ Abs: 39.12048  Tot: +0.00000 ]
	SubspaceRotationAdjust: set factor to 0.405
ElecMinimize: Iter: 187  F: -2074.132722851106337  |grad|_K:  4.580e-07  alpha:  8.377e-02  linmin: -6.466e-06  t[s]:  14746.93
	FillingsUpdate:  mu: +0.101815899  nElectrons: 352.000000  magneticMoment: [ Abs: 39.11960  Tot: -0.00000 ]
	SubspaceRotationAdjust: set factor to 0.488
ElecMinimize: Iter: 188  F: -2074.132729120700333  |grad|_K:  4.744e-07  alpha:  1.707e-01  linmin:  1.026e-06  t[s]:  14818.24
	FillingsUpdate:  mu: +0.101869354  nElectrons: 352.000000  magneticMoment: [ Abs: 39.12300  Tot: -0.00000 ]
	SubspaceRotationAdjust: set factor to 0.417
[...]
	FillingsUpdate:  mu: +0.099345606  nElectrons: 352.000000  magneticMoment: [ Abs: 38.47559  Tot: -0.00000 ]
	SubspaceRotationAdjust: set factor to 0.261
ElecMinimize: Iter:  15  F: -2074.176519672960239  |grad|_K:  1.871e-07  alpha:  3.323e-01  linmin:  7.048e-08  t[s]: 110404.72
	FillingsUpdate:  mu: +0.099188886  nElectrons: 352.000000  magneticMoment: [ Abs: 38.47696  Tot: -0.00000 ]
	SubspaceRotationAdjust: set factor to 0.221
ElecMinimize: Iter:  16  F: -2074.176521583538943  |grad|_K:  1.653e-07  alpha:  3.123e-01  linmin: -7.288e-06  t[s]: 110476.63
	FillingsUpdate:  mu: +0.099308128  nElectrons: 352.000000  magneticMoment: [ Abs: 38.47835  Tot: +0.00000 ]
	SubspaceRotationAdjust: set factor to 0.2
ElecMinimize: Iter:  17  F: -2074.176522929412840  |grad|_K:  1.207e-07  alpha:  2.814e-01  linmin:  1.741e-06  t[s]: 110548.15
	FillingsUpdate:  mu: +0.099284034  nElectrons: 352.000000  magneticMoment: [ Abs: 38.47961  Tot: -0.00000 ]
	SubspaceRotationAdjust: set factor to 0.235
ElecMinimize: Iter:  18  F: -2074.176523844169424  |grad|_K:  9.690e-08  alpha:  3.594e-01  linmin:  6.249e-08  t[s]: 110620.63
	FillingsUpdate:  mu: +0.099252101  nElectrons: 352.000000  magneticMoment: [ Abs: 38.48057  Tot: +0.00000 ]
	SubspaceRotationAdjust: set factor to 0.265
ElecMinimize: Iter:  19  F: -2074.176524401222196  |grad|_K:  8.269e-08  alpha:  3.393e-01  linmin:  2.724e-06  t[s]: 110694.11
	FillingsUpdate:  mu: +0.099321829  nElectrons: 352.000000  magneticMoment: [ Abs: 38.48161  Tot: +0.00000 ]
	SubspaceRotationAdjust: set factor to 0.265
ElecMinimize: Iter:  20  F: -2074.176524825685647  |grad|_K:  8.134e-08  alpha:  3.550e-01  linmin: -5.221e-06  t[s]: 110766.20
	FillingsUpdate:  mu: +0.099258787  nElectrons: 352.000000  magneticMoment: [ Abs: 38.48302  Tot: +0.00000 ]
	SubspaceRotationAdjust: set factor to 0.254
ElecMinimize: Iter:  21  F: -2074.176525249101360  |grad|_K:  8.553e-08  alpha:  3.657e-01  linmin: -3.791e-06  t[s]: 110837.58
	FillingsUpdate:  mu: +0.099317748  nElectrons: 352.000000  magneticMoment: [ Abs: 38.48489  Tot: +0.00000 ]
	SubspaceRotationAdjust: set factor to 0.265
ElecMinimize: Iter:  22  F: -2074.176525773219964  |grad|_K:  8.849e-08  alpha:  4.095e-01  linmin: -6.889e-06  t[s]: 110908.71
ElecMinimize: Converged (|Delta F|<1.000000e-06 for 5 iters).
Setting wave functions to eigenvectors of Hamiltonian

# Ionic positions in lattice coordinates:
ion Ni   0.006072778884966  -0.008551622273452   0.164817121330322 1
ion Ni   0.502820237189798  -0.007856712459562   0.163567466241840 1
ion Ni   0.493426999574791   0.497368576761791   0.158775219549687 1
ion Ni   0.255014231484068   0.250516386674906   0.058505884495474 1
ion Ni   0.500000000000000   0.000000000000000  -0.050000000000000 0
ion Ni  -0.250000000000000   0.750000000000000  -0.150000000000000 0
ion V   0.009708851706582   0.500921554552208   0.159720651693222 1
ion V   0.254715597330395   0.762045309703785   0.057790955534834 1
ion V  -0.256137994484631   0.248316827788183   0.061782780994052 1
ion V  -0.255349603530061   0.754674969349909   0.058299310431862 1
ion V   0.000000000000000   0.000000000000000  -0.050000000000000 0
ion Cr   0.000000000000000   0.500000000000000  -0.050000000000000 0
ion Cr   0.500000000000000   0.500000000000000  -0.050000000000000 0
ion Cr   0.250000000000000   0.250000000000000  -0.150000000000000 0
ion Co   0.250000000000000   0.750000000000000  -0.150000000000000 0
ion Co  -0.250000000000000   0.250000000000000  -0.150000000000000 0
ion O   0.242222944171582   0.261237619089240   0.151791946110578 1
ion O   0.241992092000633   0.736472694907188   0.155421054937416 1
ion O  -0.257254403257102   0.263014082393093   0.150706125389464 1
ion O  -0.240252460036924   0.731901822577372   0.155849868177263 1
ion O  -0.010579161589378   0.022856717159017   0.054773652919570 1
ion O   0.499528532994804   0.011715356198591   0.043567570125815 1
ion O   0.003983781989463   0.494618776176601   0.057513972998634 1
ion O   0.504893522775772   0.489158373269085   0.042661742557611 1
ion O   0.250000000000000   0.250000000000000  -0.050000000000000 0
ion O   0.250000000000000   0.750000000000000  -0.050000000000000 0
ion O  -0.250000000000000   0.250000000000000  -0.050000000000000 0
ion O  -0.250000000000000   0.750000000000000  -0.050000000000000 0
ion O   0.000000000000000   0.000000000000000  -0.150000000000000 0
ion O   0.500000000000000   0.000000000000000  -0.150000000000000 0
ion O   0.000000000000000   0.500000000000000  -0.150000000000000 0
ion O   0.500000000000000   0.500000000000000  -0.150000000000000 0
ion O  -0.010783747925909   0.012151023673862   0.251615657588497 1
ion H   0.134074347108310   0.040954276586787   0.268691588581442 1

# Forces in Lattice coordinates:
force Ni   0.002222246879107  -0.006364224376214  -0.016065185046369 1
force Ni  -0.000227512090070  -0.001389726851009  -0.011924932981924 1
force Ni  -0.000151584197884   0.007155631042615  -0.015952853938649 1
force Ni  -0.002346833176224  -0.008766412446382  -0.017430739964786 1
force Ni   0.011832168078166   0.024266470799536  -0.342739925481492 0
force Ni   0.020073758661640   0.004754025579807  -0.365205583319758 0
force V  -0.001960400916240  -0.004460036585296   0.021091231772966 1
force V  -0.000664942287605  -0.000305784379612  -0.011895785236795 1
force V  -0.007968109628829  -0.004773957351200  -0.055954859405119 1
force V   0.004749542550476  -0.000313534425137  -0.019369419073990 1
force V  -0.029571187827438   0.010596508638355   0.228800892282317 0
force Cr  -0.028295551655182   0.005216436285947  -0.056676421028036 0
force Cr   0.017199220757293  -0.023091420527028  -0.520881401684205 0
force Cr   0.048774602957220  -0.090240203062828  -1.806950809630957 0
force Co   0.054107230120817   0.082784218935297  -0.682999472952450 0
force Co  -0.032719990787493  -0.111094899172293  -0.660611564366201 0
force O  -0.001280530999151  -0.006974371812493   0.021269940385960 1
force O  -0.000634148406786  -0.004919705788624  -0.001611961384530 1
force O   0.010419522081765  -0.003467717864322   0.029940836891621 1
force O  -0.008746979898562  -0.005588660031754  -0.047252061818956 1
force O  -0.002780022447816  -0.005234866916625  -0.014572505415799 1
force O   0.003108334313453   0.003864132998795   0.021223584985662 1
force O  -0.010948034440868  -0.000241095224423   0.029298280433136 1
force O   0.004528306870550   0.002571942427907  -0.039256632272230 1
force O   0.095791006324908   0.218340803345491   1.250356775710883 0
force O   0.111794373766871  -0.213672205481684   0.406644198358715 0
force O  -0.106722504869115   0.222337574688728   0.463733972938840 0
force O  -0.125786802482886  -0.193943718360035   0.818092999472527 0
force O   0.029411313657482   0.020246096299997   0.047514314712600 0
force O  -0.014240546862027   0.006609335902802   0.394379812803956 0
force O  -0.016750749006760   0.031537816331579   0.345462318339262 0
force O  -0.010367808343819   0.016939274249215   0.458704679120792 0
force O   0.002616256190262   0.004784181898341   0.002764416298174 1
force H  -0.001556527374637  -0.013490702238086  -0.028984333839955 1

# Energy components:
   Eewald =     5224.8147639995995632
       EH =     7089.5019859541644109
     Eloc =   -14533.3482167862784991
      Enl =     -555.2527408782912062
   Epulay =       -0.0004863088831595
      Exc =     -251.0039715347745641
       KE =      949.6646429532858065
        U =        1.4481307456386081
-------------------------------------
     Etot =    -2074.1758918555401578
       TS =        0.0006339176798873
-------------------------------------
        F =    -2074.1765257732199643

IonicMinimize: Iter:  22  F: -2074.176525773219964  |grad|_K:  5.342e-04  alpha:  1.000e+00  linmin:  2.198e-03  t[s]: 110933.31

#--- Lowdin population analysis ---
# oxidation-state Ni +3.710 +3.510 +3.367 +3.576 +3.478 +3.514
# magnetic-moments Ni +0.963 +0.705 -0.585 -0.984 +0.854 -0.758
# oxidation-state V +1.374 +1.009 +1.237 +1.004 +0.959
# magnetic-moments V +2.165 +2.903 -2.078 -2.900 -2.904
# oxidation-state Cr +2.919 +2.982 +2.906
# magnetic-moments Cr +3.680 +3.346 -4.013
# oxidation-state Co +1.293 +1.288
# magnetic-moments Co -2.777 +2.762
# oxidation-state O -0.673 -0.741 -0.711 -0.760 -0.848 -0.780 -0.865 -0.799 -0.798 -0.850 -0.851 -0.797 -0.943 -0.885 -0.881 -0.909 -0.704
# magnetic-moments O -0.239 +0.015 +0.081 +0.088 -0.030 +0.012 -0.130 -0.159 -0.133 -0.076 +0.005 -0.066 +0.008 +0.073 -0.156 -0.079 +0.336
# oxidation-state H +0.382
# magnetic-moments H -0.006


-------- Electronic minimization -----------
	FillingsUpdate:  mu: +0.098718335  nElectrons: 352.000000  magneticMoment: [ Abs: 38.48675  Tot: +0.00000 ]
ElecMinimize: Iter:   0  F: -2074.169857118439722  |grad|_K:  1.407e-05  alpha:  1.000e+00
	FillingsUpdate:  mu: +0.099692972  nElectrons: 352.000000  magneticMoment: [ Abs: 38.48449  Tot: -0.00000 ]
	SubspaceRotationAdjust: set factor to 0.258
ElecMinimize: Iter:   1  F: -2074.176204506938120  |grad|_K:  2.546e-06  alpha:  1.835e-01  linmin:  1.653e-04  t[s]: 111061.19
	FillingsUpdate:  mu: +0.098940160  nElectrons: 352.000000  magneticMoment: [ Abs: 38.48578  Tot: -0.00000 ]
	SubspaceRotationAdjust: set factor to 0.245
ElecMinimize: Iter:   2  F: -2074.176432400224712  |grad|_K:  1.343e-06  alpha:  2.010e-01  linmin: -4.715e-05  t[s]: 111133.03
	FillingsUpdate:  mu: +0.099650690  nElectrons: 352.000000  magneticMoment: [ Abs: 38.48569  Tot: +0.00000 ]
	SubspaceRotationAdjust: set factor to 0.213
ElecMinimize: Iter:   3  F: -2074.176514323870833  |grad|_K:  7.732e-07  alpha:  2.597e-01  linmin:  6.389e-05  t[s]: 111204.60
	FillingsUpdate:  mu: +0.099075994  nElectrons: 352.000000  magneticMoment: [ Abs: 38.48570  Tot: -0.00000 ]
	SubspaceRotationAdjust: set factor to 0.183
ElecMinimize: Iter:   4  F: -2074.176544237236612  |grad|_K:  5.621e-07  alpha:  2.864e-01  linmin: -4.531e-05  t[s]: 111276.00
	FillingsUpdate:  mu: +0.099454430  nElectrons: 352.000000  magneticMoment: [ Abs: 38.48579  Tot: +0.00000 ]
	SubspaceRotationAdjust: set factor to 0.185
ElecMinimize: Iter:   5  F: -2074.176561925702572  |grad|_K:  4.109e-07  alpha:  3.195e-01  linmin:  1.437e-05  t[s]: 111347.60
	FillingsUpdate:  mu: +0.099392965  nElectrons: 352.000000  magneticMoment: [ Abs: 38.48628  Tot: +0.00000 ]
	SubspaceRotationAdjust: set factor to 0.222
ElecMinimize: Iter:   6  F: -2074.176571733619767  |grad|_K:  3.438e-07  alpha:  3.326e-01  linmin: -3.253e-07  t[s]: 111418.74
	FillingsUpdate:  mu: +0.099248526  nElectrons: 352.000000  magneticMoment: [ Abs: 38.48672  Tot: -0.00000 ]
	SubspaceRotationAdjust: set factor to 0.25
ElecMinimize: Iter:   7  F: -2074.176578674319899  |grad|_K:  2.799e-07  alpha:  3.357e-01  linmin: -2.695e-06  t[s]: 111489.85
	FillingsUpdate:  mu: +0.099467747  nElectrons: 352.000000  magneticMoment: [ Abs: 38.48693  Tot: +0.00000 ]
	SubspaceRotationAdjust: set factor to 0.241
ElecMinimize: Iter:   8  F: -2074.176583393448709  |grad|_K:  2.538e-07  alpha:  3.443e-01  linmin:  6.835e-06  t[s]: 111561.36
	FillingsUpdate:  mu: +0.099281050  nElectrons: 352.000000  magneticMoment: [ Abs: 38.48751  Tot: -0.00000 ]
	SubspaceRotationAdjust: set factor to 0.221
ElecMinimize: Iter:   9  F: -2074.176587070527148  |grad|_K:  2.120e-07  alpha:  3.267e-01  linmin: -5.064e-06  t[s]: 111632.96
	FillingsUpdate:  mu: +0.099378642  nElectrons: 352.000000  magneticMoment: [ Abs: 38.48795  Tot: -0.00000 ]
	SubspaceRotationAdjust: set factor to 0.229
ElecMinimize: Iter:  10  F: -2074.176589657476143  |grad|_K:  1.702e-07  alpha:  3.288e-01  linmin:  1.534e-06  t[s]: 111704.46
	FillingsUpdate:  mu: +0.099389974  nElectrons: 352.000000  magneticMoment: [ Abs: 38.48826  Tot: -0.00000 ]
	SubspaceRotationAdjust: set factor to 0.255
ElecMinimize: Iter:  11  F: -2074.176591327089682  |grad|_K:  1.233e-07  alpha:  3.297e-01  linmin:  4.403e-07  t[s]: 111777.11
	FillingsUpdate:  mu: +0.099320349  nElectrons: 352.000000  magneticMoment: [ Abs: 38.48849  Tot: -0.00000 ]
	SubspaceRotationAdjust: set factor to 0.235
ElecMinimize: Iter:  12  F: -2074.176592190080555  |grad|_K:  9.685e-08  alpha:  3.248e-01  linmin: -2.827e-06  t[s]: 111848.90
	FillingsUpdate:  mu: +0.099408476  nElectrons: 352.000000  magneticMoment: [ Abs: 38.48862  Tot: -0.00000 ]
	SubspaceRotationAdjust: set factor to 0.18
ElecMinimize: Iter:  13  F: -2074.176592644697394  |grad|_K:  7.776e-08  alpha:  2.771e-01  linmin:  4.702e-06  t[s]: 111921.41
	FillingsUpdate:  mu: +0.099362232  nElectrons: 352.000000  magneticMoment: [ Abs: 38.48885  Tot: +0.00000 ]
	SubspaceRotationAdjust: set factor to 0.182
ElecMinimize: Iter:  14  F: -2074.176592965406144  |grad|_K:  5.593e-08  alpha:  3.037e-01  linmin:  7.641e-07  t[s]: 111993.03
	FillingsUpdate:  mu: +0.099359342  nElectrons: 352.000000  magneticMoment: [ Abs: 38.48901  Tot: +0.00000 ]
	SubspaceRotationAdjust: set factor to 0.219
ElecMinimize: Iter:  15  F: -2074.176593154091279  |grad|_K:  4.703e-08  alpha:  3.448e-01  linmin:  2.453e-05  t[s]: 112064.90
	FillingsUpdate:  mu: +0.099392381  nElectrons: 352.000000  magneticMoment: [ Abs: 38.48915  Tot: +0.00000 ]
	SubspaceRotationAdjust: set factor to 0.232
ElecMinimize: Iter:  16  F: -2074.176593288033473  |grad|_K:  4.188e-08  alpha:  3.470e-01  linmin: -7.816e-06  t[s]: 112135.84
ElecMinimize: Converged (|Delta F|<1.000000e-06 for 5 iters).
Setting wave functions to eigenvectors of Hamiltonian

# Ionic positions in lattice coordinates:
ion Ni   0.006256721966556  -0.009199451770318   0.164870721131550 1
ion Ni   0.502987585793589  -0.007837581569173   0.163582026115990 1
ion Ni   0.493383898714619   0.497848107268016   0.158778405838135 1
ion Ni   0.254985193848827   0.249824702418948   0.058560131652768 1
ion Ni   0.500000000000000   0.000000000000000  -0.050000000000000 0
ion Ni  -0.250000000000000   0.750000000000000  -0.150000000000000 0
ion V   0.009657070771064   0.500474306158476   0.159715956418171 1
ion V   0.254516148776471   0.761803908066426   0.057693179032926 1
ion V  -0.256057849378618   0.247916263026135   0.061568279340684 1
ion V  -0.255432605598099   0.754403172656918   0.058293297368569 1
ion V   0.000000000000000   0.000000000000000  -0.050000000000000 0
ion Cr   0.000000000000000   0.500000000000000  -0.050000000000000 0
ion Cr   0.500000000000000   0.500000000000000  -0.050000000000000 0
ion Cr   0.250000000000000   0.250000000000000  -0.150000000000000 0
ion Co   0.250000000000000   0.750000000000000  -0.150000000000000 0
ion Co  -0.250000000000000   0.250000000000000  -0.150000000000000 0
ion O   0.242228348201194   0.260700208570822   0.151880254645493 1
ion O   0.241877366113616   0.736064236093446   0.155213436764799 1
ion O  -0.256886262935730   0.262622952778735   0.150659195915869 1
ion O  -0.240570000027123   0.731613434044244   0.155731309765015 1
ion O  -0.010961672339203   0.022489625558113   0.054674480334685 1
ion O   0.499578588016964   0.011770729532682   0.043675065203668 1
ion O   0.003120789929260   0.494125421692767   0.057753502080975 1
ion O   0.504941139886245   0.489033676891856   0.042612102113376 1
ion O   0.250000000000000   0.250000000000000  -0.050000000000000 0
ion O   0.250000000000000   0.750000000000000  -0.050000000000000 0
ion O  -0.250000000000000   0.250000000000000  -0.050000000000000 0
ion O  -0.250000000000000   0.750000000000000  -0.050000000000000 0
ion O   0.000000000000000   0.000000000000000  -0.150000000000000 0
ion O   0.500000000000000   0.000000000000000  -0.150000000000000 0
ion O   0.000000000000000   0.500000000000000  -0.150000000000000 0
ion O   0.500000000000000   0.500000000000000  -0.150000000000000 0
ion O  -0.010814912953544   0.012245228520907   0.251527446690148 1
ion H   0.134510521753427   0.039625360631712   0.268564769507772 1

# Forces in Lattice coordinates:
force Ni  -0.000150514532894  -0.002302548156023  -0.056764140314383 1
force Ni  -0.002390775520751  -0.001445759379978  -0.012381248081612 1
force Ni   0.001297179265749  -0.001465364655337  -0.027937354476640 1
force Ni  -0.002875349895250  -0.001166000956824  -0.029716363539512 1
force Ni   0.011075502945825   0.024128229995177  -0.342233017907549 0
force Ni   0.019807312988837   0.005021895240307  -0.351684073929208 0
force V  -0.004509291803775  -0.012085154241306   0.012376340642191 1
force V   0.000941227637284  -0.000838401702800  -0.013571931029627 1
force V  -0.006324792116234  -0.000128283974530  -0.007236711895031 1
force V   0.005122533887251   0.000377555039676  -0.026932458651972 1
force V  -0.029405644409535   0.010399851208138   0.225159349194917 0
force Cr  -0.027788022360044   0.005552784873329  -0.057427247498607 0
force Cr   0.016268396409063  -0.023483001123061  -0.524152750123868 0
force Cr   0.048961615865875  -0.090260701866892  -1.805546270099302 0
force Co   0.054727815435009   0.083251659363790  -0.678770873856937 0
force Co  -0.033413461081659  -0.111617562231489  -0.657046554677382 0
force O   0.001065005849462  -0.003444722937255   0.016141840868757 1
force O  -0.000513297143556  -0.002326339410423   0.019447713011322 1
force O   0.004185631492349  -0.001192241744241   0.006566043521381 1
force O  -0.004646595613757  -0.003917298510389  -0.026667649225416 1
force O   0.001374088778532  -0.006837076048752  -0.008920601653235 1
force O  -0.000024985272604  -0.001515611321093   0.005639427144370 1
force O  -0.006273640861718   0.001789824573579   0.029157832894752 1
force O   0.001332811401269   0.000483763094203  -0.031064070872995 1
force O   0.096040866174801   0.218554395398816   1.253227227441382 0
force O   0.112789831873902  -0.213902797796156   0.405544933647590 0
force O  -0.107843606749847   0.221732851464340   0.463286318118025 0
force O  -0.126576632375156  -0.193854265247203   0.814149247606407 0
force O   0.028956348405657   0.019750120473511   0.045746681691663 0
force O  -0.013692398846245   0.006146845600674   0.390264282083054 0
force O  -0.017349874313775   0.032006700795909   0.335298616758086 0
force O  -0.009912415248434   0.017394272261169   0.456121944916314 0
force O   0.011271017198091   0.005968457317747   0.036756275221738 1
force H  -0.008978640682402  -0.014175653618573  -0.034381580096450 1

# Energy components:
   Eewald =     5225.3139154530445012
       EH =     7090.0309246190317936
     Eloc =   -14534.3784408975079714
      Enl =     -555.2539329200058091
   Epulay =       -0.0004863088831595
      Exc =     -251.0048883347405990
       KE =      949.6685258559692784
        U =        1.4484135659687294
-------------------------------------
     Etot =    -2074.1759689671225715
       TS =        0.0006243209107403
-------------------------------------
        F =    -2074.1765932880334731

IonicMinimize: Iter:  23  F: -2074.176593288033473  |grad|_K:  5.065e-04  alpha:  1.000e+00  linmin: -1.571e-02  t[s]: 112160.62
IonicMinimize: Converged (|Delta F|<1.000000e-04 for 3 iters).

#--- Lowdin population analysis ---
# oxidation-state Ni +3.710 +3.510 +3.368 +3.577 +3.477 +3.517
# magnetic-moments Ni +0.964 +0.705 -0.586 -0.984 +0.853 -0.760
# oxidation-state V +1.374 +1.009 +1.238 +1.004 +0.959
# magnetic-moments V +2.164 +2.904 -2.078 -2.899 -2.905
# oxidation-state Cr +2.918 +2.982 +2.907
# magnetic-moments Cr +3.683 +3.344 -4.013
# oxidation-state Co +1.292 +1.288
# magnetic-moments Co -2.777 +2.762
# oxidation-state O -0.673 -0.741 -0.712 -0.760 -0.848 -0.780 -0.865 -0.799 -0.798 -0.850 -0.851 -0.797 -0.943 -0.885 -0.882 -0.909 -0.704
# magnetic-moments O -0.240 +0.015 +0.082 +0.089 -0.030 +0.012 -0.128 -0.159 -0.133 -0.076 +0.005 -0.066 +0.008 +0.073 -0.156 -0.079 +0.337
# oxidation-state H +0.382
# magnetic-moments H -0.006


Dumping 'run.ionpos' ... done
Dumping 'run.lattice' ... done
Dumping 'run.Ecomponents' ... done
End date and time: Wed May  7 22:03:58 2025  (Duration: 1-7:09:27.37)
Done!
