/var/spool/slurmd/job44397/slurm_script: line 9: module: command not found
/var/spool/slurmd/job44397/slurm_script: line 10: module: command not found

*************** JDFTx 1.7.0  ***************

Start date and time: Sat May 17 12:43:51 2025
Executable /data2/jt577/jdftx_eat_withLibXC/build/jdftx with command-line: -i /data2/jt577/May_2025/Relax_Mag_litU/rel5+1_6/OH/runs/calc_/run.in
Running on hosts (process indices):  node3223 (0-8)
Divided in process groups (process indices):  0 (0)  1 (1)  2 (2)  3 (3)  4 (4)  5 (5)  6 (6)  7 (7)  8 (8)
Resource initialization completed at t[s]:      0.00
Run totals: 9 processes, 36 threads, 0 GPUs


Input parsed successfully to the following command list (including defaults):

add-mix 
add-U 	Ni d 0.235196 \
	V d 0.113923 \
	Cr d 0.128623 \
	Co d 0.121273
basis kpoint-dependent
coords-type Lattice
core-overlap-check vector
coulomb-interaction Periodic
davidson-band-ratio 1.1
dump End IonicPositions Lattice Ecomponents
dump-name run.$VAR
elec-cutoff 30
elec-eigen-algo Davidson
elec-ex-corr gga-x-rpbe gga-c-pbe
elec-smearing Fermi 0.001
electronic-minimize  \
	dirUpdateScheme      FletcherReeves \
	linminMethod         DirUpdateRecommended \
	nIterations          1000 \
	history              15 \
	knormThreshold       0 \
	energyDiffThreshold  1e-06 \
	nEnergyDiff          5 \
	alphaTstart          1 \
	alphaTmin            1e-10 \
	updateTestStepSize   yes \
	alphaTreduceFactor   0.1 \
	alphaTincreaseFactor 3 \
	nAlphaAdjustMax      3 \
	wolfeEnergy          0.0001 \
	wolfeGradient        0.9 \
	fdTest               no
exchange-regularization WignerSeitzTruncated
fluid None
fluid-ex-corr (null) lda-PZ
fluid-gummel-loop 10 1.000000e-05
fluid-minimize  \
	dirUpdateScheme      PolakRibiere \
	linminMethod         DirUpdateRecommended \
	nIterations          100 \
	history              15 \
	knormThreshold       0 \
	energyDiffThreshold  0 \
	nEnergyDiff          2 \
	alphaTstart          1 \
	alphaTmin            1e-10 \
	updateTestStepSize   yes \
	alphaTreduceFactor   0.1 \
	alphaTincreaseFactor 3 \
	nAlphaAdjustMax      3 \
	wolfeEnergy          0.0001 \
	wolfeGradient        0.9 \
	fdTest               no
fluid-solvent H2O 55.338 ScalarEOS \
	epsBulk 78.4 \
	pMol 0.92466 \
	epsInf 1.77 \
	Pvap 1.06736e-10 \
	sigmaBulk 4.62e-05 \
	Rvdw 2.61727 \
	Res 1.42 \
	tauNuc 343133 \
	poleEl 15 7 1
forces-output-coords Positions
initial-magnetic-moments  \
	Ni 1 -1 -1 1 1 1 \
	V 1 1 -1 -1 -1 \
	Cr -1 1 -1 \
	Co -1 1
initial-state run.$VAR
ion Ni  0.000000000000000   0.000000000000000   0.150000000000000 1
ion Ni  0.500000000000000   0.000000000000000   0.150000000000000 1
ion Ni  0.500000000000000   0.500000000000000   0.150000000000000 1
ion Ni  0.250000000000000   0.250000000000000   0.050000000000000 1
ion Ni  0.500000000000000   0.000000000000000  -0.050000000000000 0
ion Ni -0.250000000000000   0.750000000000000  -0.150000000000000 0
ion V  0.000000000000000   0.500000000000000   0.150000000000000 1
ion V  0.250000000000000   0.750000000000000   0.050000000000000 1
ion V -0.250000000000000   0.250000000000000   0.050000000000000 1
ion V -0.250000000000000   0.750000000000000   0.050000000000000 1
ion V  0.000000000000000   0.000000000000000  -0.050000000000000 0
ion Cr  0.000000000000000   0.500000000000000  -0.050000000000000 0
ion Cr  0.500000000000000   0.500000000000000  -0.050000000000000 0
ion Cr  0.250000000000000   0.250000000000000  -0.150000000000000 0
ion Co  0.250000000000000   0.750000000000000  -0.150000000000000 0
ion Co -0.250000000000000   0.250000000000000  -0.150000000000000 0
ion O  0.250000000000000   0.250000000000000   0.150000000000000 1
ion O  0.250000000000000   0.750000000000000   0.150000000000000 1
ion O -0.250000000000000   0.250000000000000   0.150000000000000 1
ion O -0.250000000000000   0.750000000000000   0.150000000000000 1
ion O  0.000000000000000   0.000000000000000   0.050000000000000 1
ion O  0.500000000000000   0.000000000000000   0.050000000000000 1
ion O  0.000000000000000   0.500000000000000   0.050000000000000 1
ion O  0.500000000000000   0.500000000000000   0.050000000000000 1
ion O  0.250000000000000   0.250000000000000  -0.050000000000000 0
ion O  0.250000000000000   0.750000000000000  -0.050000000000000 0
ion O -0.250000000000000   0.250000000000000  -0.050000000000000 0
ion O -0.250000000000000   0.750000000000000  -0.050000000000000 0
ion O  0.000000000000000   0.000000000000000  -0.150000000000000 0
ion O  0.500000000000000   0.000000000000000  -0.150000000000000 0
ion O  0.000000000000000   0.500000000000000  -0.150000000000000 0
ion O  0.500000000000000   0.500000000000000  -0.150000000000000 0
ion O -0.008040138212305  -0.008269777577920   0.235000196603227 1
ion H  0.095742872057713   0.094897636790041   0.252810710255288 1
ion-species SG15/$ID_ONCV_PBE.upf
ion-width 0
ionic-minimize  \
	dirUpdateScheme      L-BFGS \
	linminMethod         DirUpdateRecommended \
	nIterations          1000 \
	history              15 \
	knormThreshold       0.0001 \
	energyDiffThreshold  0.0001 \
	nEnergyDiff          3 \
	alphaTstart          1 \
	alphaTmin            1e-10 \
	updateTestStepSize   yes \
	alphaTreduceFactor   0.1 \
	alphaTincreaseFactor 3 \
	nAlphaAdjustMax      3 \
	wolfeEnergy          0.0001 \
	wolfeGradient        0.9 \
	fdTest               no
kpoint   0.500000000000   0.500000000000   0.500000000000  1.00000000000000
kpoint-folding 3 3 1 
latt-move-scale 1 1 1
latt-scale 1 1 1 
lattice  \
	   8.140000000000001    8.140000000000001    0.000000000000000  \
	   8.140000000000001   -8.140000000000001    0.000000000000000  \
	   0.000000000000000    0.000000000000000   40.700000000000003 
lattice-minimize  \
	dirUpdateScheme      L-BFGS \
	linminMethod         DirUpdateRecommended \
	nIterations          0 \
	history              15 \
	knormThreshold       0 \
	energyDiffThreshold  1e-06 \
	nEnergyDiff          2 \
	alphaTstart          1 \
	alphaTmin            1e-10 \
	updateTestStepSize   yes \
	alphaTreduceFactor   0.1 \
	alphaTincreaseFactor 3 \
	nAlphaAdjustMax      3 \
	wolfeEnergy          0.0001 \
	wolfeGradient        0.9 \
	fdTest               no
lcao-params -1 1e-06 0.001
pcm-variant GLSSA13
spintype z-spin
subspace-rotation-factor 1 yes
symmetries none
symmetry-threshold 0.0001


Applied RMS atom displacement 0 bohrs to make symmetries exact.

---------- Initializing the Grid ----------
R = 
[         8.14         8.14            0  ]
[         8.14        -8.14            0  ]
[            0            0         40.7  ]
unit cell volume = 5393.53
G =
[   0.385945   0.385945         -0  ]
[   0.385945  -0.385945         -0  ]
[         -0         -0   0.154378  ]
Minimum fftbox size, Smin = [  60  60  204  ]
Chosen fftbox size, S = [  60  60  210  ]

---------- Exchange Correlation functional ----------
Initialized LibXC exchange functional 'Hammer, Hansen, and Norskov'
Initialized LibXC correlation functional 'Perdew, Burke & Ernzerhof'

---------- Setting up pseudopotentials ----------
Width of ionic core gaussian charges (only for fluid interactions / plotting) set to 0

Reading pseudopotential file '/data2/jt577/jdftx_eat_withLibXC/build/pseudopotentials/SG15/Ni_ONCV_PBE.upf':
  'Ni' pseudopotential, 'PBE' functional
  Generated using ONCVPSP code by D. R. Hamann
  Author: Martin Schlipf and Francois Gygi  Date: 150915.
  18 valence electrons, 4 orbitals, 6 projectors, 1292 radial grid points, with lMax = 2
  Transforming local potential to a uniform radial grid of dG=0.02 with 1419 points.
  Transforming nonlocal projectors to a uniform radial grid of dG=0.02 with 528 points.
    3S    l: 0   occupation:  2.0   eigenvalue: -4.081355
    3P    l: 1   occupation:  6.0   eigenvalue: -2.623460
    4S    l: 0   occupation:  2.0   eigenvalue: -0.207378
    3D    l: 2   occupation:  8.0   eigenvalue: -0.326118
  Transforming atomic orbitals to a uniform radial grid of dG=0.02 with 528 points.
  WARNING: large normalization error in atomic orbital 1s (integral: 0.000006).
  Core radius for overlap checks: 1.99 bohrs.
  Reading pulay file /data2/jt577/jdftx_eat_withLibXC/build/pseudopotentials/SG15/Ni_ONCV_PBE.pulay ... using dE_dnG = -7.250568e-04 computed for Ecut = 30.

Reading pseudopotential file '/data2/jt577/jdftx_eat_withLibXC/build/pseudopotentials/SG15/V_ONCV_PBE.upf':
  'V' pseudopotential, 'PBE' functional
  Generated using ONCVPSP code by D. R. Hamann
  Author: Martin Schlipf and Francois Gygi  Date: 150915.
  13 valence electrons, 4 orbitals, 6 projectors, 1536 radial grid points, with lMax = 2
  Transforming local potential to a uniform radial grid of dG=0.02 with 1419 points.
  Transforming nonlocal projectors to a uniform radial grid of dG=0.02 with 528 points.
    3S    l: 0   occupation:  2.0   eigenvalue: -2.581105
    3P    l: 1   occupation:  6.0   eigenvalue: -1.618486
    4S    l: 0   occupation:  2.0   eigenvalue: -0.172804
    3D    l: 2   occupation:  3.0   eigenvalue: -0.189795
  Transforming atomic orbitals to a uniform radial grid of dG=0.02 with 528 points.
  Core radius for overlap checks: 1.80 bohrs.
  Reading pulay file /data2/jt577/jdftx_eat_withLibXC/build/pseudopotentials/SG15/V_ONCV_PBE.pulay ... using dE_dnG = -1.698632e-04 computed for Ecut = 30.

Reading pseudopotential file '/data2/jt577/jdftx_eat_withLibXC/build/pseudopotentials/SG15/Cr_ONCV_PBE.upf':
  'Cr' pseudopotential, 'PBE' functional
  Generated using ONCVPSP code by D. R. Hamann
  Author: Martin Schlipf and Francois Gygi  Date: 150915.
  14 valence electrons, 4 orbitals, 6 projectors, 1160 radial grid points, with lMax = 2
  Transforming local potential to a uniform radial grid of dG=0.02 with 1419 points.
  Transforming nonlocal projectors to a uniform radial grid of dG=0.02 with 528 points.
    3S    l: 0   occupation:  2.0   eigenvalue: -2.865131
    3P    l: 1   occupation:  6.0   eigenvalue: -1.810600
    4S    l: 0   occupation:  2.0   eigenvalue: -0.180525
    3D    l: 2   occupation:  4.0   eigenvalue: -0.220312
  Transforming atomic orbitals to a uniform radial grid of dG=0.02 with 528 points.
  WARNING: large normalization error in atomic orbital 1s (integral: 0.000001).
  Core radius for overlap checks: 2.10 bohrs.
  Reading pulay file /data2/jt577/jdftx_eat_withLibXC/build/pseudopotentials/SG15/Cr_ONCV_PBE.pulay ... using dE_dnG = -9.817895e-06 computed for Ecut = 30.

Reading pseudopotential file '/data2/jt577/jdftx_eat_withLibXC/build/pseudopotentials/SG15/Co_ONCV_PBE.upf':
  'Co' pseudopotential, 'PBE' functional
  Generated using ONCVPSP code by D. R. Hamann
  Author: Martin Schlipf and Francois Gygi  Date: 150915.
  17 valence electrons, 4 orbitals, 6 projectors, 1388 radial grid points, with lMax = 2
  Transforming local potential to a uniform radial grid of dG=0.02 with 1419 points.
  Transforming nonlocal projectors to a uniform radial grid of dG=0.02 with 528 points.
    3S    l: 0   occupation:  2.0   eigenvalue: -3.763303
    3P    l: 1   occupation:  6.0   eigenvalue: -2.412101
    4S    l: 0   occupation:  2.0   eigenvalue: -0.201022
    3D    l: 2   occupation:  7.0   eigenvalue: -0.301498
  Transforming atomic orbitals to a uniform radial grid of dG=0.02 with 528 points.
  Core radius for overlap checks: 1.94 bohrs.
  Reading pulay file /data2/jt577/jdftx_eat_withLibXC/build/pseudopotentials/SG15/Co_ONCV_PBE.pulay ... using dE_dnG = -9.787391e-05 computed for Ecut = 30.

Reading pseudopotential file '/data2/jt577/jdftx_eat_withLibXC/build/pseudopotentials/SG15/O_ONCV_PBE.upf':
  'O' pseudopotential, 'PBE' functional
  Generated using ONCVPSP code by D. R. Hamann
  Author: Martin Schlipf and Francois Gygi  Date: 150915.
  6 valence electrons, 2 orbitals, 4 projectors, 936 radial grid points, with lMax = 1
  Transforming local potential to a uniform radial grid of dG=0.02 with 1419 points.
  Transforming nonlocal projectors to a uniform radial grid of dG=0.02 with 528 points.
    2S    l: 0   occupation:  2.0   eigenvalue: -0.880572
    2P    l: 1   occupation:  4.0   eigenvalue: -0.331869
  Transforming atomic orbitals to a uniform radial grid of dG=0.02 with 528 points.
  Core radius for overlap checks: 1.29 bohrs.
  Reading pulay file /data2/jt577/jdftx_eat_withLibXC/build/pseudopotentials/SG15/O_ONCV_PBE.pulay ... using dE_dnG = -8.209514e-03 computed for Ecut = 30.

Reading pseudopotential file '/data2/jt577/jdftx_eat_withLibXC/build/pseudopotentials/SG15/H_ONCV_PBE.upf':
  'H' pseudopotential, 'PBE' functional
  Generated using ONCVPSP code by D. R. Hamann
  Author: Martin Schlipf and Francois Gygi  Date: 150915.
  1 valence electrons, 1 orbitals, 2 projectors, 1166 radial grid points, with lMax = 0
  Transforming local potential to a uniform radial grid of dG=0.02 with 1419 points.
  Transforming nonlocal projectors to a uniform radial grid of dG=0.02 with 528 points.
    1S    l: 0   occupation:  1.0   eigenvalue: -0.238602
  Transforming atomic orbitals to a uniform radial grid of dG=0.02 with 528 points.
  Core radius for overlap checks: 1.01 bohrs.
  Reading pulay file /data2/jt577/jdftx_eat_withLibXC/build/pseudopotentials/SG15/H_ONCV_PBE.pulay ... using dE_dnG = -8.245991e-05 computed for Ecut = 30.

Initialized 6 species with 34 total atoms.

Folded 1 k-points by 3x3x1 to 9 k-points.

---------- Setting up k-points, bands, fillings ----------
No reducable k-points. 
Computing the number of bands and number of electrons
Calculating initial fillings.
nElectrons: 352.000000   nBands: 229   nStates: 18

----- Setting up reduced wavefunction bases (one per k-point) -----
average nbasis = 42312.000 , ideal nbasis = 42330.081

---------- Setting up ewald sum ----------
Optimum gaussian width for ewald sums = 3.887061 bohr.
Real space sum over 605 unit cells with max indices [  5  5  2  ]
Reciprocal space sum over 5915 terms with max indices [  6  6  17  ]

---------- Allocating electronic variables ----------
Initializing wave functions:  linear combination of atomic orbitals
Ni (M=1) pseudo-atom majority spin occupations:   s ( 1 0.5 )  p ( 3 )  d ( 5 )
Ni (M=1) pseudo-atom minority spin occupations:   s ( 1 0 )  p ( 3 )  d ( 4.5 )
V (M=1) pseudo-atom majority spin occupations:   s ( 1 0 )  p ( 3 )  d ( 3 )
V (M=1) pseudo-atom minority spin occupations:   s ( 1 0 )  p ( 3 )  d ( 2 )
Cr (M=1) pseudo-atom majority spin occupations:   s ( 1 0 )  p ( 3 )  d ( 3.5 )
Cr (M=1) pseudo-atom minority spin occupations:   s ( 1 0 )  p ( 3 )  d ( 2.5 )
Co (M=1) pseudo-atom majority spin occupations:   s ( 1 0 )  p ( 3 )  d ( 5 )
Co (M=1) pseudo-atom minority spin occupations:   s ( 1 0 )  p ( 3 )  d ( 4 )
O pseudo-atom occupations:   s ( 2 )  p ( 4 )
H pseudo-atom occupations:   s ( 1 )
	FillingsUpdate:  mu: +0.613147392  nElectrons: 352.000000  magneticMoment: [ Abs: 0.20255  Tot: -0.00000 ]
LCAOMinimize: Iter:   0  F: -1919.7182818789528937  |grad|_K:  6.182e-03  alpha:  1.000e+00
	FillingsUpdate:  mu: +0.536105522  nElectrons: 352.000000  magneticMoment: [ Abs: 0.30108  Tot: -0.00000 ]
LCAOMinimize: Iter:   1  F: -1924.8354888742987896  |grad|_K:  8.768e-03  alpha:  9.901e-02  linmin: -1.320e-01  cgtest:  5.806e-01  t[s]:     87.61
	FillingsUpdate:  mu: +0.479046832  nElectrons: 352.000000  magneticMoment: [ Abs: 0.40891  Tot: -0.00000 ]
LCAOMinimize: Iter:   2  F: -1927.6233367174495470  |grad|_K:  1.189e-02  alpha:  1.149e-02  linmin: -1.415e-01  cgtest:  6.846e-01  t[s]:    118.18
LCAOMinimize: 	Wrong curvature in test step, increasing alphaT to 3.446532e-02.
	FillingsUpdate:  mu: +1.227137183  nElectrons: 352.000000  magneticMoment: [ Abs: 2.21956  Tot: -0.00000 ]
LCAOMinimize: Iter:   3  F: -1938.4075215464499706  |grad|_K:  5.698e-02  alpha: -5.372e-03  linmin:  1.327e-01  cgtest: -4.590e-02  t[s]:    145.91
LCAOMinimize: 	Bad step direction: g.d > 0.
LCAOMinimize: 	Undoing step.
LCAOMinimize: 	Step failed: resetting search direction.
	FillingsUpdate:  mu: +1.227137183  nElectrons: 352.000000  magneticMoment: [ Abs: 2.21956  Tot: -0.00000 ]
LCAOMinimize: Iter:   4  F: -1938.4075215464499706  |grad|_K:  5.698e-02  alpha:  0.000e+00
LCAOMinimize: 	Step increased F by 6.611263e+02, reducing alpha to 3.963006e-02.
	FillingsUpdate:  mu: +0.362039294  nElectrons: 352.000000  magneticMoment: [ Abs: 2.84537  Tot: -0.00000 ]
LCAOMinimize: Iter:   5  F: -1942.0706607962854378  |grad|_K:  3.767e-02  alpha:  3.963e-02  linmin:  3.564e-02  cgtest: -1.154e+00  t[s]:    221.09
	FillingsUpdate:  mu: +0.321011109  nElectrons: 352.000000  magneticMoment: [ Abs: 4.96088  Tot: -0.00000 ]
LCAOMinimize: Iter:   6  F: -1956.7832196322779055  |grad|_K:  2.145e-02  alpha:  4.155e-02  linmin:  5.461e-02  cgtest:  5.196e-01  t[s]:    251.99
	FillingsUpdate:  mu: -0.210593446  nElectrons: 352.000000  magneticMoment: [ Abs: 3.26218  Tot: +0.00000 ]
LCAOMinimize: Iter:   7  F: -1962.6755421889499758  |grad|_K:  9.266e-03  alpha:  3.164e-02  linmin: -4.244e-02  cgtest: -3.394e-01  t[s]:    281.97
LCAOMinimize: 	Wrong curvature in test step, increasing alphaT to 9.492369e-02.
	FillingsUpdate:  mu: -0.224313908  nElectrons: 352.000000  magneticMoment: [ Abs: 4.59497  Tot: -0.00000 ]
LCAOMinimize: Iter:   8  F: -1966.0461980923773808  |grad|_K:  1.014e-02  alpha: -2.482e-01  linmin: -5.779e-02  cgtest:  5.955e-01  t[s]:    310.65
LCAOMinimize: 	Step increased F by 9.097483e+01, reducing alpha to 1.256356e-02.
	FillingsUpdate:  mu: -0.220785679  nElectrons: 352.000000  magneticMoment: [ Abs: 5.52901  Tot: -0.00000 ]
LCAOMinimize: Iter:   9  F: -1967.6698734916399189  |grad|_K:  7.130e-03  alpha:  1.256e-02  linmin: -1.352e-01  cgtest:  8.002e-01  t[s]:    363.58
LCAOMinimize: Encountered beta<0, resetting CG.
LCAOMinimize: 	Wrong curvature in test step, increasing alphaT to 3.769068e-02.
	FillingsUpdate:  mu: -0.180903847  nElectrons: 352.000000  magneticMoment: [ Abs: 5.73301  Tot: +0.00000 ]
LCAOMinimize: Iter:  10  F: -1968.3183530520670956  |grad|_K:  7.470e-03  alpha: -9.471e-02  linmin: -1.430e-01  cgtest:  7.935e-01  t[s]:    392.05
LCAOMinimize: 	Step increased F by 2.419228e+01, reducing alpha to 1.133968e-02.
	FillingsUpdate:  mu: +0.097917068  nElectrons: 352.000000  magneticMoment: [ Abs: 5.58896  Tot: -0.00000 ]
LCAOMinimize: Iter:  11  F: -1969.0366743326610504  |grad|_K:  8.933e-03  alpha:  1.134e-02  linmin:  3.765e-02  cgtest:  1.620e-01  t[s]:    444.56
LCAOMinimize: 	Wrong curvature in test step, increasing alphaT to 3.401904e-02.
	FillingsUpdate:  mu: +0.226743766  nElectrons: 352.000000  magneticMoment: [ Abs: 6.40666  Tot: -0.00000 ]
LCAOMinimize: Iter:  12  F: -1969.4350172303379622  |grad|_K:  6.726e-03  alpha: -1.796e-02  linmin: -2.752e-02  cgtest:  1.365e+00  t[s]:    473.83
LCAOMinimize: Encountered beta<0, resetting CG.
LCAOMinimize: 	Step increased F by 6.585216e+00, reducing alpha to 7.818035e-03.
	FillingsUpdate:  mu: +0.138550631  nElectrons: 352.000000  magneticMoment: [ Abs: 6.81185  Tot: -0.00000 ]
LCAOMinimize: Iter:  13  F: -1969.7630198232695875  |grad|_K:  5.618e-03  alpha:  7.818e-03  linmin: -1.461e-01  cgtest:  6.840e-01  t[s]:    527.02
LCAOMinimize: 	Predicted alpha/alphaT>3.000000, increasing alphaT to 2.345410e-02.
	FillingsUpdate:  mu: +0.060626973  nElectrons: 352.000000  magneticMoment: [ Abs: 7.29614  Tot: +0.00000 ]
LCAOMinimize: Iter:  14  F: -1970.0189886831624335  |grad|_K:  4.167e-03  alpha:  9.413e-03  linmin: -5.301e-03  cgtest:  2.367e-01  t[s]:    567.09
	FillingsUpdate:  mu: -0.050292936  nElectrons: 352.000000  magneticMoment: [ Abs: 7.03445  Tot: +0.00000 ]
LCAOMinimize: Iter:  15  F: -1970.2019614218709194  |grad|_K:  4.633e-03  alpha:  2.100e-02  linmin: -2.434e-03  cgtest:  4.981e-01  t[s]:    598.17
	FillingsUpdate:  mu: +0.007137779  nElectrons: 352.000000  magneticMoment: [ Abs: 7.10149  Tot: -0.00000 ]
LCAOMinimize: Iter:  16  F: -1970.3383477108463921  |grad|_K:  3.669e-03  alpha:  1.341e-02  linmin:  1.078e-03  cgtest: -8.387e-02  t[s]:    628.85
	FillingsUpdate:  mu: +0.056242639  nElectrons: 352.000000  magneticMoment: [ Abs: 8.25312  Tot: +0.00000 ]
LCAOMinimize: Iter:  17  F: -1970.4876483101145368  |grad|_K:  2.654e-03  alpha:  2.877e-02  linmin:  1.660e-02  cgtest: -1.908e-01  t[s]:    659.88
	FillingsUpdate:  mu: +0.025608066  nElectrons: 352.000000  magneticMoment: [ Abs: 8.58279  Tot: -0.00000 ]
LCAOMinimize: Iter:  18  F: -1970.5418792147581826  |grad|_K:  2.581e-03  alpha:  2.827e-02  linmin: -2.614e-04  cgtest:  8.466e-01  t[s]:    690.93
	FillingsUpdate:  mu: +0.036236193  nElectrons: 352.000000  magneticMoment: [ Abs: 8.33493  Tot: -0.00000 ]
LCAOMinimize: Iter:  19  F: -1970.6074317198949757  |grad|_K:  1.954e-03  alpha:  2.158e-02  linmin: -2.330e-03  cgtest: -1.102e-02  t[s]:    722.09
	FillingsUpdate:  mu: +0.011750127  nElectrons: 352.000000  magneticMoment: [ Abs: 8.51441  Tot: +0.00000 ]
LCAOMinimize: Iter:  20  F: -1970.6602878232563398  |grad|_K:  9.834e-04  alpha:  2.753e-02  linmin: -6.057e-03  cgtest:  1.246e-02  t[s]:    752.89
	FillingsUpdate:  mu: +0.027623389  nElectrons: 352.000000  magneticMoment: [ Abs: 8.83099  Tot: -0.00000 ]
LCAOMinimize: Iter:  21  F: -1970.6830730160804706  |grad|_K:  6.076e-04  alpha:  4.122e-02  linmin: -1.552e-02  cgtest:  5.610e-01  t[s]:    785.04
LCAOMinimize: 	Predicted alpha/alphaT>3.000000, increasing alphaT to 1.236476e-01.
	FillingsUpdate:  mu: +0.022598901  nElectrons: 352.000000  magneticMoment: [ Abs: 9.38143  Tot: -0.00000 ]
LCAOMinimize: Iter:  22  F: -1970.7082485417224689  |grad|_K:  8.018e-04  alpha:  1.389e-01  linmin: -5.499e-04  cgtest:  7.991e-02  t[s]:    826.77
	FillingsUpdate:  mu: +0.035435043  nElectrons: 352.000000  magneticMoment: [ Abs: 10.25132  Tot: +0.00000 ]
LCAOMinimize: Iter:  23  F: -1970.7300650944623612  |grad|_K:  1.352e-03  alpha:  7.220e-02  linmin:  8.289e-05  cgtest:  2.946e-02  t[s]:    858.50
	FillingsUpdate:  mu: +0.054572169  nElectrons: 352.000000  magneticMoment: [ Abs: 11.17992  Tot: +0.00000 ]
LCAOMinimize: Iter:  24  F: -1970.7683576602853464  |grad|_K:  9.183e-04  alpha:  4.521e-02  linmin: -3.000e-04  cgtest:  3.030e-01  t[s]:    890.19
	FillingsUpdate:  mu: +0.034978177  nElectrons: 352.000000  magneticMoment: [ Abs: 11.31063  Tot: +0.00000 ]
LCAOMinimize: Iter:  25  F: -1970.7900067442237741  |grad|_K:  4.210e-04  alpha:  5.195e-02  linmin: -5.341e-03  cgtest:  3.525e-02  t[s]:    922.00
	FillingsUpdate:  mu: +0.040222887  nElectrons: 352.000000  magneticMoment: [ Abs: 11.92149  Tot: -0.00000 ]
LCAOMinimize: Iter:  26  F: -1970.8040651965236520  |grad|_K:  4.675e-04  alpha:  1.375e-01  linmin: -4.523e-03  cgtest:  4.990e-04  t[s]:    953.24
	FillingsUpdate:  mu: +0.043221466  nElectrons: 352.000000  magneticMoment: [ Abs: 12.16307  Tot: -0.00000 ]
LCAOMinimize: Iter:  27  F: -1970.8093828932410361  |grad|_K:  5.017e-04  alpha:  5.224e-02  linmin:  2.727e-03  cgtest: -3.614e-01  t[s]:    984.98
	FillingsUpdate:  mu: +0.037526394  nElectrons: 352.000000  magneticMoment: [ Abs: 13.69519  Tot: +0.00000 ]
LCAOMinimize: Iter:  28  F: -1970.8136446575610989  |grad|_K:  8.825e-04  alpha:  1.304e-01  linmin:  1.002e-02  cgtest: -3.419e-01  t[s]:   1016.25
LCAOMinimize: 	Bad step direction: g.d > 0.
LCAOMinimize: 	Undoing step.
LCAOMinimize: 	Step failed: resetting search direction.
	FillingsUpdate:  mu: +0.037526394  nElectrons: 352.000000  magneticMoment: [ Abs: 13.69519  Tot: +0.00000 ]
LCAOMinimize: Iter:  29  F: -1970.8136446575610989  |grad|_K:  8.825e-04  alpha:  0.000e+00
	FillingsUpdate:  mu: +0.038987917  nElectrons: 352.000000  magneticMoment: [ Abs: 13.56731  Tot: +0.00000 ]
LCAOMinimize: Iter:  30  F: -1970.8232017660866404  |grad|_K:  8.279e-04  alpha:  3.992e-02  linmin:  3.522e-02  cgtest: -3.673e-01  t[s]:   1070.32
LCAOMinimize: None of the convergence criteria satisfied after 30 iterations.


---- Citations for features of the code used in this run ----

   Software package:
      R. Sundararaman, K. Letchworth-Weaver, K.A. Schwarz, D. Gunceler, Y. Ozhabes and T.A. Arias, 'JDFTx: software for joint density-functional theory', SoftwareX 6, 278 (2017)

   Simplified rotationally-invariant DFT+U:
      S. L. Dudarev et al., Phys. Rev. B 57, 1505 (1998)

   LibXC library of exchange-correlation functions:
      M. A. L. Marques, M. J. T. Oliveira and T. Burnus, Comput. Phys. Commun. 183, 2272 (2012)

   Hammer, Hansen, and Norskov exchange functional:
      B. Hammer, L. B. Hansen, and J. K. Nørskov, Phys. Rev. B 59, 7413 (1999)

   Perdew, Burke & Ernzerhof correlation functional:
      J. P. Perdew, K. Burke, and M. Ernzerhof, Phys. Rev. Lett. 77, 3865 (1996)

   Pseudopotentials:
      M Schlipf and F Gygi, Comput. Phys. Commun. 196, 36 (2015)

   Total energy minimization with Auxiliary Hamiltonian:
      C. Freysoldt, S. Boeck, and J. Neugebauer, Phys. Rev. B 79, 241103(R) (2009)

This list may not be complete. Please suggest additional citations or
report any other bugs at https://github.com/shankar1729/jdftx/issues

Initialization completed successfully at t[s]:   1082.40


-------- Electronic minimization -----------
	FillingsUpdate:  mu: +0.038987918  nElectrons: 352.000000  magneticMoment: [ Abs: 13.56731  Tot: +0.00000 ]
ElecMinimize: Iter:   0  F: -1970.823201766084821  |grad|_K:  1.055e-03  alpha:  1.000e+00
	FillingsUpdate:  mu: +1.058741332  nElectrons: 352.000000  magneticMoment: [ Abs: 16.51757  Tot: -0.00000 ]
	SubspaceRotationAdjust: set factor to 0.798
ElecMinimize: Iter:   1  F: -2022.482574250453126  |grad|_K:  1.897e-03  alpha:  4.584e-01  linmin:  4.025e-02  t[s]:   1190.07
ElecMinimize: 	Step increased F by 6.738690e+01, reducing alpha to 9.030085e-03.
	FillingsUpdate:  mu: +0.470247367  nElectrons: 352.000000  magneticMoment: [ Abs: 15.12977  Tot: -0.00000 ]
	SubspaceRotationAdjust: set factor to 1.13
ElecMinimize: Iter:   2  F: -2028.255059682535148  |grad|_K:  8.743e-04  alpha:  9.030e-03  linmin: -4.930e-04  t[s]:   1311.39
	FillingsUpdate:  mu: +0.411546302  nElectrons: 352.000000  magneticMoment: [ Abs: 14.57136  Tot: -0.00000 ]
	SubspaceRotationAdjust: set factor to 1.22
ElecMinimize: Iter:   3  F: -2033.174825368972051  |grad|_K:  8.415e-04  alpha:  2.440e-02  linmin: -3.790e-03  t[s]:   1385.30
ElecMinimize: 	Predicted alpha/alphaT>3.000000, increasing alphaT to 7.319230e-02.
	FillingsUpdate:  mu: +0.377284415  nElectrons: 352.000000  magneticMoment: [ Abs: 16.73105  Tot: -0.00000 ]
	SubspaceRotationAdjust: set factor to 0.68
ElecMinimize: Iter:   4  F: -2049.854125462733919  |grad|_K:  1.635e-03  alpha:  8.554e-02  linmin:  1.698e-03  t[s]:   1480.52
	FillingsUpdate:  mu: +0.342516980  nElectrons: 352.000000  magneticMoment: [ Abs: 16.50725  Tot: -0.00000 ]
	SubspaceRotationAdjust: set factor to 0.404
ElecMinimize: Iter:   5  F: -2052.500795040241428  |grad|_K:  1.228e-03  alpha:  5.168e-03  linmin: -8.650e-04  t[s]:   1554.70
	FillingsUpdate:  mu: +0.138148318  nElectrons: 352.000000  magneticMoment: [ Abs: 16.08258  Tot: +0.00000 ]
	SubspaceRotationAdjust: set factor to 0.337
ElecMinimize: Iter:   6  F: -2056.806357845220191  |grad|_K:  7.594e-04  alpha:  1.462e-02  linmin:  9.994e-04  t[s]:   1628.97
	FillingsUpdate:  mu: +0.339708189  nElectrons: 352.000000  magneticMoment: [ Abs: 16.27714  Tot: +0.00000 ]
	SubspaceRotationAdjust: set factor to 0.258
ElecMinimize: Iter:   7  F: -2057.831618390786389  |grad|_K:  8.044e-04  alpha:  1.701e-02  linmin:  4.127e-04  t[s]:   1703.20
	FillingsUpdate:  mu: +0.579491665  nElectrons: 352.000000  magneticMoment: [ Abs: 16.83688  Tot: +0.00000 ]
	SubspaceRotationAdjust: set factor to 0.196
ElecMinimize: Iter:   8  F: -2058.867520170121225  |grad|_K:  7.857e-04  alpha:  1.082e-02  linmin:  3.115e-05  t[s]:   1776.63
	FillingsUpdate:  mu: +0.808667639  nElectrons: 352.000000  magneticMoment: [ Abs: 17.75550  Tot: +0.00000 ]
	SubspaceRotationAdjust: set factor to 0.158
ElecMinimize: Iter:   9  F: -2060.116706181204790  |grad|_K:  7.057e-04  alpha:  1.188e-02  linmin:  1.926e-04  t[s]:   1850.44
	FillingsUpdate:  mu: +0.889768568  nElectrons: 352.000000  magneticMoment: [ Abs: 19.26823  Tot: -0.00000 ]
	SubspaceRotationAdjust: set factor to 0.127
	SubspaceRotationAdjust: resetting CG because factor has changed by 0.126531
ElecMinimize: 	State modified externally: resetting search direction.
ElecMinimize: Iter:  10  F: -2061.315143906404046  |grad|_K:  6.169e-04  alpha:  1.581e-02
ElecMinimize: 	Predicted alpha/alphaT>3.000000, increasing alphaT to 4.744318e-02.
	FillingsUpdate:  mu: +0.248504203  nElectrons: 352.000000  magneticMoment: [ Abs: 19.24359  Tot: -0.00000 ]
	SubspaceRotationAdjust: set factor to 0.0626
ElecMinimize: Iter:  11  F: -2068.785222174307364  |grad|_K:  2.902e-04  alpha:  1.125e-01  linmin: -1.584e-03  t[s]:   2054.13
	FillingsUpdate:  mu: +0.091227251  nElectrons: 352.000000  magneticMoment: [ Abs: 18.52596  Tot: -0.00000 ]
	SubspaceRotationAdjust: set factor to 0.0342
ElecMinimize: Iter:  12  F: -2070.622824205202051  |grad|_K:  1.095e-04  alpha:  1.240e-01  linmin:  1.344e-03  t[s]:   2128.52
	FillingsUpdate:  mu: +0.139548560  nElectrons: 352.000000  magneticMoment: [ Abs: 18.49211  Tot: -0.00000 ]
	SubspaceRotationAdjust: set factor to 0.0466
ElecMinimize: Iter:  13  F: -2071.289306699610734  |grad|_K:  6.636e-05  alpha:  3.239e-01  linmin: -1.211e-03  t[s]:   2202.33
	FillingsUpdate:  mu: +0.119402184  nElectrons: 352.000000  magneticMoment: [ Abs: 18.60853  Tot: +0.00000 ]
	SubspaceRotationAdjust: set factor to 0.0484
ElecMinimize: Iter:  14  F: -2071.596267006941162  |grad|_K:  5.294e-05  alpha:  3.740e-01  linmin: -3.611e-04  t[s]:   2275.55
	FillingsUpdate:  mu: +0.100480054  nElectrons: 352.000000  magneticMoment: [ Abs: 18.66491  Tot: +0.00000 ]
	SubspaceRotationAdjust: set factor to 0.0578
ElecMinimize: Iter:  15  F: -2071.791604561301938  |grad|_K:  4.327e-05  alpha:  3.860e-01  linmin: -8.012e-04  t[s]:   2350.07
	FillingsUpdate:  mu: +0.102996028  nElectrons: 352.000000  magneticMoment: [ Abs: 18.79130  Tot: -0.00000 ]
	SubspaceRotationAdjust: set factor to 0.0695
ElecMinimize: Iter:  16  F: -2071.935973613021815  |grad|_K:  3.956e-05  alpha:  3.906e-01  linmin: -4.053e-04  t[s]:   2423.28
	FillingsUpdate:  mu: +0.117187026  nElectrons: 352.000000  magneticMoment: [ Abs: 19.09124  Tot: +0.00000 ]
	SubspaceRotationAdjust: set factor to 0.0816
ElecMinimize: Iter:  17  F: -2072.055854514284420  |grad|_K:  4.001e-05  alpha:  3.986e-01  linmin: -3.227e-04  t[s]:   2496.82
	FillingsUpdate:  mu: +0.107288520  nElectrons: 352.000000  magneticMoment: [ Abs: 19.55081  Tot: +0.00000 ]
	SubspaceRotationAdjust: set factor to 0.0951
ElecMinimize: Iter:  18  F: -2072.184414070964522  |grad|_K:  4.207e-05  alpha:  4.049e-01  linmin: -2.965e-04  t[s]:   2570.60
	FillingsUpdate:  mu: +0.116643914  nElectrons: 352.000000  magneticMoment: [ Abs: 20.51841  Tot: +0.00000 ]
	SubspaceRotationAdjust: set factor to 0.109
ElecMinimize: Iter:  19  F: -2072.363487974711916  |grad|_K:  5.058e-05  alpha:  4.886e-01  linmin: -1.946e-04  t[s]:   2644.08
	FillingsUpdate:  mu: +0.132601223  nElectrons: 352.000000  magneticMoment: [ Abs: 22.57206  Tot: +0.00000 ]
	SubspaceRotationAdjust: set factor to 0.121
ElecMinimize: Iter:  20  F: -2072.653692617715024  |grad|_K:  6.836e-05  alpha:  5.390e-01  linmin: -1.130e-04  t[s]:   2717.22
ElecMinimize: 	Step increased F by 2.822928e-01, reducing alpha to 1.510894e-03.
ElecMinimize: 	Step increased F by 3.114834e-01, reducing alpha to 1.510894e-04.
ElecMinimize: 	Step increased F by 3.144686e-01, reducing alpha to 1.510894e-05.
ElecMinimize: 	Step failed to reduce F after 3 attempts. Quitting step.
ElecMinimize: 	Undoing step.
ElecMinimize: 	Step failed: resetting search direction.
	FillingsUpdate:  mu: +0.112986200  nElectrons: 352.000000  magneticMoment: [ Abs: 22.54782  Tot: +0.00000 ]
	SubspaceRotationAdjust: set factor to 0.148
ElecMinimize: Iter:  21  F: -2072.339190775606312  |grad|_K:  7.040e-05  alpha:  1.511e-05
	FillingsUpdate:  mu: +0.096248602  nElectrons: 352.000000  magneticMoment: [ Abs: 22.86880  Tot: -0.00000 ]
	SubspaceRotationAdjust: set factor to 0.167
ElecMinimize: Iter:  22  F: -2072.615672775101302  |grad|_K:  5.288e-05  alpha:  3.288e-01  linmin: -3.068e-04  t[s]:   3010.15
	FillingsUpdate:  mu: +0.131057954  nElectrons: 352.000000  magneticMoment: [ Abs: 23.58138  Tot: -0.00000 ]
	SubspaceRotationAdjust: set factor to 0.108
ElecMinimize: Iter:  23  F: -2072.778589152432232  |grad|_K:  7.396e-05  alpha:  3.276e-01  linmin: -2.676e-04  t[s]:   3085.28
	FillingsUpdate:  mu: +0.109087368  nElectrons: 352.000000  magneticMoment: [ Abs: 24.55903  Tot: +0.00000 ]
	SubspaceRotationAdjust: set factor to 0.0875
ElecMinimize: Iter:  24  F: -2072.935204295070434  |grad|_K:  5.261e-05  alpha:  1.652e-01  linmin: -1.965e-04  t[s]:   3159.97
	FillingsUpdate:  mu: +0.094123921  nElectrons: 352.000000  magneticMoment: [ Abs: 26.18002  Tot: +0.00000 ]
	SubspaceRotationAdjust: set factor to 0.0997
ElecMinimize: Iter:  25  F: -2073.151055109625304  |grad|_K:  5.195e-05  alpha:  4.310e-01  linmin: -4.153e-05  t[s]:   3234.04
	FillingsUpdate:  mu: +0.084649776  nElectrons: 352.000000  magneticMoment: [ Abs: 27.67899  Tot: +0.00000 ]
	SubspaceRotationAdjust: set factor to 0.111
ElecMinimize: Iter:  26  F: -2073.352611922294273  |grad|_K:  5.174e-05  alpha:  4.214e-01  linmin: -7.394e-05  t[s]:   3307.14
	FillingsUpdate:  mu: +0.115110978  nElectrons: 352.000000  magneticMoment: [ Abs: 29.28838  Tot: -0.00000 ]
	SubspaceRotationAdjust: set factor to 0.117
ElecMinimize: Iter:  27  F: -2073.527010726589651  |grad|_K:  4.742e-05  alpha:  3.612e-01  linmin: -4.076e-05  t[s]:   3380.81
	FillingsUpdate:  mu: +0.130339309  nElectrons: 352.000000  magneticMoment: [ Abs: 30.43737  Tot: -0.00000 ]
	SubspaceRotationAdjust: set factor to 0.123
ElecMinimize: Iter:  28  F: -2073.720759415937209  |grad|_K:  4.876e-05  alpha:  4.869e-01  linmin:  4.433e-05  t[s]:   3454.93
	FillingsUpdate:  mu: +0.123308379  nElectrons: 352.000000  magneticMoment: [ Abs: 30.53307  Tot: -0.00000 ]
	SubspaceRotationAdjust: set factor to 0.14
ElecMinimize: Iter:  29  F: -2073.751717308501611  |grad|_K:  4.397e-05  alpha:  4.584e-02  linmin: -1.976e-03  t[s]:   3528.87
ElecMinimize: 	Predicted alpha/alphaT>3.000000, increasing alphaT to 1.375167e-01.
	FillingsUpdate:  mu: +0.113262225  nElectrons: 352.000000  magneticMoment: [ Abs: 30.83210  Tot: -0.00000 ]
	SubspaceRotationAdjust: set factor to 0.13
ElecMinimize: Iter:  30  F: -2073.858349344806356  |grad|_K:  3.601e-05  alpha:  1.734e-01  linmin:  3.151e-04  t[s]:   3622.66
	FillingsUpdate:  mu: +0.104622906  nElectrons: 352.000000  magneticMoment: [ Abs: 31.00238  Tot: +0.00000 ]
	SubspaceRotationAdjust: set factor to 0.153
ElecMinimize: Iter:  31  F: -2073.887379308945583  |grad|_K:  3.503e-05  alpha:  1.378e-01  linmin:  6.618e-05  t[s]:   3696.35
	FillingsUpdate:  mu: +0.098671143  nElectrons: 352.000000  magneticMoment: [ Abs: 31.13597  Tot: +0.00000 ]
	SubspaceRotationAdjust: set factor to 0.171
ElecMinimize: Iter:  32  F: -2073.905529387444858  |grad|_K:  2.886e-05  alpha:  8.102e-02  linmin: -8.364e-05  t[s]:   3769.47
	FillingsUpdate:  mu: +0.104728498  nElectrons: 352.000000  magneticMoment: [ Abs: 31.27336  Tot: +0.00000 ]
	SubspaceRotationAdjust: set factor to 0.219
ElecMinimize: Iter:  33  F: -2073.916410987182189  |grad|_K:  2.398e-05  alpha:  7.234e-02  linmin:  1.023e-04  t[s]:   3843.17
	FillingsUpdate:  mu: +0.107675881  nElectrons: 352.000000  magneticMoment: [ Abs: 31.39595  Tot: +0.00000 ]
	SubspaceRotationAdjust: set factor to 0.256
ElecMinimize: Iter:  34  F: -2073.922489814887285  |grad|_K:  2.125e-05  alpha:  6.147e-02  linmin:  5.383e-05  t[s]:   3916.73
	FillingsUpdate:  mu: +0.109544555  nElectrons: 352.000000  magneticMoment: [ Abs: 31.51252  Tot: +0.00000 ]
	SubspaceRotationAdjust: set factor to 0.24
ElecMinimize: Iter:  35  F: -2073.927103434908531  |grad|_K:  2.104e-05  alpha:  5.887e-02  linmin:  2.231e-05  t[s]:   3990.20
	FillingsUpdate:  mu: +0.109190475  nElectrons: 352.000000  magneticMoment: [ Abs: 31.64137  Tot: +0.00000 ]
	SubspaceRotationAdjust: set factor to 0.221
ElecMinimize: Iter:  36  F: -2073.931935126204280  |grad|_K:  2.141e-05  alpha:  6.264e-02  linmin:  2.802e-05  t[s]:   4063.43
	FillingsUpdate:  mu: +0.105380378  nElectrons: 352.000000  magneticMoment: [ Abs: 31.78040  Tot: +0.00000 ]
	SubspaceRotationAdjust: set factor to 0.249
ElecMinimize: Iter:  37  F: -2073.936817896977573  |grad|_K:  2.140e-05  alpha:  6.112e-02  linmin:  7.061e-05  t[s]:   4137.33
	FillingsUpdate:  mu: +0.099680909  nElectrons: 352.000000  magneticMoment: [ Abs: 31.95389  Tot: -0.00000 ]
	SubspaceRotationAdjust: set factor to 0.236
ElecMinimize: Iter:  38  F: -2073.941789281088859  |grad|_K:  2.422e-05  alpha:  6.286e-02  linmin:  1.127e-04  t[s]:   4210.78
	FillingsUpdate:  mu: +0.097215864  nElectrons: 352.000000  magneticMoment: [ Abs: 32.19737  Tot: -0.00000 ]
	SubspaceRotationAdjust: set factor to 0.201
ElecMinimize: Iter:  39  F: -2073.947293852987514  |grad|_K:  2.576e-05  alpha:  5.429e-02  linmin:  7.289e-05  t[s]:   4284.78
	FillingsUpdate:  mu: +0.096655272  nElectrons: 352.000000  magneticMoment: [ Abs: 32.48222  Tot: +0.00000 ]
	SubspaceRotationAdjust: set factor to 0.191
ElecMinimize: Iter:  40  F: -2073.952665331228673  |grad|_K:  2.378e-05  alpha:  4.676e-02  linmin: -1.417e-05  t[s]:   4358.82
	FillingsUpdate:  mu: +0.100774311  nElectrons: 352.000000  magneticMoment: [ Abs: 32.77802  Tot: +0.00000 ]
	SubspaceRotationAdjust: set factor to 0.216
ElecMinimize: Iter:  41  F: -2073.957670539037281  |grad|_K:  2.211e-05  alpha:  5.038e-02  linmin: -1.516e-04  t[s]:   4432.68
	FillingsUpdate:  mu: +0.106142667  nElectrons: 352.000000  magneticMoment: [ Abs: 33.10651  Tot: -0.00000 ]
	SubspaceRotationAdjust: set factor to 0.249
ElecMinimize: Iter:  42  F: -2073.963133006894623  |grad|_K:  2.256e-05  alpha:  6.188e-02  linmin: -2.311e-04  t[s]:   4505.84
	FillingsUpdate:  mu: +0.108489621  nElectrons: 352.000000  magneticMoment: [ Abs: 33.49060  Tot: -0.00000 ]
	SubspaceRotationAdjust: set factor to 0.295
ElecMinimize: Iter:  43  F: -2073.969688637660965  |grad|_K:  2.380e-05  alpha:  7.082e-02  linmin: -4.518e-05  t[s]:   4578.74
	FillingsUpdate:  mu: +0.107749263  nElectrons: 352.000000  magneticMoment: [ Abs: 33.85591  Tot: -0.00000 ]
	SubspaceRotationAdjust: set factor to 0.341
ElecMinimize: Iter:  44  F: -2073.975749174270277  |grad|_K:  2.541e-05  alpha:  6.007e-02  linmin:  6.882e-05  t[s]:   4651.94
	FillingsUpdate:  mu: +0.102431317  nElectrons: 352.000000  magneticMoment: [ Abs: 34.19573  Tot: +0.00000 ]
	SubspaceRotationAdjust: set factor to 0.331
ElecMinimize: Iter:  45  F: -2073.980908281341726  |grad|_K:  2.842e-05  alpha:  4.469e-02  linmin:  2.613e-05  t[s]:   4726.29
	FillingsUpdate:  mu: +0.097365640  nElectrons: 352.000000  magneticMoment: [ Abs: 34.53028  Tot: -0.00000 ]
	SubspaceRotationAdjust: set factor to 0.295
ElecMinimize: Iter:  46  F: -2073.985481530352899  |grad|_K:  3.108e-05  alpha:  3.106e-02  linmin: -1.706e-05  t[s]:   4799.79
	FillingsUpdate:  mu: +0.094507648  nElectrons: 352.000000  magneticMoment: [ Abs: 34.86435  Tot: +0.00000 ]
	SubspaceRotationAdjust: set factor to 0.263
ElecMinimize: Iter:  47  F: -2073.989585625593008  |grad|_K:  3.261e-05  alpha:  2.372e-02  linmin:  2.508e-05  t[s]:   4873.84
	FillingsUpdate:  mu: +0.093269163  nElectrons: 352.000000  magneticMoment: [ Abs: 35.18706  Tot: +0.00000 ]
	SubspaceRotationAdjust: set factor to 0.249
ElecMinimize: Iter:  48  F: -2073.993293616800656  |grad|_K:  3.321e-05  alpha:  1.995e-02  linmin:  1.570e-05  t[s]:   4948.09
	FillingsUpdate:  mu: +0.090967685  nElectrons: 352.000000  magneticMoment: [ Abs: 35.49533  Tot: +0.00000 ]
	SubspaceRotationAdjust: set factor to 0.251
ElecMinimize: Iter:  49  F: -2073.996801939203124  |grad|_K:  3.368e-05  alpha:  1.827e-02  linmin: -7.196e-06  t[s]:   5022.73
	FillingsUpdate:  mu: +0.090154682  nElectrons: 352.000000  magneticMoment: [ Abs: 35.80044  Tot: -0.00000 ]
	SubspaceRotationAdjust: set factor to 0.256
ElecMinimize: Iter:  50  F: -2074.000372798195258  |grad|_K:  3.461e-05  alpha:  1.797e-02  linmin: -5.642e-05  t[s]:   5096.35
	FillingsUpdate:  mu: +0.095087795  nElectrons: 352.000000  magneticMoment: [ Abs: 36.13338  Tot: +0.00000 ]
	SubspaceRotationAdjust: set factor to 0.255
ElecMinimize: Iter:  51  F: -2074.004548410836378  |grad|_K:  3.560e-05  alpha:  1.948e-02  linmin: -1.289e-04  t[s]:   5170.24
	FillingsUpdate:  mu: +0.098250315  nElectrons: 352.000000  magneticMoment: [ Abs: 36.51486  Tot: +0.00000 ]
	SubspaceRotationAdjust: set factor to 0.261
ElecMinimize: Iter:  52  F: -2074.009876374484520  |grad|_K:  3.514e-05  alpha:  2.280e-02  linmin: -1.839e-04  t[s]:   5244.77
	FillingsUpdate:  mu: +0.097998438  nElectrons: 352.000000  magneticMoment: [ Abs: 36.90690  Tot: +0.00000 ]
	SubspaceRotationAdjust: set factor to 0.315
ElecMinimize: Iter:  53  F: -2074.016026076541948  |grad|_K:  3.245e-05  alpha:  2.661e-02  linmin: -1.686e-04  t[s]:   5318.61
	FillingsUpdate:  mu: +0.096535260  nElectrons: 352.000000  magneticMoment: [ Abs: 37.24315  Tot: -0.00000 ]
	SubspaceRotationAdjust: set factor to 0.429
ElecMinimize: Iter:  54  F: -2074.021821377958986  |grad|_K:  2.952e-05  alpha:  2.971e-02  linmin: -1.268e-04  t[s]:   5392.29
	FillingsUpdate:  mu: +0.102286619  nElectrons: 352.000000  magneticMoment: [ Abs: 37.51573  Tot: -0.00000 ]
	SubspaceRotationAdjust: set factor to 0.519
ElecMinimize: Iter:  55  F: -2074.027013749657272  |grad|_K:  2.833e-05  alpha:  3.264e-02  linmin: -9.696e-05  t[s]:   5465.76
	FillingsUpdate:  mu: +0.106399403  nElectrons: 352.000000  magneticMoment: [ Abs: 37.75215  Tot: +0.00000 ]
	SubspaceRotationAdjust: set factor to 0.619
ElecMinimize: Iter:  56  F: -2074.032279016865232  |grad|_K:  2.872e-05  alpha:  3.636e-02  linmin: -1.626e-05  t[s]:   5539.28
	FillingsUpdate:  mu: +0.115522949  nElectrons: 352.000000  magneticMoment: [ Abs: 37.93796  Tot: -0.00000 ]
	SubspaceRotationAdjust: set factor to 0.746
ElecMinimize: Iter:  57  F: -2074.037105067271568  |grad|_K:  3.098e-05  alpha:  3.309e-02  linmin:  7.236e-05  t[s]:   5613.64
	FillingsUpdate:  mu: +0.119710469  nElectrons: 352.000000  magneticMoment: [ Abs: 38.13247  Tot: +0.00000 ]
	SubspaceRotationAdjust: set factor to 0.638
ElecMinimize: Iter:  58  F: -2074.042205451784412  |grad|_K:  3.790e-05  alpha:  3.108e-02  linmin:  5.017e-05  t[s]:   5687.71
	FillingsUpdate:  mu: +0.118133622  nElectrons: 352.000000  magneticMoment: [ Abs: 38.37201  Tot: +0.00000 ]
	SubspaceRotationAdjust: set factor to 0.643
ElecMinimize: Iter:  59  F: -2074.048281522272191  |grad|_K:  3.511e-05  alpha:  2.471e-02  linmin:  4.483e-06  t[s]:   5761.50
	FillingsUpdate:  mu: +0.111019201  nElectrons: 352.000000  magneticMoment: [ Abs: 38.57367  Tot: +0.00000 ]
	SubspaceRotationAdjust: set factor to 0.895
ElecMinimize: Iter:  60  F: -2074.053390093116377  |grad|_K:  3.055e-05  alpha:  2.379e-02  linmin: -6.255e-05  t[s]:   5835.14
	FillingsUpdate:  mu: +0.104377246  nElectrons: 352.000000  magneticMoment: [ Abs: 38.76701  Tot: +0.00000 ]
	SubspaceRotationAdjust: set factor to 1.04
	SubspaceRotationAdjust: resetting CG because factor has changed by 8.18682
ElecMinimize: 	State modified externally: resetting search direction.
ElecMinimize: Iter:  61  F: -2074.058856617839410  |grad|_K:  3.355e-05  alpha:  3.210e-02
	FillingsUpdate:  mu: +0.110196907  nElectrons: 352.000000  magneticMoment: [ Abs: 38.66247  Tot: -0.00000 ]
	SubspaceRotationAdjust: set factor to 0.587
ElecMinimize: Iter:  62  F: -2074.074373131119046  |grad|_K:  5.254e-05  alpha:  7.898e-02  linmin: -1.046e-04  t[s]:   6015.31
	FillingsUpdate:  mu: +0.108141660  nElectrons: 352.000000  magneticMoment: [ Abs: 38.64187  Tot: +0.00000 ]
	SubspaceRotationAdjust: set factor to 0.451
ElecMinimize: Iter:  63  F: -2074.102289036763068  |grad|_K:  2.207e-05  alpha:  5.983e-02  linmin: -4.280e-04  t[s]:   6089.28
ElecMinimize: 	Predicted alpha/alphaT>3.000000, increasing alphaT to 1.794907e-01.
	FillingsUpdate:  mu: +0.113762958  nElectrons: 352.000000  magneticMoment: [ Abs: 38.48602  Tot: -0.00000 ]
	SubspaceRotationAdjust: set factor to 0.321
ElecMinimize: Iter:  64  F: -2074.128796315915679  |grad|_K:  2.577e-05  alpha:  3.078e-01  linmin:  3.860e-04  t[s]:   6183.97
	FillingsUpdate:  mu: +0.107111106  nElectrons: 352.000000  magneticMoment: [ Abs: 38.24181  Tot: +0.00000 ]
	SubspaceRotationAdjust: set factor to 0.278
ElecMinimize: Iter:  65  F: -2074.145185109488011  |grad|_K:  2.107e-05  alpha:  1.620e-01  linmin:  1.838e-04  t[s]:   6257.83
	FillingsUpdate:  mu: +0.107945941  nElectrons: 352.000000  magneticMoment: [ Abs: 37.99979  Tot: -0.00000 ]
	SubspaceRotationAdjust: set factor to 0.207
ElecMinimize: Iter:  66  F: -2074.153834592930252  |grad|_K:  1.315e-05  alpha:  1.148e-01  linmin: -1.670e-05  t[s]:   6331.19
	FillingsUpdate:  mu: +0.107367000  nElectrons: 352.000000  magneticMoment: [ Abs: 37.91521  Tot: -0.00000 ]
	SubspaceRotationAdjust: set factor to 0.302
ElecMinimize: Iter:  67  F: -2074.160403071980454  |grad|_K:  8.740e-06  alpha:  2.165e-01  linmin: -9.726e-05  t[s]:   6405.27
	FillingsUpdate:  mu: +0.107128035  nElectrons: 352.000000  magneticMoment: [ Abs: 37.91306  Tot: +0.00000 ]
	SubspaceRotationAdjust: set factor to 0.264
ElecMinimize: Iter:  68  F: -2074.163096715874417  |grad|_K:  6.571e-06  alpha:  2.007e-01  linmin: -6.683e-05  t[s]:   6479.29
	FillingsUpdate:  mu: +0.107918582  nElectrons: 352.000000  magneticMoment: [ Abs: 37.87171  Tot: -0.00000 ]
	SubspaceRotationAdjust: set factor to 0.211
ElecMinimize: Iter:  69  F: -2074.164371930819470  |grad|_K:  4.897e-06  alpha:  1.686e-01  linmin: -2.187e-05  t[s]:   6553.01
	FillingsUpdate:  mu: +0.106940611  nElectrons: 352.000000  magneticMoment: [ Abs: 37.84831  Tot: -0.00000 ]
	SubspaceRotationAdjust: set factor to 0.233
ElecMinimize: Iter:  70  F: -2074.165368075099195  |grad|_K:  3.641e-06  alpha:  2.369e-01  linmin: -1.747e-04  t[s]:   6626.87
	FillingsUpdate:  mu: +0.104617415  nElectrons: 352.000000  magneticMoment: [ Abs: 37.83501  Tot: -0.00000 ]
	SubspaceRotationAdjust: set factor to 0.264
ElecMinimize: Iter:  71  F: -2074.166095975942881  |grad|_K:  3.126e-06  alpha:  3.120e-01  linmin: -9.552e-05  t[s]:   6700.56
	FillingsUpdate:  mu: +0.106059555  nElectrons: 352.000000  magneticMoment: [ Abs: 37.81731  Tot: +0.00000 ]
	SubspaceRotationAdjust: set factor to 0.236
ElecMinimize: Iter:  72  F: -2074.166454772962425  |grad|_K:  2.596e-06  alpha:  2.095e-01  linmin:  1.117e-05  t[s]:   6775.79
	FillingsUpdate:  mu: +0.105307369  nElectrons: 352.000000  magneticMoment: [ Abs: 37.81023  Tot: +0.00000 ]
	SubspaceRotationAdjust: set factor to 0.26
ElecMinimize: Iter:  73  F: -2074.166758801145079  |grad|_K:  2.134e-06  alpha:  2.579e-01  linmin: -4.343e-05  t[s]:   6851.85
	FillingsUpdate:  mu: +0.105822266  nElectrons: 352.000000  magneticMoment: [ Abs: 37.79322  Tot: +0.00000 ]
	SubspaceRotationAdjust: set factor to 0.302
ElecMinimize: Iter:  74  F: -2074.167030174643969  |grad|_K:  2.002e-06  alpha:  3.399e-01  linmin:  1.506e-05  t[s]:   6926.71
	FillingsUpdate:  mu: +0.107250169  nElectrons: 352.000000  magneticMoment: [ Abs: 37.77861  Tot: +0.00000 ]
	SubspaceRotationAdjust: set factor to 0.309
ElecMinimize: Iter:  75  F: -2074.167214974144372  |grad|_K:  1.782e-06  alpha:  2.638e-01  linmin:  7.018e-06  t[s]:   7001.94
	FillingsUpdate:  mu: +0.105623903  nElectrons: 352.000000  magneticMoment: [ Abs: 37.77657  Tot: +0.00000 ]
	SubspaceRotationAdjust: set factor to 0.26
ElecMinimize: Iter:  76  F: -2074.167325637819886  |grad|_K:  1.557e-06  alpha:  1.997e-01  linmin: -1.336e-05  t[s]:   7076.84
	FillingsUpdate:  mu: +0.106304259  nElectrons: 352.000000  magneticMoment: [ Abs: 37.76296  Tot: +0.00000 ]
	SubspaceRotationAdjust: set factor to 0.263
ElecMinimize: Iter:  77  F: -2074.167424640689205  |grad|_K:  1.218e-06  alpha:  2.335e-01  linmin:  1.232e-05  t[s]:   7151.72
	FillingsUpdate:  mu: +0.106196025  nElectrons: 352.000000  magneticMoment: [ Abs: 37.75273  Tot: +0.00000 ]
	SubspaceRotationAdjust: set factor to 0.298
ElecMinimize: Iter:  78  F: -2074.167508974057910  |grad|_K:  1.086e-06  alpha:  3.257e-01  linmin:  8.830e-06  t[s]:   7225.40
	FillingsUpdate:  mu: +0.105738328  nElectrons: 352.000000  magneticMoment: [ Abs: 37.74911  Tot: +0.00000 ]
	SubspaceRotationAdjust: set factor to 0.307
ElecMinimize: Iter:  79  F: -2074.167574662509651  |grad|_K:  1.115e-06  alpha:  3.187e-01  linmin: -1.993e-05  t[s]:   7299.09
	FillingsUpdate:  mu: +0.106798330  nElectrons: 352.000000  magneticMoment: [ Abs: 37.74108  Tot: -0.00000 ]
	SubspaceRotationAdjust: set factor to 0.262
ElecMinimize: Iter:  80  F: -2074.167624366990822  |grad|_K:  1.064e-06  alpha:  2.281e-01  linmin:  6.792e-06  t[s]:   7372.95
	FillingsUpdate:  mu: +0.106202181  nElectrons: 352.000000  magneticMoment: [ Abs: 37.73849  Tot: -0.00000 ]
	SubspaceRotationAdjust: set factor to 0.259
ElecMinimize: Iter:  81  F: -2074.167672033492636  |grad|_K:  9.274e-07  alpha:  2.410e-01  linmin: -1.798e-05  t[s]:   7447.03
	FillingsUpdate:  mu: +0.106323568  nElectrons: 352.000000  magneticMoment: [ Abs: 37.73496  Tot: +0.00000 ]
	SubspaceRotationAdjust: set factor to 0.315
ElecMinimize: Iter:  82  F: -2074.167722510137537  |grad|_K:  9.038e-07  alpha:  3.355e-01  linmin:  4.099e-05  t[s]:   7521.24
	FillingsUpdate:  mu: +0.106736548  nElectrons: 352.000000  magneticMoment: [ Abs: 37.73375  Tot: -0.00000 ]
	SubspaceRotationAdjust: set factor to 0.345
ElecMinimize: Iter:  83  F: -2074.167773345156093  |grad|_K:  1.025e-06  alpha:  3.575e-01  linmin:  1.924e-05  t[s]:   7595.34
	FillingsUpdate:  mu: +0.105912359  nElectrons: 352.000000  magneticMoment: [ Abs: 37.73689  Tot: -0.00000 ]
	SubspaceRotationAdjust: set factor to 0.314
ElecMinimize: Iter:  84  F: -2074.167818869656912  |grad|_K:  1.225e-06  alpha:  2.504e-01  linmin: -1.045e-05  t[s]:   7669.16
	FillingsUpdate:  mu: +0.106979205  nElectrons: 352.000000  magneticMoment: [ Abs: 37.73002  Tot: -0.00000 ]
	SubspaceRotationAdjust: set factor to 0.283
ElecMinimize: Iter:  85  F: -2074.167892835179828  |grad|_K:  1.335e-06  alpha:  2.840e-01  linmin:  2.585e-04  t[s]:   7743.36
	FillingsUpdate:  mu: +0.106917933  nElectrons: 352.000000  magneticMoment: [ Abs: 37.72802  Tot: -0.00000 ]
	SubspaceRotationAdjust: set factor to 0.345
ElecMinimize: Iter:  86  F: -2074.167987996154807  |grad|_K:  1.424e-06  alpha:  3.211e-01  linmin:  4.681e-05  t[s]:   7816.38
	FillingsUpdate:  mu: +0.106647686  nElectrons: 352.000000  magneticMoment: [ Abs: 37.73106  Tot: +0.00000 ]
	SubspaceRotationAdjust: set factor to 0.382
ElecMinimize: Iter:  87  F: -2074.168102121638640  |grad|_K:  1.464e-06  alpha:  3.248e-01  linmin: -1.339e-04  t[s]:   7889.40
	FillingsUpdate:  mu: +0.107251103  nElectrons: 352.000000  magneticMoment: [ Abs: 37.73299  Tot: +0.00000 ]
	SubspaceRotationAdjust: set factor to 0.374
ElecMinimize: Iter:  88  F: -2074.168197472691645  |grad|_K:  1.702e-06  alpha:  2.421e-01  linmin:  4.668e-05  t[s]:   7962.44
	FillingsUpdate:  mu: +0.106973062  nElectrons: 352.000000  magneticMoment: [ Abs: 37.74650  Tot: -0.00000 ]
	SubspaceRotationAdjust: set factor to 0.404
ElecMinimize: Iter:  89  F: -2074.168297834009081  |grad|_K:  1.530e-06  alpha:  2.021e-01  linmin: -1.044e-04  t[s]:   8036.13
	FillingsUpdate:  mu: +0.107065658  nElectrons: 352.000000  magneticMoment: [ Abs: 37.76101  Tot: +0.00000 ]
	SubspaceRotationAdjust: set factor to 0.495
ElecMinimize: Iter:  90  F: -2074.168411875121819  |grad|_K:  1.504e-06  alpha:  2.749e-01  linmin:  1.453e-04  t[s]:   8110.42
	FillingsUpdate:  mu: +0.107267660  nElectrons: 352.000000  magneticMoment: [ Abs: 37.77850  Tot: +0.00000 ]
	SubspaceRotationAdjust: set factor to 0.444
ElecMinimize: Iter:  91  F: -2074.168513350228295  |grad|_K:  1.867e-06  alpha:  2.622e-01  linmin:  1.772e-04  t[s]:   8184.23
	FillingsUpdate:  mu: +0.107087450  nElectrons: 352.000000  magneticMoment: [ Abs: 37.81009  Tot: +0.00000 ]
	SubspaceRotationAdjust: set factor to 0.47
ElecMinimize: Iter:  92  F: -2074.168599031646409  |grad|_K:  1.641e-06  alpha:  1.539e-01  linmin:  5.604e-05  t[s]:   8257.78
	FillingsUpdate:  mu: +0.107738580  nElectrons: 352.000000  magneticMoment: [ Abs: 37.85818  Tot: -0.00000 ]
	SubspaceRotationAdjust: set factor to 0.523
ElecMinimize: Iter:  93  F: -2074.168710179193113  |grad|_K:  1.735e-06  alpha:  2.473e-01  linmin:  3.953e-04  t[s]:   8331.51
	FillingsUpdate:  mu: +0.107491630  nElectrons: 352.000000  magneticMoment: [ Abs: 37.92465  Tot: +0.00000 ]
	SubspaceRotationAdjust: set factor to 0.68
ElecMinimize: Iter:  94  F: -2074.168814939432195  |grad|_K:  1.711e-06  alpha:  2.188e-01  linmin: -3.890e-05  t[s]:   8405.34
	FillingsUpdate:  mu: +0.107107754  nElectrons: 352.000000  magneticMoment: [ Abs: 38.00693  Tot: +0.00000 ]
	SubspaceRotationAdjust: set factor to 0.708
ElecMinimize: Iter:  95  F: -2074.168944616516910  |grad|_K:  1.910e-06  alpha:  2.512e-01  linmin:  4.439e-05  t[s]:   8478.57
	FillingsUpdate:  mu: +0.107036195  nElectrons: 352.000000  magneticMoment: [ Abs: 38.10480  Tot: -0.00000 ]
	SubspaceRotationAdjust: set factor to 0.88
ElecMinimize: Iter:  96  F: -2074.169089243951476  |grad|_K:  2.097e-06  alpha:  2.298e-01  linmin: -3.110e-07  t[s]:   8552.45
	FillingsUpdate:  mu: +0.107086328  nElectrons: 352.000000  magneticMoment: [ Abs: 38.20800  Tot: -0.00000 ]
	SubspaceRotationAdjust: set factor to 0.835
ElecMinimize: Iter:  97  F: -2074.169254101026581  |grad|_K:  2.515e-06  alpha:  2.130e-01  linmin:  6.096e-05  t[s]:   8626.24
	FillingsUpdate:  mu: +0.106213881  nElectrons: 352.000000  magneticMoment: [ Abs: 38.28911  Tot: +0.00000 ]
	SubspaceRotationAdjust: set factor to 0.737
ElecMinimize: Iter:  98  F: -2074.169387212163656  |grad|_K:  2.836e-06  alpha:  1.228e-01  linmin: -2.945e-05  t[s]:   8699.87
	FillingsUpdate:  mu: +0.106255969  nElectrons: 352.000000  magneticMoment: [ Abs: 38.35502  Tot: +0.00000 ]
	SubspaceRotationAdjust: set factor to 0.709
ElecMinimize: Iter:  99  F: -2074.169520945765271  |grad|_K:  2.734e-06  alpha:  9.217e-02  linmin:  8.462e-06  t[s]:   8774.31
	FillingsUpdate:  mu: +0.106330654  nElectrons: 352.000000  magneticMoment: [ Abs: 38.42739  Tot: +0.00000 ]
	SubspaceRotationAdjust: set factor to 0.727
ElecMinimize: Iter: 100  F: -2074.169673122529275  |grad|_K:  2.649e-06  alpha:  1.177e-01  linmin:  6.568e-05  t[s]:   8848.00
	FillingsUpdate:  mu: +0.106134886  nElectrons: 352.000000  magneticMoment: [ Abs: 38.47896  Tot: +0.00000 ]
	SubspaceRotationAdjust: set factor to 0.677
ElecMinimize: Iter: 101  F: -2074.169795757533393  |grad|_K:  2.761e-06  alpha:  1.028e-01  linmin: -4.486e-05  t[s]:   8921.10
	FillingsUpdate:  mu: +0.106607277  nElectrons: 352.000000  magneticMoment: [ Abs: 38.51961  Tot: -0.00000 ]
	SubspaceRotationAdjust: set factor to 0.676
ElecMinimize: Iter: 102  F: -2074.169933164020676  |grad|_K:  2.618e-06  alpha:  1.017e-01  linmin:  6.296e-05  t[s]:   8994.59
	FillingsUpdate:  mu: +0.106521994  nElectrons: 352.000000  magneticMoment: [ Abs: 38.54737  Tot: -0.00000 ]
	SubspaceRotationAdjust: set factor to 0.642
ElecMinimize: Iter: 103  F: -2074.170064817419188  |grad|_K:  2.659e-06  alpha:  1.117e-01  linmin: -1.847e-05  t[s]:   9067.38
	FillingsUpdate:  mu: +0.106116490  nElectrons: 352.000000  magneticMoment: [ Abs: 38.56328  Tot: -0.00000 ]
	SubspaceRotationAdjust: set factor to 0.695
ElecMinimize: Iter: 104  F: -2074.170185480361397  |grad|_K:  2.423e-06  alpha:  9.771e-02  linmin: -5.955e-05  t[s]:   9140.53
	FillingsUpdate:  mu: +0.106275860  nElectrons: 352.000000  magneticMoment: [ Abs: 38.56755  Tot: -0.00000 ]
	SubspaceRotationAdjust: set factor to 0.697
ElecMinimize: Iter: 105  F: -2074.170319047873363  |grad|_K:  2.350e-06  alpha:  1.280e-01  linmin:  1.933e-05  t[s]:   9213.53
	FillingsUpdate:  mu: +0.106741288  nElectrons: 352.000000  magneticMoment: [ Abs: 38.56262  Tot: -0.00000 ]
	SubspaceRotationAdjust: set factor to 0.629
ElecMinimize: Iter: 106  F: -2074.170429266377141  |grad|_K:  2.478e-06  alpha:  1.145e-01  linmin:  2.582e-05  t[s]:   9286.90
	FillingsUpdate:  mu: +0.106754034  nElectrons: 352.000000  magneticMoment: [ Abs: 38.55228  Tot: -0.00000 ]
	SubspaceRotationAdjust: set factor to 0.687
ElecMinimize: Iter: 107  F: -2074.170537974950548  |grad|_K:  2.227e-06  alpha:  1.025e-01  linmin: -2.169e-05  t[s]:   9360.52
	FillingsUpdate:  mu: +0.106378648  nElectrons: 352.000000  magneticMoment: [ Abs: 38.53404  Tot: -0.00000 ]
	SubspaceRotationAdjust: set factor to 0.622
ElecMinimize: Iter: 108  F: -2074.170642277960724  |grad|_K:  2.203e-06  alpha:  1.187e-01  linmin: -3.726e-05  t[s]:   9433.82
	FillingsUpdate:  mu: +0.106371868  nElectrons: 352.000000  magneticMoment: [ Abs: 38.50886  Tot: +0.00000 ]
	SubspaceRotationAdjust: set factor to 0.595
ElecMinimize: Iter: 109  F: -2074.170734096891465  |grad|_K:  2.068e-06  alpha:  1.060e-01  linmin:  1.903e-05  t[s]:   9506.79
	FillingsUpdate:  mu: +0.106173380  nElectrons: 352.000000  magneticMoment: [ Abs: 38.47558  Tot: +0.00000 ]
	SubspaceRotationAdjust: set factor to 0.56
ElecMinimize: Iter: 110  F: -2074.170824233463918  |grad|_K:  2.072e-06  alpha:  1.218e-01  linmin:  1.388e-05  t[s]:   9580.22
	FillingsUpdate:  mu: +0.106026102  nElectrons: 352.000000  magneticMoment: [ Abs: 38.44125  Tot: -0.00000 ]
	SubspaceRotationAdjust: set factor to 0.542
ElecMinimize: Iter: 111  F: -2074.170902515359558  |grad|_K:  1.928e-06  alpha:  1.050e-01  linmin: -2.482e-05  t[s]:   9654.30
	FillingsUpdate:  mu: +0.106147629  nElectrons: 352.000000  magneticMoment: [ Abs: 38.40024  Tot: +0.00000 ]
	SubspaceRotationAdjust: set factor to 0.519
ElecMinimize: Iter: 112  F: -2074.170983382457962  |grad|_K:  1.850e-06  alpha:  1.234e-01  linmin: -2.376e-06  t[s]:   9728.33
	FillingsUpdate:  mu: +0.106380431  nElectrons: 352.000000  magneticMoment: [ Abs: 38.36051  Tot: +0.00000 ]
	SubspaceRotationAdjust: set factor to 0.492
ElecMinimize: Iter: 113  F: -2074.171053564271915  |grad|_K:  1.864e-06  alpha:  1.170e-01  linmin:  1.345e-05  t[s]:   9801.88
	FillingsUpdate:  mu: +0.106348177  nElectrons: 352.000000  magneticMoment: [ Abs: 38.31905  Tot: -0.00000 ]
	SubspaceRotationAdjust: set factor to 0.516
ElecMinimize: Iter: 114  F: -2074.171124308420985  |grad|_K:  1.745e-06  alpha:  1.169e-01  linmin: -3.040e-05  t[s]:   9875.66
	FillingsUpdate:  mu: +0.106246566  nElectrons: 352.000000  magneticMoment: [ Abs: 38.28387  Tot: -0.00000 ]
	SubspaceRotationAdjust: set factor to 0.529
ElecMinimize: Iter: 115  F: -2074.171187025880045  |grad|_K:  1.719e-06  alpha:  1.169e-01  linmin: -4.602e-05  t[s]:   9949.35
	FillingsUpdate:  mu: +0.106493711  nElectrons: 352.000000  magneticMoment: [ Abs: 38.25008  Tot: +0.00000 ]
	SubspaceRotationAdjust: set factor to 0.596
ElecMinimize: Iter: 116  F: -2074.171251197304173  |grad|_K:  1.653e-06  alpha:  1.229e-01  linmin:  1.278e-05  t[s]:  10022.64
	FillingsUpdate:  mu: +0.106754398  nElectrons: 352.000000  magneticMoment: [ Abs: 38.22176  Tot: +0.00000 ]
	SubspaceRotationAdjust: set factor to 0.553
ElecMinimize: Iter: 117  F: -2074.171307683266605  |grad|_K:  1.737e-06  alpha:  1.186e-01  linmin:  1.315e-05  t[s]:  10096.19
	FillingsUpdate:  mu: +0.106707785  nElectrons: 352.000000  magneticMoment: [ Abs: 38.19700  Tot: -0.00000 ]
	SubspaceRotationAdjust: set factor to 0.642
ElecMinimize: Iter: 118  F: -2074.171359004829810  |grad|_K:  1.526e-06  alpha:  9.782e-02  linmin: -1.684e-05  t[s]:  10169.71
	FillingsUpdate:  mu: +0.106605800  nElectrons: 352.000000  magneticMoment: [ Abs: 38.17547  Tot: -0.00000 ]
	SubspaceRotationAdjust: set factor to 0.629
ElecMinimize: Iter: 119  F: -2074.171408064856678  |grad|_K:  1.576e-06  alpha:  1.195e-01  linmin: -2.312e-05  t[s]:  10243.74
	FillingsUpdate:  mu: +0.106882991  nElectrons: 352.000000  magneticMoment: [ Abs: 38.15963  Tot: -0.00000 ]
	SubspaceRotationAdjust: set factor to 0.648
ElecMinimize: Iter: 120  F: -2074.171450577305677  |grad|_K:  1.480e-06  alpha:  9.702e-02  linmin: -3.489e-06  t[s]:  10317.39
	FillingsUpdate:  mu: +0.106989783  nElectrons: 352.000000  magneticMoment: [ Abs: 38.14795  Tot: -0.00000 ]
	SubspaceRotationAdjust: set factor to 0.682
ElecMinimize: Iter: 121  F: -2074.171494429863287  |grad|_K:  1.403e-06  alpha:  1.143e-01  linmin: -5.366e-06  t[s]:  10391.17
	FillingsUpdate:  mu: +0.106818151  nElectrons: 352.000000  magneticMoment: [ Abs: 38.14238  Tot: +0.00000 ]
	SubspaceRotationAdjust: set factor to 0.619
ElecMinimize: Iter: 122  F: -2074.171531046925338  |grad|_K:  1.462e-06  alpha:  1.061e-01  linmin: -2.810e-06  t[s]:  10464.52
	FillingsUpdate:  mu: +0.106946473  nElectrons: 352.000000  magneticMoment: [ Abs: 38.13947  Tot: -0.00000 ]
	SubspaceRotationAdjust: set factor to 0.667
ElecMinimize: Iter: 123  F: -2074.171567634061375  |grad|_K:  1.298e-06  alpha:  9.777e-02  linmin: -3.689e-06  t[s]:  10537.69
	FillingsUpdate:  mu: +0.106990971  nElectrons: 352.000000  magneticMoment: [ Abs: 38.14191  Tot: +0.00000 ]
	SubspaceRotationAdjust: set factor to 0.606
ElecMinimize: Iter: 124  F: -2074.171603524888724  |grad|_K:  1.342e-06  alpha:  1.216e-01  linmin: -8.097e-06  t[s]:  10611.28
	FillingsUpdate:  mu: +0.106929288  nElectrons: 352.000000  magneticMoment: [ Abs: 38.14973  Tot: +0.00000 ]
	SubspaceRotationAdjust: set factor to 0.582
ElecMinimize: Iter: 125  F: -2074.171634154592994  |grad|_K:  1.290e-06  alpha:  9.699e-02  linmin: -7.151e-06  t[s]:  10685.16
	FillingsUpdate:  mu: +0.107089208  nElectrons: 352.000000  magneticMoment: [ Abs: 38.16227  Tot: +0.00000 ]
	SubspaceRotationAdjust: set factor to 0.594
ElecMinimize: Iter: 126  F: -2074.171669666905473  |grad|_K:  1.240e-06  alpha:  1.218e-01  linmin: -5.999e-06  t[s]:  10758.90
	FillingsUpdate:  mu: +0.107233607  nElectrons: 352.000000  magneticMoment: [ Abs: 38.17609  Tot: +0.00000 ]
	SubspaceRotationAdjust: set factor to 0.52
ElecMinimize: Iter: 127  F: -2074.171701159255917  |grad|_K:  1.314e-06  alpha:  1.170e-01  linmin: -6.337e-06  t[s]:  10832.43
	FillingsUpdate:  mu: +0.107135096  nElectrons: 352.000000  magneticMoment: [ Abs: 38.19535  Tot: +0.00000 ]
	SubspaceRotationAdjust: set factor to 0.564
ElecMinimize: Iter: 128  F: -2074.171734574652419  |grad|_K:  1.222e-06  alpha:  1.106e-01  linmin: -1.189e-05  t[s]:  10906.05
	FillingsUpdate:  mu: +0.107010515  nElectrons: 352.000000  magneticMoment: [ Abs: 38.21823  Tot: -0.00000 ]
	SubspaceRotationAdjust: set factor to 0.537
ElecMinimize: Iter: 129  F: -2074.171770818840287  |grad|_K:  1.327e-06  alpha:  1.383e-01  linmin: -2.594e-05  t[s]:  10979.52
	FillingsUpdate:  mu: +0.107148240  nElectrons: 352.000000  magneticMoment: [ Abs: 38.23827  Tot: -0.00000 ]
	SubspaceRotationAdjust: set factor to 0.552
ElecMinimize: Iter: 130  F: -2074.171804558418899  |grad|_K:  1.309e-06  alpha:  1.079e-01  linmin:  8.506e-06  t[s]:  11053.40
	FillingsUpdate:  mu: +0.107149984  nElectrons: 352.000000  magneticMoment: [ Abs: 38.26181  Tot: -0.00000 ]
	SubspaceRotationAdjust: set factor to 0.544
ElecMinimize: Iter: 131  F: -2074.171842396063767  |grad|_K:  1.400e-06  alpha:  1.268e-01  linmin:  1.310e-05  t[s]:  11127.38
	FillingsUpdate:  mu: +0.106990372  nElectrons: 352.000000  magneticMoment: [ Abs: 38.28395  Tot: +0.00000 ]
	SubspaceRotationAdjust: set factor to 0.622
ElecMinimize: Iter: 132  F: -2074.171877198103175  |grad|_K:  1.364e-06  alpha:  1.030e-01  linmin: -3.427e-05  t[s]:  11201.63
	FillingsUpdate:  mu: +0.106920391  nElectrons: 352.000000  magneticMoment: [ Abs: 38.30620  Tot: -0.00000 ]
	SubspaceRotationAdjust: set factor to 0.688
ElecMinimize: Iter: 133  F: -2074.171919464040911  |grad|_K:  1.383e-06  alpha:  1.285e-01  linmin:  2.329e-05  t[s]:  11275.84
	FillingsUpdate:  mu: +0.106865527  nElectrons: 352.000000  magneticMoment: [ Abs: 38.32185  Tot: +0.00000 ]
	SubspaceRotationAdjust: set factor to 0.611
ElecMinimize: Iter: 134  F: -2074.171955056573097  |grad|_K:  1.579e-06  alpha:  1.061e-01  linmin:  3.185e-05  t[s]:  11349.41
	FillingsUpdate:  mu: +0.106777812  nElectrons: 352.000000  magneticMoment: [ Abs: 38.33898  Tot: +0.00000 ]
	SubspaceRotationAdjust: set factor to 0.714
ElecMinimize: Iter: 135  F: -2074.171991692951906  |grad|_K:  1.444e-06  alpha:  8.550e-02  linmin: -2.144e-05  t[s]:  11423.34
	FillingsUpdate:  mu: +0.106663509  nElectrons: 352.000000  magneticMoment: [ Abs: 38.35453  Tot: +0.00000 ]
	SubspaceRotationAdjust: set factor to 0.706
ElecMinimize: Iter: 136  F: -2074.172027854422140  |grad|_K:  1.505e-06  alpha:  9.785e-02  linmin: -6.134e-05  t[s]:  11496.71
	FillingsUpdate:  mu: +0.106837494  nElectrons: 352.000000  magneticMoment: [ Abs: 38.36500  Tot: +0.00000 ]
	SubspaceRotationAdjust: set factor to 0.74
ElecMinimize: Iter: 137  F: -2074.172063774325125  |grad|_K:  1.434e-06  alpha:  8.811e-02  linmin:  4.016e-05  t[s]:  11570.86
	FillingsUpdate:  mu: +0.106892183  nElectrons: 352.000000  magneticMoment: [ Abs: 38.37239  Tot: -0.00000 ]
	SubspaceRotationAdjust: set factor to 0.729
ElecMinimize: Iter: 138  F: -2074.172097300455334  |grad|_K:  1.482e-06  alpha:  9.464e-02  linmin:  3.713e-06  t[s]:  11644.49
	FillingsUpdate:  mu: +0.106772417  nElectrons: 352.000000  magneticMoment: [ Abs: 38.37707  Tot: -0.00000 ]
	SubspaceRotationAdjust: set factor to 0.794
ElecMinimize: Iter: 139  F: -2074.172126823963936  |grad|_K:  1.386e-06  alpha:  7.736e-02  linmin: -2.998e-05  t[s]:  11717.92
	FillingsUpdate:  mu: +0.106766528  nElectrons: 352.000000  magneticMoment: [ Abs: 38.37713  Tot: -0.00000 ]
	SubspaceRotationAdjust: set factor to 0.822
ElecMinimize: Iter: 140  F: -2074.172158571329874  |grad|_K:  1.326e-06  alpha:  9.365e-02  linmin: -9.147e-06  t[s]:  11792.43
	FillingsUpdate:  mu: +0.106849627  nElectrons: 352.000000  magneticMoment: [ Abs: 38.37331  Tot: -0.00000 ]
	SubspaceRotationAdjust: set factor to 0.755
ElecMinimize: Iter: 141  F: -2074.172184697658849  |grad|_K:  1.356e-06  alpha:  8.477e-02  linmin: -5.948e-06  t[s]:  11866.00
	FillingsUpdate:  mu: +0.106850104  nElectrons: 352.000000  magneticMoment: [ Abs: 38.36789  Tot: +0.00000 ]
	SubspaceRotationAdjust: set factor to 0.819
ElecMinimize: Iter: 142  F: -2074.172210351229296  |grad|_K:  1.223e-06  alpha:  7.966e-02  linmin: -4.852e-06  t[s]:  11940.03
	FillingsUpdate:  mu: +0.106853772  nElectrons: 352.000000  magneticMoment: [ Abs: 38.35923  Tot: -0.00000 ]
	SubspaceRotationAdjust: set factor to 0.737
ElecMinimize: Iter: 143  F: -2074.172235032586741  |grad|_K:  1.268e-06  alpha:  9.429e-02  linmin: -9.350e-10  t[s]:  12013.87
	FillingsUpdate:  mu: +0.106989662  nElectrons: 352.000000  magneticMoment: [ Abs: 38.34849  Tot: -0.00000 ]
	SubspaceRotationAdjust: set factor to 0.725
ElecMinimize: Iter: 144  F: -2074.172256236050544  |grad|_K:  1.154e-06  alpha:  7.562e-02  linmin: -8.835e-06  t[s]:  12087.60
	FillingsUpdate:  mu: +0.107003988  nElectrons: 352.000000  magneticMoment: [ Abs: 38.33572  Tot: -0.00000 ]
	SubspaceRotationAdjust: set factor to 0.695
ElecMinimize: Iter: 145  F: -2074.172278824802561  |grad|_K:  1.128e-06  alpha:  9.647e-02  linmin: -7.725e-06  t[s]:  12161.33
	FillingsUpdate:  mu: +0.106941284  nElectrons: 352.000000  magneticMoment: [ Abs: 38.32418  Tot: +0.00000 ]
	SubspaceRotationAdjust: set factor to 0.649
ElecMinimize: Iter: 146  F: -2074.172298387491082  |grad|_K:  1.115e-06  alpha:  8.762e-02  linmin: -1.904e-06  t[s]:  12235.55
	FillingsUpdate:  mu: +0.107016693  nElectrons: 352.000000  magneticMoment: [ Abs: 38.31108  Tot: -0.00000 ]
	SubspaceRotationAdjust: set factor to 0.645
ElecMinimize: Iter: 147  F: -2074.172318988920324  |grad|_K:  1.043e-06  alpha:  9.468e-02  linmin: -6.568e-06  t[s]:  12309.08
	FillingsUpdate:  mu: +0.107137551  nElectrons: 352.000000  magneticMoment: [ Abs: 38.29921  Tot: +0.00000 ]
	SubspaceRotationAdjust: set factor to 0.584
ElecMinimize: Iter: 148  F: -2074.172337678025997  |grad|_K:  1.062e-06  alpha:  9.786e-02  linmin: -9.069e-06  t[s]:  12383.33
	FillingsUpdate:  mu: +0.107185728  nElectrons: 352.000000  magneticMoment: [ Abs: 38.28776  Tot: -0.00000 ]
	SubspaceRotationAdjust: set factor to 0.609
ElecMinimize: Iter: 149  F: -2074.172356921743358  |grad|_K:  9.862e-07  alpha:  9.727e-02  linmin: -2.359e-06  t[s]:  12457.02
	FillingsUpdate:  mu: +0.107201962  nElectrons: 352.000000  magneticMoment: [ Abs: 38.27748  Tot: -0.00000 ]
	SubspaceRotationAdjust: set factor to 0.564
ElecMinimize: Iter: 150  F: -2074.172375375680076  |grad|_K:  1.029e-06  alpha:  1.084e-01  linmin: -1.670e-06  t[s]:  12530.71
	FillingsUpdate:  mu: +0.107286215  nElectrons: 352.000000  magneticMoment: [ Abs: 38.26833  Tot: +0.00000 ]
	SubspaceRotationAdjust: set factor to 0.602
ElecMinimize: Iter: 151  F: -2074.172393379098594  |grad|_K:  9.596e-07  alpha:  9.717e-02  linmin: -2.946e-06  t[s]:  12604.32
	FillingsUpdate:  mu: +0.107335367  nElectrons: 352.000000  magneticMoment: [ Abs: 38.26068  Tot: -0.00000 ]
	SubspaceRotationAdjust: set factor to 0.584
ElecMinimize: Iter: 152  F: -2074.172411355233635  |grad|_K:  1.003e-06  alpha:  1.115e-01  linmin: -9.669e-07  t[s]:  12677.66
	FillingsUpdate:  mu: +0.107304706  nElectrons: 352.000000  magneticMoment: [ Abs: 38.25489  Tot: -0.00000 ]
	SubspaceRotationAdjust: set factor to 0.658
ElecMinimize: Iter: 153  F: -2074.172428281166049  |grad|_K:  9.505e-07  alpha:  9.613e-02  linmin:  1.580e-06  t[s]:  12750.92
	FillingsUpdate:  mu: +0.107306747  nElectrons: 352.000000  magneticMoment: [ Abs: 38.25038  Tot: -0.00000 ]
	SubspaceRotationAdjust: set factor to 0.659
ElecMinimize: Iter: 154  F: -2074.172445491066355  |grad|_K:  9.988e-07  alpha:  1.090e-01  linmin:  3.852e-06  t[s]:  12824.58
	FillingsUpdate:  mu: +0.107384086  nElectrons: 352.000000  magneticMoment: [ Abs: 38.24751  Tot: +0.00000 ]
	SubspaceRotationAdjust: set factor to 0.736
ElecMinimize: Iter: 155  F: -2074.172461092992307  |grad|_K:  9.615e-07  alpha:  8.958e-02  linmin: -2.692e-06  t[s]:  12898.36
	FillingsUpdate:  mu: +0.107449894  nElectrons: 352.000000  magneticMoment: [ Abs: 38.24546  Tot: -0.00000 ]
	SubspaceRotationAdjust: set factor to 0.773
ElecMinimize: Iter: 156  F: -2074.172477918287314  |grad|_K:  9.947e-07  alpha:  1.040e-01  linmin:  1.567e-06  t[s]:  12972.33
	FillingsUpdate:  mu: +0.107468881  nElectrons: 352.000000  magneticMoment: [ Abs: 38.24435  Tot: -0.00000 ]
	SubspaceRotationAdjust: set factor to 0.796
ElecMinimize: Iter: 157  F: -2074.172492572307419  |grad|_K:  1.007e-06  alpha:  8.442e-02  linmin:  7.967e-06  t[s]:  13046.22
	FillingsUpdate:  mu: +0.107560689  nElectrons: 352.000000  magneticMoment: [ Abs: 38.24406  Tot: +0.00000 ]
	SubspaceRotationAdjust: set factor to 0.831
ElecMinimize: Iter: 158  F: -2074.172508266215118  |grad|_K:  9.923e-07  alpha:  8.879e-02  linmin:  4.335e-06  t[s]:  13120.53
	FillingsUpdate:  mu: +0.107663742  nElectrons: 352.000000  magneticMoment: [ Abs: 38.24441  Tot: -0.00000 ]
	SubspaceRotationAdjust: set factor to 0.799
ElecMinimize: Iter: 159  F: -2074.172522163097256  |grad|_K:  1.017e-06  alpha:  8.099e-02  linmin: -1.006e-05  t[s]:  13194.64
	FillingsUpdate:  mu: +0.107634385  nElectrons: 352.000000  magneticMoment: [ Abs: 38.24515  Tot: -0.00000 ]
	SubspaceRotationAdjust: set factor to 0.849
ElecMinimize: Iter: 160  F: -2074.172537291882691  |grad|_K:  9.635e-07  alpha:  8.323e-02  linmin:  1.935e-05  t[s]:  13268.65
	FillingsUpdate:  mu: +0.107597948  nElectrons: 352.000000  magneticMoment: [ Abs: 38.24663  Tot: -0.00000 ]
	SubspaceRotationAdjust: set factor to 0.75
ElecMinimize: Iter: 161  F: -2074.172551487287819  |grad|_K:  1.051e-06  alpha:  8.840e-02  linmin:  2.336e-05  t[s]:  13342.20
	FillingsUpdate:  mu: +0.107647212  nElectrons: 352.000000  magneticMoment: [ Abs: 38.24884  Tot: -0.00000 ]
	SubspaceRotationAdjust: set factor to 0.776
ElecMinimize: Iter: 162  F: -2074.172565090010721  |grad|_K:  9.595e-07  alpha:  7.135e-02  linmin: -7.368e-06  t[s]:  13415.04
	FillingsUpdate:  mu: +0.107667487  nElectrons: 352.000000  magneticMoment: [ Abs: 38.25161  Tot: +0.00000 ]
	SubspaceRotationAdjust: set factor to 0.708
ElecMinimize: Iter: 163  F: -2074.172580129128164  |grad|_K:  1.005e-06  alpha:  9.310e-02  linmin: -4.836e-06  t[s]:  13488.30
	FillingsUpdate:  mu: +0.107557239  nElectrons: 352.000000  magneticMoment: [ Abs: 38.25401  Tot: +0.00000 ]
	SubspaceRotationAdjust: set factor to 0.682
ElecMinimize: Iter: 164  F: -2074.172593631336440  |grad|_K:  9.682e-07  alpha:  7.611e-02  linmin:  8.270e-06  t[s]:  13561.68
	FillingsUpdate:  mu: +0.107438560  nElectrons: 352.000000  magneticMoment: [ Abs: 38.25648  Tot: -0.00000 ]
	SubspaceRotationAdjust: set factor to 0.663
ElecMinimize: Iter: 165  F: -2074.172608539592602  |grad|_K:  9.611e-07  alpha:  9.117e-02  linmin: -2.565e-06  t[s]:  13635.31
	FillingsUpdate:  mu: +0.107401983  nElectrons: 352.000000  magneticMoment: [ Abs: 38.25862  Tot: -0.00000 ]
	SubspaceRotationAdjust: set factor to 0.644
ElecMinimize: Iter: 166  F: -2074.172621705739857  |grad|_K:  9.620e-07  alpha:  8.143e-02  linmin: -3.356e-06  t[s]:  13709.80
	FillingsUpdate:  mu: +0.107369207  nElectrons: 352.000000  magneticMoment: [ Abs: 38.26143  Tot: -0.00000 ]
	SubspaceRotationAdjust: set factor to 0.657
ElecMinimize: Iter: 167  F: -2074.172636442793191  |grad|_K:  9.305e-07  alpha:  9.097e-02  linmin: -8.038e-06  t[s]:  13783.40
	FillingsUpdate:  mu: +0.107374090  nElectrons: 352.000000  magneticMoment: [ Abs: 38.26437  Tot: +0.00000 ]
	SubspaceRotationAdjust: set factor to 0.618
ElecMinimize: Iter: 168  F: -2074.172649547861056  |grad|_K:  9.584e-07  alpha:  8.636e-02  linmin: -1.109e-05  t[s]:  13857.84
	FillingsUpdate:  mu: +0.107481403  nElectrons: 352.000000  magneticMoment: [ Abs: 38.26746  Tot: +0.00000 ]
	SubspaceRotationAdjust: set factor to 0.681
ElecMinimize: Iter: 169  F: -2074.172663979907156  |grad|_K:  9.029e-07  alpha:  8.951e-02  linmin: -3.380e-07  t[s]:  13931.72
	FillingsUpdate:  mu: +0.107564384  nElectrons: 352.000000  magneticMoment: [ Abs: 38.26993  Tot: +0.00000 ]
	SubspaceRotationAdjust: set factor to 0.649
ElecMinimize: Iter: 170  F: -2074.172677181676590  |grad|_K:  9.730e-07  alpha:  9.261e-02  linmin:  3.723e-06  t[s]:  14005.56
	FillingsUpdate:  mu: +0.107500847  nElectrons: 352.000000  magneticMoment: [ Abs: 38.27233  Tot: -0.00000 ]
	SubspaceRotationAdjust: set factor to 0.735
ElecMinimize: Iter: 171  F: -2074.172690703177068  |grad|_K:  9.018e-07  alpha:  8.185e-02  linmin: -8.150e-06  t[s]:  14078.73
	FillingsUpdate:  mu: +0.107370439  nElectrons: 352.000000  magneticMoment: [ Abs: 38.27421  Tot: +0.00000 ]
	SubspaceRotationAdjust: set factor to 0.684
ElecMinimize: Iter: 172  F: -2074.172704034154776  |grad|_K:  9.767e-07  alpha:  9.331e-02  linmin: -1.183e-05  t[s]:  14151.99
	FillingsUpdate:  mu: +0.107331648  nElectrons: 352.000000  magneticMoment: [ Abs: 38.27527  Tot: +0.00000 ]
	SubspaceRotationAdjust: set factor to 0.787
ElecMinimize: Iter: 173  F: -2074.172717012930207  |grad|_K:  9.002e-07  alpha:  7.738e-02  linmin: -3.728e-06  t[s]:  14225.81
	FillingsUpdate:  mu: +0.107294755  nElectrons: 352.000000  magneticMoment: [ Abs: 38.27608  Tot: +0.00000 ]
	SubspaceRotationAdjust: set factor to 0.767
ElecMinimize: Iter: 174  F: -2074.172730472915191  |grad|_K:  9.623e-07  alpha:  9.479e-02  linmin: -5.122e-06  t[s]:  14299.72
	FillingsUpdate:  mu: +0.107218024  nElectrons: 352.000000  magneticMoment: [ Abs: 38.27690  Tot: +0.00000 ]
	SubspaceRotationAdjust: set factor to 0.811
ElecMinimize: Iter: 175  F: -2074.172742334887062  |grad|_K:  9.184e-07  alpha:  7.311e-02  linmin: -3.518e-06  t[s]:  14373.58
	FillingsUpdate:  mu: +0.107196931  nElectrons: 352.000000  magneticMoment: [ Abs: 38.27712  Tot: +0.00000 ]
	SubspaceRotationAdjust: set factor to 0.833
ElecMinimize: Iter: 176  F: -2074.172755480174146  |grad|_K:  9.242e-07  alpha:  8.902e-02  linmin: -1.258e-06  t[s]:  14447.65
	FillingsUpdate:  mu: +0.107230501  nElectrons: 352.000000  magneticMoment: [ Abs: 38.27673  Tot: +0.00000 ]
	SubspaceRotationAdjust: set factor to 0.849
ElecMinimize: Iter: 177  F: -2074.172766527497970  |grad|_K:  9.207e-07  alpha:  7.403e-02  linmin: -1.090e-05  t[s]:  14521.52
	FillingsUpdate:  mu: +0.107178077  nElectrons: 352.000000  magneticMoment: [ Abs: 38.27677  Tot: +0.00000 ]
	SubspaceRotationAdjust: set factor to 0.937
ElecMinimize: Iter: 178  F: -2074.172778558985101  |grad|_K:  8.686e-07  alpha:  8.092e-02  linmin:  3.966e-06  t[s]:  14594.49
	FillingsUpdate:  mu: +0.107102190  nElectrons: 352.000000  magneticMoment: [ Abs: 38.27720  Tot: +0.00000 ]
	SubspaceRotationAdjust: set factor to 0.863
ElecMinimize: Iter: 179  F: -2074.172789015908620  |grad|_K:  9.255e-07  alpha:  7.934e-02  linmin:  6.418e-06  t[s]:  14668.21
	FillingsUpdate:  mu: +0.107135563  nElectrons: 352.000000  magneticMoment: [ Abs: 38.27745  Tot: -0.00000 ]
	SubspaceRotationAdjust: set factor to 0.982
ElecMinimize: Iter: 180  F: -2074.172799122056858  |grad|_K:  8.279e-07  alpha:  6.768e-02  linmin: -7.822e-06  t[s]:  14741.98
	FillingsUpdate:  mu: +0.107162681  nElectrons: 352.000000  magneticMoment: [ Abs: 38.27809  Tot: -0.00000 ]
	SubspaceRotationAdjust: set factor to 0.921
ElecMinimize: Iter: 181  F: -2074.172809174941904  |grad|_K:  8.727e-07  alpha:  8.354e-02  linmin: -8.388e-06  t[s]:  14815.30
	FillingsUpdate:  mu: +0.107113816  nElectrons: 352.000000  magneticMoment: [ Abs: 38.27920  Tot: +0.00000 ]
	SubspaceRotationAdjust: set factor to 0.929
ElecMinimize: Iter: 182  F: -2074.172817828694861  |grad|_K:  8.192e-07  alpha:  6.453e-02  linmin:  1.788e-06  t[s]:  14888.63
	FillingsUpdate:  mu: +0.107099130  nElectrons: 352.000000  magneticMoment: [ Abs: 38.28003  Tot: +0.00000 ]
	SubspaceRotationAdjust: set factor to 0.908
ElecMinimize: Iter: 183  F: -2074.172827041711571  |grad|_K:  8.130e-07  alpha:  7.862e-02  linmin:  1.347e-06  t[s]:  14961.86
	FillingsUpdate:  mu: +0.107135820  nElectrons: 352.000000  magneticMoment: [ Abs: 38.28042  Tot: -0.00000 ]
	SubspaceRotationAdjust: set factor to 0.867
ElecMinimize: Iter: 184  F: -2074.172834879570019  |grad|_K:  8.017e-07  alpha:  6.796e-02  linmin: -8.986e-06  t[s]:  15034.88
	FillingsUpdate:  mu: +0.107114446  nElectrons: 352.000000  magneticMoment: [ Abs: 38.28135  Tot: -0.00000 ]
	SubspaceRotationAdjust: set factor to 0.875
ElecMinimize: Iter: 185  F: -2074.172843653649579  |grad|_K:  7.604e-07  alpha:  7.776e-02  linmin:  4.513e-06  t[s]:  15109.40
	FillingsUpdate:  mu: +0.107073909  nElectrons: 352.000000  magneticMoment: [ Abs: 38.28258  Tot: +0.00000 ]
	SubspaceRotationAdjust: set factor to 0.788
ElecMinimize: Iter: 186  F: -2074.172851428142621  |grad|_K:  8.012e-07  alpha:  7.704e-02  linmin:  7.479e-06  t[s]:  15182.40
	FillingsUpdate:  mu: +0.107120108  nElectrons: 352.000000  magneticMoment: [ Abs: 38.28374  Tot: -0.00000 ]
	SubspaceRotationAdjust: set factor to 0.815
ElecMinimize: Iter: 187  F: -2074.172859605375379  |grad|_K:  7.444e-07  alpha:  7.308e-02  linmin: -5.677e-06  t[s]:  15256.00
	FillingsUpdate:  mu: +0.107167489  nElectrons: 352.000000  magneticMoment: [ Abs: 38.28499  Tot: +0.00000 ]
	SubspaceRotationAdjust: set factor to 0.726
ElecMinimize: Iter: 188  F: -2074.172867747437977  |grad|_K:  7.934e-07  alpha:  8.380e-02  linmin: -1.175e-05  t[s]:  15330.41
	FillingsUpdate:  mu: +0.107147417  nElectrons: 352.000000  magneticMoment: [ Abs: 38.28654  Tot: +0.00000 ]
	SubspaceRotationAdjust: set factor to 0.751
ElecMinimize: Iter: 189  F: -2074.172876104699299  |grad|_K:  7.423e-07  alpha:  7.558e-02  linmin:  2.421e-06  t[s]:  15405.08
	FillingsUpdate:  mu: +0.107122446  nElectrons: 352.000000  magneticMoment: [ Abs: 38.28788  Tot: +0.00000 ]
	SubspaceRotationAdjust: set factor to 0.691
ElecMinimize: Iter: 190  F: -2074.172884777136460  |grad|_K:  8.038e-07  alpha:  9.011e-02  linmin:  4.496e-06  t[s]:  15478.87
	FillingsUpdate:  mu: +0.107168212  nElectrons: 352.000000  magneticMoment: [ Abs: 38.28863  Tot: -0.00000 ]
	SubspaceRotationAdjust: set factor to 0.732
[...]
	SubspaceRotationAdjust: set factor to 0.47
ElecMinimize: Iter:   1  F: -2074.176758358644747  |grad|_K:  5.028e-05  alpha:  2.246e-01  linmin:  2.413e-02  t[s]: 216625.83
	FillingsUpdate:  mu: +0.118729081  nElectrons: 352.000000  magneticMoment: [ Abs: 35.60071  Tot: -0.00000 ]
	SubspaceRotationAdjust: set factor to 0.475
ElecMinimize: Iter:   2  F: -2074.260157301082472  |grad|_K:  1.467e-05  alpha:  2.353e-01  linmin: -8.915e-04  t[s]: 216699.02
	FillingsUpdate:  mu: +0.120336408  nElectrons: 352.000000  magneticMoment: [ Abs: 35.51885  Tot: +0.00000 ]
	SubspaceRotationAdjust: set factor to 0.383
ElecMinimize: Iter:   3  F: -2074.268308830926799  |grad|_K:  9.478e-06  alpha:  2.140e-01  linmin:  2.259e-04  t[s]: 216772.00
	FillingsUpdate:  mu: +0.118513004  nElectrons: 352.000000  magneticMoment: [ Abs: 35.57256  Tot: -0.00000 ]
	SubspaceRotationAdjust: set factor to 0.375
ElecMinimize: Iter:   4  F: -2074.273552687527626  |grad|_K:  7.578e-06  alpha:  3.380e-01  linmin:  1.494e-05  t[s]: 216844.91
	FillingsUpdate:  mu: +0.120361363  nElectrons: 352.000000  magneticMoment: [ Abs: 35.54679  Tot: +0.00000 ]
	SubspaceRotationAdjust: set factor to 0.498
ElecMinimize: Iter:   5  F: -2074.276986996111646  |grad|_K:  4.834e-06  alpha:  3.427e-01  linmin: -1.974e-05  t[s]: 216918.04
	FillingsUpdate:  mu: +0.120891094  nElectrons: 352.000000  magneticMoment: [ Abs: 35.52909  Tot: +0.00000 ]
	SubspaceRotationAdjust: set factor to 0.556
ElecMinimize: Iter:   6  F: -2074.278601461140624  |grad|_K:  3.743e-06  alpha:  3.938e-01  linmin:  5.751e-07  t[s]: 216991.58
	FillingsUpdate:  mu: +0.118576929  nElectrons: 352.000000  magneticMoment: [ Abs: 35.55319  Tot: -0.00000 ]
	SubspaceRotationAdjust: set factor to 0.429
ElecMinimize: Iter:   7  F: -2074.279221533709460  |grad|_K:  2.853e-06  alpha:  2.530e-01  linmin:  3.880e-06  t[s]: 217066.40
	FillingsUpdate:  mu: +0.120231042  nElectrons: 352.000000  magneticMoment: [ Abs: 35.53912  Tot: -0.00000 ]
	SubspaceRotationAdjust: set factor to 0.334
ElecMinimize: Iter:   8  F: -2074.279525765081416  |grad|_K:  1.479e-06  alpha:  2.137e-01  linmin:  9.816e-06  t[s]: 217140.39
	FillingsUpdate:  mu: +0.119473731  nElectrons: 352.000000  magneticMoment: [ Abs: 35.53930  Tot: -0.00000 ]
	SubspaceRotationAdjust: set factor to 0.385
ElecMinimize: Iter:   9  F: -2074.279647673030468  |grad|_K:  9.783e-07  alpha:  3.190e-01  linmin: -1.756e-06  t[s]: 217214.72
	FillingsUpdate:  mu: +0.119212008  nElectrons: 352.000000  magneticMoment: [ Abs: 35.54061  Tot: -0.00000 ]
	SubspaceRotationAdjust: set factor to 0.414
ElecMinimize: Iter:  10  F: -2074.279695460541461  |grad|_K:  5.904e-07  alpha:  2.854e-01  linmin: -5.985e-07  t[s]: 217288.49
	FillingsUpdate:  mu: +0.119670222  nElectrons: 352.000000  magneticMoment: [ Abs: 35.53815  Tot: -0.00000 ]
	SubspaceRotationAdjust: set factor to 0.409
ElecMinimize: Iter:  11  F: -2074.279712725794070  |grad|_K:  3.873e-07  alpha:  2.832e-01  linmin:  2.989e-06  t[s]: 217361.37
	FillingsUpdate:  mu: +0.119498192  nElectrons: 352.000000  magneticMoment: [ Abs: 35.53912  Tot: -0.00000 ]
	SubspaceRotationAdjust: set factor to 0.424
ElecMinimize: Iter:  12  F: -2074.279722125240369  |grad|_K:  3.068e-07  alpha:  3.585e-01  linmin: -1.625e-07  t[s]: 217435.46
	FillingsUpdate:  mu: +0.119580418  nElectrons: 352.000000  magneticMoment: [ Abs: 35.53747  Tot: +0.00000 ]
	SubspaceRotationAdjust: set factor to 0.496
ElecMinimize: Iter:  13  F: -2074.279727279258168  |grad|_K:  2.140e-07  alpha:  3.132e-01  linmin:  1.410e-07  t[s]: 217509.08
	FillingsUpdate:  mu: +0.119593170  nElectrons: 352.000000  magneticMoment: [ Abs: 35.53677  Tot: -0.00000 ]
	SubspaceRotationAdjust: set factor to 0.602
ElecMinimize: Iter:  14  F: -2074.279730420579199  |grad|_K:  1.890e-07  alpha:  3.923e-01  linmin:  2.552e-07  t[s]: 217583.00
	FillingsUpdate:  mu: +0.119528792  nElectrons: 352.000000  magneticMoment: [ Abs: 35.53614  Tot: -0.00000 ]
	SubspaceRotationAdjust: set factor to 0.701
ElecMinimize: Iter:  15  F: -2074.279732963941569  |grad|_K:  1.807e-07  alpha:  4.069e-01  linmin: -4.594e-07  t[s]: 217656.72
	FillingsUpdate:  mu: +0.119626575  nElectrons: 352.000000  magneticMoment: [ Abs: 35.53370  Tot: -0.00000 ]
	SubspaceRotationAdjust: set factor to 0.573
ElecMinimize: Iter:  16  F: -2074.279734890445525  |grad|_K:  2.131e-07  alpha:  3.372e-01  linmin: -6.452e-07  t[s]: 217730.56
	FillingsUpdate:  mu: +0.119470256  nElectrons: 352.000000  magneticMoment: [ Abs: 35.53354  Tot: -0.00000 ]
	SubspaceRotationAdjust: set factor to 0.493
ElecMinimize: Iter:  17  F: -2074.279737012281657  |grad|_K:  2.073e-07  alpha:  2.673e-01  linmin: -7.392e-07  t[s]: 217804.26
	FillingsUpdate:  mu: +0.119565653  nElectrons: 352.000000  magneticMoment: [ Abs: 35.53087  Tot: -0.00000 ]
	SubspaceRotationAdjust: set factor to 0.572
ElecMinimize: Iter:  18  F: -2074.279740077024599  |grad|_K:  1.927e-07  alpha:  4.078e-01  linmin:  2.462e-06  t[s]: 217878.15
	FillingsUpdate:  mu: +0.119584012  nElectrons: 352.000000  magneticMoment: [ Abs: 35.52833  Tot: -0.00000 ]
	SubspaceRotationAdjust: set factor to 0.645
ElecMinimize: Iter:  19  F: -2074.279742860810529  |grad|_K:  1.946e-07  alpha:  4.286e-01  linmin:  3.991e-07  t[s]: 217952.91
	FillingsUpdate:  mu: +0.119419508  nElectrons: 352.000000  magneticMoment: [ Abs: 35.52823  Tot: +0.00000 ]
	SubspaceRotationAdjust: set factor to 0.565
ElecMinimize: Iter:  20  F: -2074.279744854306955  |grad|_K:  1.980e-07  alpha:  3.009e-01  linmin: -6.679e-08  t[s]: 218026.31
	FillingsUpdate:  mu: +0.119541325  nElectrons: 352.000000  magneticMoment: [ Abs: 35.52647  Tot: +0.00000 ]
	SubspaceRotationAdjust: set factor to 0.469
ElecMinimize: Iter:  21  F: -2074.279746455634267  |grad|_K:  1.530e-07  alpha:  2.334e-01  linmin:  4.455e-07  t[s]: 218100.21
	FillingsUpdate:  mu: +0.119514936  nElectrons: 352.000000  magneticMoment: [ Abs: 35.52650  Tot: -0.00000 ]
	SubspaceRotationAdjust: set factor to 0.566
ElecMinimize: Iter:  22  F: -2074.279747833650163  |grad|_K:  1.234e-07  alpha:  3.366e-01  linmin: -1.300e-06  t[s]: 218173.62
	FillingsUpdate:  mu: +0.119461776  nElectrons: 352.000000  magneticMoment: [ Abs: 35.52684  Tot: +0.00000 ]
	SubspaceRotationAdjust: set factor to 0.645
ElecMinimize: Iter:  23  F: -2074.279748866531008  |grad|_K:  1.138e-07  alpha:  3.881e-01  linmin: -1.308e-06  t[s]: 218247.45
	FillingsUpdate:  mu: +0.119540000  nElectrons: 352.000000  magneticMoment: [ Abs: 35.52653  Tot: -0.00000 ]
	SubspaceRotationAdjust: set factor to 0.566
ElecMinimize: Iter:  24  F: -2074.279749515227650  |grad|_K:  1.158e-07  alpha:  2.864e-01  linmin:  1.746e-06  t[s]: 218320.50
	FillingsUpdate:  mu: +0.119477488  nElectrons: 352.000000  magneticMoment: [ Abs: 35.52781  Tot: +0.00000 ]
	SubspaceRotationAdjust: set factor to 0.507
ElecMinimize: Iter:  25  F: -2074.279750133743619  |grad|_K:  9.882e-08  alpha:  2.637e-01  linmin: -4.350e-06  t[s]: 218394.11
	FillingsUpdate:  mu: +0.119505341  nElectrons: 352.000000  magneticMoment: [ Abs: 35.52840  Tot: -0.00000 ]
	SubspaceRotationAdjust: set factor to 0.605
ElecMinimize: Iter:  26  F: -2074.279750746243280  |grad|_K:  8.018e-08  alpha:  3.586e-01  linmin:  2.674e-06  t[s]: 218468.32
	FillingsUpdate:  mu: +0.119517313  nElectrons: 352.000000  magneticMoment: [ Abs: 35.52888  Tot: -0.00000 ]
	SubspaceRotationAdjust: set factor to 0.693
ElecMinimize: Iter:  27  F: -2074.279751151648725  |grad|_K:  6.962e-08  alpha:  3.607e-01  linmin:  2.120e-06  t[s]: 218541.70
	FillingsUpdate:  mu: +0.119472616  nElectrons: 352.000000  magneticMoment: [ Abs: 35.52982  Tot: -0.00000 ]
	SubspaceRotationAdjust: set factor to 0.593
ElecMinimize: Iter:  28  F: -2074.279751398126336  |grad|_K:  7.206e-08  alpha:  2.908e-01  linmin:  1.992e-06  t[s]: 218615.58
ElecMinimize: Converged (|Delta F|<1.000000e-06 for 5 iters).
Setting wave functions to eigenvectors of Hamiltonian
IonicMinimize: 	Wolfe criterion not satisfied: alpha: 1  (E-E0)/|gdotd0|: 0.155236  gdotd/gdotd0: -0.695738 (taking cubic step)

-------- Electronic minimization -----------
	FillingsUpdate:  mu: +0.127474658  nElectrons: 352.000000  magneticMoment: [ Abs: 35.52579  Tot: +0.00000 ]
ElecMinimize: Iter:   0  F: -2074.179549365805997  |grad|_K:  5.474e-05  alpha:  1.000e+00
	FillingsUpdate:  mu: +0.116680569  nElectrons: 352.000000  magneticMoment: [ Abs: 35.54120  Tot: -0.00000 ]
	SubspaceRotationAdjust: set factor to 0.557
ElecMinimize: Iter:   1  F: -2074.275288000881119  |grad|_K:  8.839e-06  alpha:  1.863e-01  linmin:  4.399e-03  t[s]: 218770.30
	FillingsUpdate:  mu: +0.121431623  nElectrons: 352.000000  magneticMoment: [ Abs: 35.51411  Tot: -0.00000 ]
	SubspaceRotationAdjust: set factor to 0.434
ElecMinimize: Iter:   2  F: -2074.278064925041690  |grad|_K:  5.249e-06  alpha:  2.073e-01  linmin:  1.559e-04  t[s]: 218843.71
	FillingsUpdate:  mu: +0.118858910  nElectrons: 352.000000  magneticMoment: [ Abs: 35.54146  Tot: -0.00000 ]
	SubspaceRotationAdjust: set factor to 0.279
ElecMinimize: Iter:   3  F: -2074.279048141866497  |grad|_K:  2.943e-06  alpha:  2.050e-01  linmin: -7.390e-05  t[s]: 218916.10
	FillingsUpdate:  mu: +0.119825468  nElectrons: 352.000000  magneticMoment: [ Abs: 35.53102  Tot: +0.00000 ]
	SubspaceRotationAdjust: set factor to 0.288
ElecMinimize: Iter:   4  F: -2074.279441990493524  |grad|_K:  1.920e-06  alpha:  2.592e-01  linmin: -4.679e-07  t[s]: 218989.19
	FillingsUpdate:  mu: +0.120035394  nElectrons: 352.000000  magneticMoment: [ Abs: 35.52825  Tot: -0.00000 ]
	SubspaceRotationAdjust: set factor to 0.317
ElecMinimize: Iter:   5  F: -2074.279615801836826  |grad|_K:  1.334e-06  alpha:  2.696e-01  linmin:  7.074e-07  t[s]: 219062.84
	FillingsUpdate:  mu: +0.119468192  nElectrons: 352.000000  magneticMoment: [ Abs: 35.53350  Tot: -0.00000 ]
	SubspaceRotationAdjust: set factor to 0.321
ElecMinimize: Iter:   6  F: -2074.279705507225572  |grad|_K:  8.877e-07  alpha:  2.881e-01  linmin:  1.151e-06  t[s]: 219136.40
	FillingsUpdate:  mu: +0.119651016  nElectrons: 352.000000  magneticMoment: [ Abs: 35.53356  Tot: -0.00000 ]
	SubspaceRotationAdjust: set factor to 0.382
ElecMinimize: Iter:   7  F: -2074.279749754847217  |grad|_K:  6.409e-07  alpha:  3.211e-01  linmin:  8.524e-08  t[s]: 219209.62
	FillingsUpdate:  mu: +0.119778785  nElectrons: 352.000000  magneticMoment: [ Abs: 35.53252  Tot: +0.00000 ]
	SubspaceRotationAdjust: set factor to 0.429
ElecMinimize: Iter:   8  F: -2074.279771279822853  |grad|_K:  5.009e-07  alpha:  2.997e-01  linmin: -2.524e-07  t[s]: 219283.87
	FillingsUpdate:  mu: +0.119574122  nElectrons: 352.000000  magneticMoment: [ Abs: 35.53408  Tot: -0.00000 ]
	SubspaceRotationAdjust: set factor to 0.482
ElecMinimize: Iter:   9  F: -2074.279784688498239  |grad|_K:  3.853e-07  alpha:  3.056e-01  linmin:  2.253e-08  t[s]: 219357.65
	FillingsUpdate:  mu: +0.119662149  nElectrons: 352.000000  magneticMoment: [ Abs: 35.53422  Tot: -0.00000 ]
	SubspaceRotationAdjust: set factor to 0.564
ElecMinimize: Iter:  10  F: -2074.279793047025578  |grad|_K:  2.913e-07  alpha:  3.219e-01  linmin: -9.576e-09  t[s]: 219430.91
	FillingsUpdate:  mu: +0.119728217  nElectrons: 352.000000  magneticMoment: [ Abs: 35.53429  Tot: -0.00000 ]
	SubspaceRotationAdjust: set factor to 0.636
ElecMinimize: Iter:  11  F: -2074.279797530772157  |grad|_K:  2.178e-07  alpha:  3.021e-01  linmin: -2.968e-07  t[s]: 219503.75
	FillingsUpdate:  mu: +0.119634044  nElectrons: 352.000000  magneticMoment: [ Abs: 35.53532  Tot: -0.00000 ]
	SubspaceRotationAdjust: set factor to 0.63
ElecMinimize: Iter:  12  F: -2074.279799810681197  |grad|_K:  1.727e-07  alpha:  2.748e-01  linmin:  1.521e-07  t[s]: 219576.67
	FillingsUpdate:  mu: +0.119731104  nElectrons: 352.000000  magneticMoment: [ Abs: 35.53478  Tot: +0.00000 ]
	SubspaceRotationAdjust: set factor to 0.55
ElecMinimize: Iter:  13  F: -2074.279801053826304  |grad|_K:  1.388e-07  alpha:  2.384e-01  linmin: -2.830e-07  t[s]: 219650.24
	FillingsUpdate:  mu: +0.119672173  nElectrons: 352.000000  magneticMoment: [ Abs: 35.53573  Tot: +0.00000 ]
	SubspaceRotationAdjust: set factor to 0.546
ElecMinimize: Iter:  14  F: -2074.279801954758568  |grad|_K:  1.140e-07  alpha:  2.673e-01  linmin: -1.338e-06  t[s]: 219723.40
	FillingsUpdate:  mu: +0.119698424  nElectrons: 352.000000  magneticMoment: [ Abs: 35.53585  Tot: +0.00000 ]
	SubspaceRotationAdjust: set factor to 0.665
ElecMinimize: Iter:  15  F: -2074.279802686928633  |grad|_K:  1.018e-07  alpha:  3.223e-01  linmin: -4.517e-06  t[s]: 219797.64
	FillingsUpdate:  mu: +0.119704883  nElectrons: 352.000000  magneticMoment: [ Abs: 35.53615  Tot: -0.00000 ]
	SubspaceRotationAdjust: set factor to 0.786
ElecMinimize: Iter:  16  F: -2074.279803440954765  |grad|_K:  1.089e-07  alpha:  4.159e-01  linmin:  6.041e-06  t[s]: 219872.02
	FillingsUpdate:  mu: +0.119646740  nElectrons: 352.000000  magneticMoment: [ Abs: 35.53724  Tot: -0.00000 ]
	SubspaceRotationAdjust: set factor to 0.769
ElecMinimize: Iter:  17  F: -2074.279804137561314  |grad|_K:  1.264e-07  alpha:  3.363e-01  linmin:  1.632e-08  t[s]: 219945.60
	FillingsUpdate:  mu: +0.119735064  nElectrons: 352.000000  magneticMoment: [ Abs: 35.53697  Tot: +0.00000 ]
	SubspaceRotationAdjust: set factor to 0.615
ElecMinimize: Iter:  18  F: -2074.279804724802034  |grad|_K:  1.181e-07  alpha:  2.101e-01  linmin: -2.632e-07  t[s]: 220019.78
ElecMinimize: Converged (|Delta F|<1.000000e-06 for 5 iters).
Setting wave functions to eigenvectors of Hamiltonian

# Ionic positions in lattice coordinates:
ion Ni   0.172890575528311   0.019307149816376   0.188460460003349 1
ion Ni   0.570271891020438  -0.053494776183327   0.164978463470496 1
ion Ni   0.478103118247008   0.486720393425480   0.156980070340950 1
ion Ni   0.242543398924067   0.250522931141233   0.052790019129595 1
ion Ni   0.500000000000000   0.000000000000000  -0.050000000000000 0
ion Ni  -0.250000000000000   0.750000000000000  -0.150000000000000 0
ion V  -0.049250105007833   0.409822487827699   0.178471961790705 1
ion V   0.249750534730842   0.757656864540113   0.061268884763697 1
ion V  -0.265422979485708   0.246162575369546   0.056911897843425 1
ion V  -0.251700682269676   0.752780047613149   0.058041600925661 1
ion V   0.000000000000000   0.000000000000000  -0.050000000000000 0
ion Cr   0.000000000000000   0.500000000000000  -0.050000000000000 0
ion Cr   0.500000000000000   0.500000000000000  -0.050000000000000 0
ion Cr   0.250000000000000   0.250000000000000  -0.150000000000000 0
ion Co   0.250000000000000   0.750000000000000  -0.150000000000000 0
ion Co  -0.250000000000000   0.250000000000000  -0.150000000000000 0
ion O   0.227068879888990   0.305856432480248   0.145531769081588 1
ion O   0.277136897646368   0.740451157280739   0.150583880044989 1
ion O  -0.316920483911964   0.246452537250514   0.154032099571753 1
ion O  -0.258541824344705   0.661616836245505   0.150697079516683 1
ion O  -0.020122859232467  -0.014359340436391   0.052364651485327 1
ion O   0.481288497675827  -0.011378045155117   0.045862513909163 1
ion O   0.006381983638580   0.518207936803773   0.045526176901840 1
ion O   0.503614315180933   0.516676109945568   0.041101815278651 1
ion O   0.250000000000000   0.250000000000000  -0.050000000000000 0
ion O   0.250000000000000   0.750000000000000  -0.050000000000000 0
ion O  -0.250000000000000   0.250000000000000  -0.050000000000000 0
ion O  -0.250000000000000   0.750000000000000  -0.050000000000000 0
ion O   0.000000000000000   0.000000000000000  -0.150000000000000 0
ion O   0.500000000000000   0.000000000000000  -0.150000000000000 0
ion O   0.000000000000000   0.500000000000000  -0.150000000000000 0
ion O   0.500000000000000   0.500000000000000  -0.150000000000000 0
ion O   0.000884026508247   0.209344935224561   0.249941081969304 1
ion H   0.107018441794898   0.255827687742429   0.280863905497950 1

# Forces in Lattice coordinates:
force Ni   0.007682177443109   0.003289671231369   0.045170151181304 1
force Ni   0.004176065733113   0.005074681089833   0.000350452241865 1
force Ni   0.009226669722829  -0.006136695084107   0.001852380646155 1
force Ni   0.001585244998352   0.000097102177326  -0.009302631494339 1
force Ni  -0.010288751403239  -0.034186587019146  -0.470979856718074 0
force Ni  -0.018929216312839   0.047086839895469  -0.547506156738062 0
force V   0.007214217947319   0.000300163020108  -0.008139938482789 1
force V  -0.001028311962556   0.001112359790014  -0.029343247188941 1
force V   0.000215988078498   0.000008957057819   0.018510288960303 1
force V   0.001568527666467  -0.001387208347743   0.011604674462503 1
force V  -0.046098096999354  -0.046540689206690  -0.057890379264225 0
force Cr  -0.038845708353469   0.076265905556015  -0.445761677722542 0
force Cr   0.047216555198068   0.094584612068820  -0.776759200239979 0
force Cr   0.026300130849415  -0.119346223198053  -1.313797633205534 0
force Co   0.050226552157488   0.089907907481742  -0.519796278197228 0
force Co  -0.027893530876606  -0.127756924227917  -0.478910766008719 0
force O  -0.003160001773023   0.004572852425775  -0.012403188714044 1
force O  -0.002091657271732  -0.003312480062512  -0.005516174633041 1
force O  -0.003046332948202   0.006872041844897  -0.014235648716459 1
force O   0.003087703236726   0.005577675104346  -0.003435947635022 1
force O   0.002582481221587   0.000274482540854   0.004326417851136 1
force O  -0.002683492796119   0.002440932620857   0.003326008022439 1
force O   0.005802196869903  -0.001318713063245  -0.006861066660682 1
force O   0.001508531737364  -0.003076976372800   0.008086834474657 1
force O   0.101327049001074   0.248845243084496   0.882131564055649 0
force O   0.068607614314343  -0.248696440889216   0.450468173775709 0
force O  -0.090426039700932   0.249026259014753   0.333464446020726 0
force O  -0.104935896848840  -0.257214067172805   1.313154400977285 0
force O   0.109723776097024   0.118232341394991  -0.041452248548197 0
force O  -0.092858002104013   0.104057280077370   0.300192010744020 0
force O   0.099250641072416  -0.104284319888029   0.734387957542999 0
force O  -0.114670346646192  -0.102087254905452   0.642201259824903 0
force O   0.015368816209332   0.009020649359688   0.059923259684785 1
force H  -0.005795258306609  -0.001520538849337  -0.056665853573183 1

# Energy components:
   Eewald =     5090.1052318999072668
       EH =     6959.2953612161909405
     Eloc =   -14268.4903146645247034
      Enl =     -554.8222192732168878
   Epulay =       -0.0004863088831595
      Exc =     -250.9318251329712552
       KE =      949.1493919068220748
        U =        1.4155100862809979
-------------------------------------
     Etot =    -2074.2793502703957529
       TS =        0.0004544544062855
-------------------------------------
        F =    -2074.2798047248020339

IonicMinimize: Iter:  62  F: -2074.279804724802034  |grad|_K:  4.919e-04  alpha:  3.442e-01  linmin:  6.684e-03  t[s]: 220045.22
IonicMinimize: Converged (|Delta F|<1.000000e-04 for 3 iters).

#--- Lowdin population analysis ---
# oxidation-state Ni +3.416 +3.395 +3.292 +3.477 +3.404 +3.420
# magnetic-moments Ni -0.691 -0.713 -0.058 -0.861 -0.862 -0.707
# oxidation-state V +1.318 +1.273 +1.036 +1.252 +0.948
# magnetic-moments V +2.117 +2.042 -2.886 -2.142 -2.882
# oxidation-state Cr +2.899 +2.969 +2.943
# magnetic-moments Cr +3.425 +3.269 +3.821
# oxidation-state Co +1.229 +1.237
# magnetic-moments Co -2.673 +2.707
# oxidation-state O -0.623 -0.683 -0.675 -0.717 -0.854 -0.801 -0.833 -0.807 -0.757 -0.839 -0.847 -0.784 -0.930 -0.877 -0.883 -0.888 -0.729
# magnetic-moments O -0.271 -0.135 -0.002 -0.035 -0.014 -0.167 -0.108 -0.086 -0.225 -0.211 -0.099 -0.158 -0.060 -0.214 -0.149 -0.132 -0.102
# oxidation-state H +0.399
# magnetic-moments H +0.004


Dumping 'run.ionpos' ... done
Dumping 'run.lattice' ... done
Dumping 'run.Ecomponents' ... done
End date and time: Tue May 20 01:51:23 2025  (Duration: 2-13:07:32.22)
Done!
