/var/spool/slurmd/job44420/slurm_script: line 9: module: command not found
/var/spool/slurmd/job44420/slurm_script: line 10: module: command not found

*************** JDFTx 1.7.0  ***************

Start date and time: Fri May 16 21:18:33 2025
Executable /data2/jt577/jdftx_eat_withLibXC/build/jdftx with command-line: -i /data2/jt577/May_2025/Relax_Mag_litU/rel2+1_6/O/runs/calc_/run.in
Running on hosts (process indices):  node3302 (0-8)
Divided in process groups (process indices):  0 (0)  1 (1)  2 (2)  3 (3)  4 (4)  5 (5)  6 (6)  7 (7)  8 (8)
Resource initialization completed at t[s]:      0.00
Run totals: 9 processes, 63 threads, 0 GPUs


Input parsed successfully to the following command list (including defaults):

add-mix 
add-U 	Ni d 0.235196 \
	Co d 0.121273 \
	Cr d 0.128623 \
	V d 0.113923
basis kpoint-dependent
coords-type Lattice
core-overlap-check vector
coulomb-interaction Periodic
davidson-band-ratio 1.1
dump End IonicPositions Lattice Ecomponents
dump-name run.$VAR
elec-cutoff 30
elec-eigen-algo Davidson
elec-ex-corr gga-x-rpbe gga-c-pbe
elec-smearing Fermi 0.001
electronic-minimize  \
	dirUpdateScheme      FletcherReeves \
	linminMethod         DirUpdateRecommended \
	nIterations          1000 \
	history              15 \
	knormThreshold       0 \
	energyDiffThreshold  1e-06 \
	nEnergyDiff          5 \
	alphaTstart          1 \
	alphaTmin            1e-10 \
	updateTestStepSize   yes \
	alphaTreduceFactor   0.1 \
	alphaTincreaseFactor 3 \
	nAlphaAdjustMax      3 \
	wolfeEnergy          0.0001 \
	wolfeGradient        0.9 \
	fdTest               no
exchange-regularization WignerSeitzTruncated
fluid None
fluid-ex-corr (null) lda-PZ
fluid-gummel-loop 10 1.000000e-05
fluid-minimize  \
	dirUpdateScheme      PolakRibiere \
	linminMethod         DirUpdateRecommended \
	nIterations          100 \
	history              15 \
	knormThreshold       0 \
	energyDiffThreshold  0 \
	nEnergyDiff          2 \
	alphaTstart          1 \
	alphaTmin            1e-10 \
	updateTestStepSize   yes \
	alphaTreduceFactor   0.1 \
	alphaTincreaseFactor 3 \
	nAlphaAdjustMax      3 \
	wolfeEnergy          0.0001 \
	wolfeGradient        0.9 \
	fdTest               no
fluid-solvent H2O 55.338 ScalarEOS \
	epsBulk 78.4 \
	pMol 0.92466 \
	epsInf 1.77 \
	Pvap 1.06736e-10 \
	sigmaBulk 4.62e-05 \
	Rvdw 2.61727 \
	Res 1.42 \
	tauNuc 343133 \
	poleEl 15 7 1
forces-output-coords Positions
initial-magnetic-moments  \
	Ni 1 -1 1 -1 \
	Co -1 1 \
	Cr 1 -1 \
	V -1 -1 1 1 -1 -1 1 1
initial-state run.$VAR
ion Ni  0.000000000000000   0.000000000000000   0.150000000000000 1
ion Ni  0.500000000000000   0.000000000000000   0.150000000000000 1
ion Ni  0.000000000000000   0.500000000000000   0.150000000000000 1
ion Ni  0.000000000000000   0.500000000000000  -0.050000000000000 0
ion Co  0.500000000000000   0.500000000000000   0.150000000000000 1
ion Co  0.250000000000000   0.750000000000000   0.050000000000000 1
ion Cr  0.250000000000000   0.250000000000000   0.050000000000000 1
ion Cr -0.250000000000000   0.250000000000000   0.050000000000000 1
ion V -0.250000000000000   0.750000000000000   0.050000000000000 1
ion V  0.000000000000000   0.000000000000000  -0.050000000000000 0
ion V  0.500000000000000   0.000000000000000  -0.050000000000000 0
ion V  0.500000000000000   0.500000000000000  -0.050000000000000 0
ion V  0.250000000000000   0.250000000000000  -0.150000000000000 0
ion V  0.250000000000000   0.750000000000000  -0.150000000000000 0
ion V -0.250000000000000   0.250000000000000  -0.150000000000000 0
ion V -0.250000000000000   0.750000000000000  -0.150000000000000 0
ion O  0.250000000000000   0.250000000000000   0.150000000000000 1
ion O  0.250000000000000   0.750000000000000   0.150000000000000 1
ion O -0.250000000000000   0.250000000000000   0.150000000000000 1
ion O -0.250000000000000   0.750000000000000   0.150000000000000 1
ion O  0.000000000000000   0.000000000000000   0.050000000000000 1
ion O  0.500000000000000   0.000000000000000   0.050000000000000 1
ion O  0.000000000000000   0.500000000000000   0.050000000000000 1
ion O  0.500000000000000   0.500000000000000   0.050000000000000 1
ion O  0.250000000000000   0.250000000000000  -0.050000000000000 0
ion O  0.250000000000000   0.750000000000000  -0.050000000000000 0
ion O -0.250000000000000   0.250000000000000  -0.050000000000000 0
ion O -0.250000000000000   0.750000000000000  -0.050000000000000 0
ion O  0.000000000000000   0.000000000000000  -0.150000000000000 0
ion O  0.500000000000000   0.000000000000000  -0.150000000000000 0
ion O  0.000000000000000   0.500000000000000  -0.150000000000000 0
ion O  0.500000000000000   0.500000000000000  -0.150000000000000 0
ion O -0.000095572322686   0.000198307128402   0.224876729873325 1
ion-species SG15/$ID_ONCV_PBE.upf
ion-width 0
ionic-minimize  \
	dirUpdateScheme      L-BFGS \
	linminMethod         DirUpdateRecommended \
	nIterations          1000 \
	history              15 \
	knormThreshold       0.0001 \
	energyDiffThreshold  0.0001 \
	nEnergyDiff          3 \
	alphaTstart          1 \
	alphaTmin            1e-10 \
	updateTestStepSize   yes \
	alphaTreduceFactor   0.1 \
	alphaTincreaseFactor 3 \
	nAlphaAdjustMax      3 \
	wolfeEnergy          0.0001 \
	wolfeGradient        0.9 \
	fdTest               no
kpoint   0.500000000000   0.500000000000   0.500000000000  1.00000000000000
kpoint-folding 3 3 1 
latt-move-scale 1 1 1
latt-scale 1 1 1 
lattice  \
	   8.140000000000001    8.140000000000001    0.000000000000000  \
	   8.140000000000001   -8.140000000000001    0.000000000000000  \
	   0.000000000000000    0.000000000000000   40.700000000000003 
lattice-minimize  \
	dirUpdateScheme      L-BFGS \
	linminMethod         DirUpdateRecommended \
	nIterations          0 \
	history              15 \
	knormThreshold       0 \
	energyDiffThreshold  1e-06 \
	nEnergyDiff          2 \
	alphaTstart          1 \
	alphaTmin            1e-10 \
	updateTestStepSize   yes \
	alphaTreduceFactor   0.1 \
	alphaTincreaseFactor 3 \
	nAlphaAdjustMax      3 \
	wolfeEnergy          0.0001 \
	wolfeGradient        0.9 \
	fdTest               no
lcao-params -1 1e-06 0.001
pcm-variant GLSSA13
spintype z-spin
subspace-rotation-factor 1 yes
symmetries none
symmetry-threshold 0.0001


Applied RMS atom displacement 0 bohrs to make symmetries exact.

---------- Initializing the Grid ----------
R = 
[         8.14         8.14            0  ]
[         8.14        -8.14            0  ]
[            0            0         40.7  ]
unit cell volume = 5393.53
G =
[   0.385945   0.385945         -0  ]
[   0.385945  -0.385945         -0  ]
[         -0         -0   0.154378  ]
Minimum fftbox size, Smin = [  60  60  204  ]
Chosen fftbox size, S = [  60  60  210  ]

---------- Exchange Correlation functional ----------
Initialized LibXC exchange functional 'Hammer, Hansen, and Norskov'
Initialized LibXC correlation functional 'Perdew, Burke & Ernzerhof'

---------- Setting up pseudopotentials ----------
Width of ionic core gaussian charges (only for fluid interactions / plotting) set to 0

Reading pseudopotential file '/data2/jt577/jdftx_eat_withLibXC/build/pseudopotentials/SG15/Ni_ONCV_PBE.upf':
  'Ni' pseudopotential, 'PBE' functional
  Generated using ONCVPSP code by D. R. Hamann
  Author: Martin Schlipf and Francois Gygi  Date: 150915.
  18 valence electrons, 4 orbitals, 6 projectors, 1292 radial grid points, with lMax = 2
  Transforming local potential to a uniform radial grid of dG=0.02 with 1419 points.
  Transforming nonlocal projectors to a uniform radial grid of dG=0.02 with 528 points.
    3S    l: 0   occupation:  2.0   eigenvalue: -4.081355
    3P    l: 1   occupation:  6.0   eigenvalue: -2.623460
    4S    l: 0   occupation:  2.0   eigenvalue: -0.207378
    3D    l: 2   occupation:  8.0   eigenvalue: -0.326118
  Transforming atomic orbitals to a uniform radial grid of dG=0.02 with 528 points.
  WARNING: large normalization error in atomic orbital 1s (integral: 0.000006).
  Core radius for overlap checks: 1.99 bohrs.
  Reading pulay file /data2/jt577/jdftx_eat_withLibXC/build/pseudopotentials/SG15/Ni_ONCV_PBE.pulay ... using dE_dnG = -7.250568e-04 computed for Ecut = 30.

Reading pseudopotential file '/data2/jt577/jdftx_eat_withLibXC/build/pseudopotentials/SG15/Co_ONCV_PBE.upf':
  'Co' pseudopotential, 'PBE' functional
  Generated using ONCVPSP code by D. R. Hamann
  Author: Martin Schlipf and Francois Gygi  Date: 150915.
  17 valence electrons, 4 orbitals, 6 projectors, 1388 radial grid points, with lMax = 2
  Transforming local potential to a uniform radial grid of dG=0.02 with 1419 points.
  Transforming nonlocal projectors to a uniform radial grid of dG=0.02 with 528 points.
    3S    l: 0   occupation:  2.0   eigenvalue: -3.763303
    3P    l: 1   occupation:  6.0   eigenvalue: -2.412101
    4S    l: 0   occupation:  2.0   eigenvalue: -0.201022
    3D    l: 2   occupation:  7.0   eigenvalue: -0.301498
  Transforming atomic orbitals to a uniform radial grid of dG=0.02 with 528 points.
  Core radius for overlap checks: 1.94 bohrs.
  Reading pulay file /data2/jt577/jdftx_eat_withLibXC/build/pseudopotentials/SG15/Co_ONCV_PBE.pulay ... using dE_dnG = -9.787391e-05 computed for Ecut = 30.

Reading pseudopotential file '/data2/jt577/jdftx_eat_withLibXC/build/pseudopotentials/SG15/Cr_ONCV_PBE.upf':
  'Cr' pseudopotential, 'PBE' functional
  Generated using ONCVPSP code by D. R. Hamann
  Author: Martin Schlipf and Francois Gygi  Date: 150915.
  14 valence electrons, 4 orbitals, 6 projectors, 1160 radial grid points, with lMax = 2
  Transforming local potential to a uniform radial grid of dG=0.02 with 1419 points.
  Transforming nonlocal projectors to a uniform radial grid of dG=0.02 with 528 points.
    3S    l: 0   occupation:  2.0   eigenvalue: -2.865131
    3P    l: 1   occupation:  6.0   eigenvalue: -1.810600
    4S    l: 0   occupation:  2.0   eigenvalue: -0.180525
    3D    l: 2   occupation:  4.0   eigenvalue: -0.220312
  Transforming atomic orbitals to a uniform radial grid of dG=0.02 with 528 points.
  WARNING: large normalization error in atomic orbital 1s (integral: 0.000001).
  Core radius for overlap checks: 2.10 bohrs.
  Reading pulay file /data2/jt577/jdftx_eat_withLibXC/build/pseudopotentials/SG15/Cr_ONCV_PBE.pulay ... using dE_dnG = -9.817895e-06 computed for Ecut = 30.

Reading pseudopotential file '/data2/jt577/jdftx_eat_withLibXC/build/pseudopotentials/SG15/V_ONCV_PBE.upf':
  'V' pseudopotential, 'PBE' functional
  Generated using ONCVPSP code by D. R. Hamann
  Author: Martin Schlipf and Francois Gygi  Date: 150915.
  13 valence electrons, 4 orbitals, 6 projectors, 1536 radial grid points, with lMax = 2
  Transforming local potential to a uniform radial grid of dG=0.02 with 1419 points.
  Transforming nonlocal projectors to a uniform radial grid of dG=0.02 with 528 points.
    3S    l: 0   occupation:  2.0   eigenvalue: -2.581105
    3P    l: 1   occupation:  6.0   eigenvalue: -1.618486
    4S    l: 0   occupation:  2.0   eigenvalue: -0.172804
    3D    l: 2   occupation:  3.0   eigenvalue: -0.189795
  Transforming atomic orbitals to a uniform radial grid of dG=0.02 with 528 points.
  Core radius for overlap checks: 1.80 bohrs.
  Reading pulay file /data2/jt577/jdftx_eat_withLibXC/build/pseudopotentials/SG15/V_ONCV_PBE.pulay ... using dE_dnG = -1.698632e-04 computed for Ecut = 30.

Reading pseudopotential file '/data2/jt577/jdftx_eat_withLibXC/build/pseudopotentials/SG15/O_ONCV_PBE.upf':
  'O' pseudopotential, 'PBE' functional
  Generated using ONCVPSP code by D. R. Hamann
  Author: Martin Schlipf and Francois Gygi  Date: 150915.
  6 valence electrons, 2 orbitals, 4 projectors, 936 radial grid points, with lMax = 1
  Transforming local potential to a uniform radial grid of dG=0.02 with 1419 points.
  Transforming nonlocal projectors to a uniform radial grid of dG=0.02 with 528 points.
    2S    l: 0   occupation:  2.0   eigenvalue: -0.880572
    2P    l: 1   occupation:  4.0   eigenvalue: -0.331869
  Transforming atomic orbitals to a uniform radial grid of dG=0.02 with 528 points.
  Core radius for overlap checks: 1.29 bohrs.
  Reading pulay file /data2/jt577/jdftx_eat_withLibXC/build/pseudopotentials/SG15/O_ONCV_PBE.pulay ... using dE_dnG = -8.209514e-03 computed for Ecut = 30.

Initialized 5 species with 33 total atoms.

Folded 1 k-points by 3x3x1 to 9 k-points.

---------- Setting up k-points, bands, fillings ----------
No reducable k-points. 
Computing the number of bands and number of electrons
Calculating initial fillings.
nElectrons: 340.000000   nBands: 228   nStates: 18

----- Setting up reduced wavefunction bases (one per k-point) -----
average nbasis = 42312.000 , ideal nbasis = 42330.081

---------- Setting up ewald sum ----------
Optimum gaussian width for ewald sums = 3.906449 bohr.
Real space sum over 605 unit cells with max indices [  5  5  2  ]
Reciprocal space sum over 5915 terms with max indices [  6  6  17  ]

---------- Allocating electronic variables ----------
Initializing wave functions:  linear combination of atomic orbitals
Ni (M=1) pseudo-atom majority spin occupations:   s ( 1 0.5 )  p ( 3 )  d ( 5 )
Ni (M=1) pseudo-atom minority spin occupations:   s ( 1 0 )  p ( 3 )  d ( 4.5 )
Co (M=1) pseudo-atom majority spin occupations:   s ( 1 0 )  p ( 3 )  d ( 5 )
Co (M=1) pseudo-atom minority spin occupations:   s ( 1 0 )  p ( 3 )  d ( 4 )
Cr (M=1) pseudo-atom majority spin occupations:   s ( 1 0 )  p ( 3 )  d ( 3.5 )
Cr (M=1) pseudo-atom minority spin occupations:   s ( 1 0 )  p ( 3 )  d ( 2.5 )
V (M=1) pseudo-atom majority spin occupations:   s ( 1 0 )  p ( 3 )  d ( 3 )
V (M=1) pseudo-atom minority spin occupations:   s ( 1 0 )  p ( 3 )  d ( 2 )
O pseudo-atom occupations:   s ( 2 )  p ( 4 )
	FillingsUpdate:  mu: +0.972583060  nElectrons: 340.000000  magneticMoment: [ Abs: 0.72467  Tot: +0.00000 ]
LCAOMinimize: Iter:   0  F: -1761.0376655024253978  |grad|_K:  1.014e-02  alpha:  1.000e+00
	FillingsUpdate:  mu: +0.582420554  nElectrons: 340.000000  magneticMoment: [ Abs: 1.57297  Tot: +0.00000 ]
LCAOMinimize: Iter:   1  F: -1767.9739973261773684  |grad|_K:  1.157e-02  alpha:  4.237e-02  linmin: -4.406e-02  cgtest:  6.321e-01  t[s]:     62.12
LCAOMinimize: 	Wrong curvature in test step, increasing alphaT to 1.271219e-01.
	FillingsUpdate:  mu: +0.544036891  nElectrons: 340.000000  magneticMoment: [ Abs: 4.46766  Tot: -0.00000 ]
LCAOMinimize: Iter:   2  F: -1783.7738121996430891  |grad|_K:  1.333e-02  alpha: -3.187e-02  linmin: -3.954e-02  cgtest:  6.749e-01  t[s]:     82.43
LCAOMinimize: 	Step increased F by 5.689382e+02, reducing alpha to 1.145937e-02.
	FillingsUpdate:  mu: +0.418360698  nElectrons: 340.000000  magneticMoment: [ Abs: 4.31138  Tot: +0.00000 ]
LCAOMinimize: Iter:   3  F: -1788.6360775476887284  |grad|_K:  1.845e-02  alpha:  1.146e-02  linmin: -4.545e-02  cgtest:  6.699e-01  t[s]:    119.88
	FillingsUpdate:  mu: +1.014264862  nElectrons: 340.000000  magneticMoment: [ Abs: 6.11981  Tot: +0.00000 ]
LCAOMinimize: Iter:   4  F: -1794.2627228412452496  |grad|_K:  3.300e-02  alpha:  1.166e-02  linmin:  4.448e-02  cgtest: -1.675e-01  t[s]:    141.74
LCAOMinimize: 	Bad step direction: g.d > 0.
LCAOMinimize: 	Undoing step.
LCAOMinimize: 	Step failed: resetting search direction.
	FillingsUpdate:  mu: +1.014264862  nElectrons: 340.000000  magneticMoment: [ Abs: 6.11981  Tot: +0.00000 ]
LCAOMinimize: Iter:   5  F: -1794.2627228412452496  |grad|_K:  3.300e-02  alpha:  0.000e+00
LCAOMinimize: 	Wrong curvature in test step, increasing alphaT to 3.496798e-02.
	FillingsUpdate:  mu: +0.326454414  nElectrons: 340.000000  magneticMoment: [ Abs: 7.78328  Tot: +0.00000 ]
LCAOMinimize: Iter:   6  F: -1807.7849718895522528  |grad|_K:  1.765e-02  alpha: -4.537e-02  linmin: -1.406e-01  cgtest:  1.405e-01  t[s]:    177.69
LCAOMinimize: 	Step increased F by 1.375606e+02, reducing alpha to 2.878445e-02.
LCAOMinimize: 	Step increased F by 2.019356e+00, reducing alpha to 2.878445e-03.
	FillingsUpdate:  mu: +0.298812215  nElectrons: 340.000000  magneticMoment: [ Abs: 7.88121  Tot: -0.00000 ]
LCAOMinimize: Iter:   7  F: -1808.8174526143698131  |grad|_K:  1.602e-02  alpha:  2.878e-03  linmin: -1.189e-01  cgtest:  9.367e-01  t[s]:    229.40
LCAOMinimize: Encountered beta<0, resetting CG.
LCAOMinimize: 	Wrong curvature in test step, increasing alphaT to 8.635334e-03.
	FillingsUpdate:  mu: +0.266418143  nElectrons: 340.000000  magneticMoment: [ Abs: 8.04072  Tot: -0.00000 ]
LCAOMinimize: Iter:   8  F: -1809.5205317151912823  |grad|_K:  1.532e-02  alpha: -1.781e-01  linmin: -1.073e-01  cgtest:  9.494e-01  t[s]:    248.68
LCAOMinimize: 	Step increased F by 1.195027e+02, reducing alpha to 1.574374e-02.
	FillingsUpdate:  mu: +0.087406729  nElectrons: 340.000000  magneticMoment: [ Abs: 8.94107  Tot: +0.00000 ]
LCAOMinimize: Iter:   9  F: -1812.1892034754118868  |grad|_K:  1.009e-02  alpha:  1.574e-02  linmin: -1.241e-01  cgtest:  7.239e-01  t[s]:    284.19
LCAOMinimize: Encountered beta<0, resetting CG.
LCAOMinimize: 	Wrong curvature in test step, increasing alphaT to 4.723123e-02.
	FillingsUpdate:  mu: +0.064335086  nElectrons: 340.000000  magneticMoment: [ Abs: 9.22340  Tot: -0.00000 ]
LCAOMinimize: Iter:  10  F: -1813.8819059723875853  |grad|_K:  1.088e-02  alpha: -6.580e-02  linmin: -1.065e-01  cgtest:  7.862e-01  t[s]:    303.48
LCAOMinimize: 	Step increased F by 1.043972e+02, reducing alpha to 1.708343e-02.
	FillingsUpdate:  mu: +0.017430148  nElectrons: 340.000000  magneticMoment: [ Abs: 9.66724  Tot: -0.00000 ]
LCAOMinimize: Iter:  11  F: -1816.5915993664968937  |grad|_K:  9.423e-03  alpha:  1.708e-02  linmin: -1.178e-01  cgtest:  7.996e-01  t[s]:    339.07
LCAOMinimize: 	Predicted alpha/alphaT>3.000000, increasing alphaT to 5.125030e-02.
LCAOMinimize: 	Step increased F by 9.909267e+00, reducing alpha to 1.366559e-02.
	FillingsUpdate:  mu: +0.006356339  nElectrons: 340.000000  magneticMoment: [ Abs: 9.78519  Tot: +0.00000 ]
LCAOMinimize: Iter:  12  F: -1817.8353190260063457  |grad|_K:  8.429e-03  alpha:  1.367e-02  linmin: -1.207e-01  cgtest:  9.281e-01  t[s]:    380.59
LCAOMinimize: Encountered beta<0, resetting CG.
LCAOMinimize: 	Predicted alpha/alphaT>3.000000, increasing alphaT to 4.099677e-02.
LCAOMinimize: 	Predicted alpha/alphaT>3.000000, increasing alphaT to 1.229903e-01.
	FillingsUpdate:  mu: +0.104007499  nElectrons: 340.000000  magneticMoment: [ Abs: 10.58756  Tot: +0.00000 ]
LCAOMinimize: Iter:  13  F: -1820.4539735420073612  |grad|_K:  7.823e-03  alpha:  4.532e-02  linmin: -7.670e-02  cgtest:  6.133e-01  t[s]:    413.83
	FillingsUpdate:  mu: -0.013830177  nElectrons: 340.000000  magneticMoment: [ Abs: 11.08323  Tot: +0.00000 ]
LCAOMinimize: Iter:  14  F: -1821.6539542092496049  |grad|_K:  1.345e-02  alpha:  3.417e-02  linmin: -1.314e-03  cgtest: -3.187e-01  t[s]:    434.67
	FillingsUpdate:  mu: -0.017326270  nElectrons: 340.000000  magneticMoment: [ Abs: 11.62994  Tot: -0.00000 ]
LCAOMinimize: Iter:  15  F: -1822.2364205456556192  |grad|_K:  1.254e-02  alpha:  3.958e-03  linmin: -1.786e-02  cgtest:  9.888e-01  t[s]:    455.69
LCAOMinimize: Encountered beta<0, resetting CG.
	FillingsUpdate:  mu: +0.099159974  nElectrons: 340.000000  magneticMoment: [ Abs: 12.52814  Tot: +0.00000 ]
LCAOMinimize: Iter:  16  F: -1822.9035190375279853  |grad|_K:  5.869e-03  alpha:  9.844e-03  linmin:  5.405e-02  cgtest: -2.938e-01  t[s]:    476.97
LCAOMinimize: 	Predicted alpha/alphaT>3.000000, increasing alphaT to 2.953264e-02.
	FillingsUpdate:  mu: +0.238770998  nElectrons: 340.000000  magneticMoment: [ Abs: 14.32073  Tot: -0.00000 ]
LCAOMinimize: Iter:  17  F: -1823.6417471101647152  |grad|_K:  9.925e-03  alpha:  8.234e-02  linmin:  5.133e-02  cgtest:  3.837e-01  t[s]:    503.92
LCAOMinimize: 	Step increased F by 4.645964e-03, reducing alpha to 1.205393e-04.
	FillingsUpdate:  mu: +0.237418966  nElectrons: 340.000000  magneticMoment: [ Abs: 14.33394  Tot: +0.00000 ]
LCAOMinimize: Iter:  18  F: -1823.6423897796560141  |grad|_K:  9.937e-03  alpha:  1.205e-04  linmin: -2.262e-03  cgtest:  9.971e-01  t[s]:    539.61
LCAOMinimize: 	Wrong curvature in test step, increasing alphaT to 3.616179e-04.
	FillingsUpdate:  mu: +0.235695283  nElectrons: 340.000000  magneticMoment: [ Abs: 14.33732  Tot: +0.00000 ]
LCAOMinimize: Iter:  19  F: -1823.6536289495566052  |grad|_K:  9.904e-03  alpha: -1.045e+00  linmin: -1.910e-01  cgtest:  9.965e-01  t[s]:    559.43
LCAOMinimize: 	Step increased F by 1.855648e+01, reducing alpha to 2.882832e-02.
LCAOMinimize: 	Step increased F by 1.738868e-01, reducing alpha to 2.882832e-03.
	FillingsUpdate:  mu: +0.189397520  nElectrons: 340.000000  magneticMoment: [ Abs: 14.42803  Tot: -0.00000 ]
LCAOMinimize: Iter:  20  F: -1823.9155778534359342  |grad|_K:  8.691e-03  alpha:  2.883e-03  linmin: -1.895e-01  cgtest:  9.322e-01  t[s]:    610.86
LCAOMinimize: Encountered beta<0, resetting CG.
LCAOMinimize: 	Predicted alpha/alphaT>3.000000, increasing alphaT to 8.648495e-03.
	FillingsUpdate:  mu: +0.022593057  nElectrons: 340.000000  magneticMoment: [ Abs: 14.77177  Tot: -0.00000 ]
LCAOMinimize: Iter:  21  F: -1824.4034694239239798  |grad|_K:  5.565e-03  alpha:  1.552e-02  linmin:  4.998e-02  cgtest: -1.828e-01  t[s]:    638.15
	FillingsUpdate:  mu: +0.012589437  nElectrons: 340.000000  magneticMoment: [ Abs: 15.64463  Tot: +0.00000 ]
LCAOMinimize: Iter:  22  F: -1824.6300789417380201  |grad|_K:  3.672e-03  alpha:  2.082e-02  linmin: -2.487e-03  cgtest:  3.715e-01  t[s]:    659.60
	FillingsUpdate:  mu: +0.106250978  nElectrons: 340.000000  magneticMoment: [ Abs: 15.88709  Tot: +0.00000 ]
LCAOMinimize: Iter:  23  F: -1824.7832153586332424  |grad|_K:  3.092e-03  alpha:  2.404e-02  linmin:  2.565e-03  cgtest:  1.554e-02  t[s]:    681.12
	FillingsUpdate:  mu: +0.101438507  nElectrons: 340.000000  magneticMoment: [ Abs: 16.07904  Tot: -0.00000 ]
LCAOMinimize: Iter:  24  F: -1824.8920544286997938  |grad|_K:  3.147e-03  alpha:  2.472e-02  linmin: -2.603e-03  cgtest: -7.394e-02  t[s]:    702.46
	FillingsUpdate:  mu: +0.069725456  nElectrons: 340.000000  magneticMoment: [ Abs: 19.06290  Tot: -0.00000 ]
LCAOMinimize: Iter:  25  F: -1825.1939290270649963  |grad|_K:  2.076e-03  alpha:  6.510e-02  linmin:  7.783e-03  cgtest: -4.829e-01  t[s]:    723.84
	FillingsUpdate:  mu: +0.076348178  nElectrons: 340.000000  magneticMoment: [ Abs: 19.56289  Tot: -0.00000 ]
LCAOMinimize: Iter:  26  F: -1825.2251490902774549  |grad|_K:  1.275e-03  alpha:  2.181e-02  linmin: -8.002e-04  cgtest:  8.069e-01  t[s]:    745.27
LCAOMinimize: Encountered beta<0, resetting CG.
	FillingsUpdate:  mu: +0.114766299  nElectrons: 340.000000  magneticMoment: [ Abs: 19.69667  Tot: +0.00000 ]
LCAOMinimize: Iter:  27  F: -1825.2580790245203843  |grad|_K:  1.129e-03  alpha:  4.091e-02  linmin: -8.652e-03  cgtest:  9.532e-02  t[s]:    766.43
	FillingsUpdate:  mu: +0.089021536  nElectrons: 340.000000  magneticMoment: [ Abs: 20.88185  Tot: +0.00000 ]
LCAOMinimize: Iter:  28  F: -1825.2997979101251076  |grad|_K:  1.813e-03  alpha:  6.618e-02  linmin:  2.166e-03  cgtest: -5.205e-02  t[s]:    787.64
	FillingsUpdate:  mu: +0.078695779  nElectrons: 340.000000  magneticMoment: [ Abs: 21.92735  Tot: +0.00000 ]
LCAOMinimize: Iter:  29  F: -1825.3389205856972239  |grad|_K:  1.245e-03  alpha:  3.682e-02  linmin:  1.131e-03  cgtest:  2.685e-01  t[s]:    809.07
	FillingsUpdate:  mu: +0.106758606  nElectrons: 340.000000  magneticMoment: [ Abs: 22.48262  Tot: -0.00000 ]
LCAOMinimize: Iter:  30  F: -1825.3802936666634196  |grad|_K:  7.811e-04  alpha:  5.402e-02  linmin: -8.284e-03  cgtest:  3.185e-01  t[s]:    830.71
LCAOMinimize: None of the convergence criteria satisfied after 30 iterations.


---- Citations for features of the code used in this run ----

   Software package:
      R. Sundararaman, K. Letchworth-Weaver, K.A. Schwarz, D. Gunceler, Y. Ozhabes and T.A. Arias, 'JDFTx: software for joint density-functional theory', SoftwareX 6, 278 (2017)

   Simplified rotationally-invariant DFT+U:
      S. L. Dudarev et al., Phys. Rev. B 57, 1505 (1998)

   LibXC library of exchange-correlation functions:
      M. A. L. Marques, M. J. T. Oliveira and T. Burnus, Comput. Phys. Commun. 183, 2272 (2012)

   Hammer, Hansen, and Norskov exchange functional:
      B. Hammer, L. B. Hansen, and J. K. Nørskov, Phys. Rev. B 59, 7413 (1999)

   Perdew, Burke & Ernzerhof correlation functional:
      J. P. Perdew, K. Burke, and M. Ernzerhof, Phys. Rev. Lett. 77, 3865 (1996)

   Pseudopotentials:
      M Schlipf and F Gygi, Comput. Phys. Commun. 196, 36 (2015)

   Total energy minimization with Auxiliary Hamiltonian:
      C. Freysoldt, S. Boeck, and J. Neugebauer, Phys. Rev. B 79, 241103(R) (2009)

This list may not be complete. Please suggest additional citations or
report any other bugs at https://github.com/shankar1729/jdftx/issues

Initialization completed successfully at t[s]:    838.31


-------- Electronic minimization -----------
	FillingsUpdate:  mu: +0.106758629  nElectrons: 340.000000  magneticMoment: [ Abs: 22.48262  Tot: -0.00000 ]
ElecMinimize: Iter:   0  F: -1825.380293666653870  |grad|_K:  8.645e-04  alpha:  1.000e+00
	FillingsUpdate:  mu: +0.276333873  nElectrons: 340.000000  magneticMoment: [ Abs: 25.46462  Tot: -0.00000 ]
	SubspaceRotationAdjust: set factor to 0.997
ElecMinimize: Iter:   1  F: -1862.038808350235740  |grad|_K:  1.035e-03  alpha:  4.846e-01  linmin:  8.660e-03  t[s]:    905.88
ElecMinimize: 	Step increased F by 3.580052e-02, reducing alpha to 1.412933e-02.
	FillingsUpdate:  mu: +0.244080025  nElectrons: 340.000000  magneticMoment: [ Abs: 25.28814  Tot: +0.00000 ]
	SubspaceRotationAdjust: set factor to 1.17
ElecMinimize: Iter:   2  F: -1864.429919106224361  |grad|_K:  7.090e-04  alpha:  1.413e-02  linmin: -3.177e-03  t[s]:    980.96
ElecMinimize: 	Predicted alpha/alphaT>3.000000, increasing alphaT to 4.238800e-02.
	FillingsUpdate:  mu: +0.540628435  nElectrons: 340.000000  magneticMoment: [ Abs: 24.69736  Tot: -0.00000 ]
	SubspaceRotationAdjust: set factor to 0.672
ElecMinimize: Iter:   3  F: -1874.309117847937614  |grad|_K:  1.376e-03  alpha:  8.766e-02  linmin:  8.431e-04  t[s]:   1040.29
	FillingsUpdate:  mu: +0.567745408  nElectrons: 340.000000  magneticMoment: [ Abs: 25.71759  Tot: -0.00000 ]
	SubspaceRotationAdjust: set factor to 0.455
ElecMinimize: Iter:   4  F: -1878.375407264004480  |grad|_K:  8.400e-04  alpha:  8.387e-03  linmin: -2.299e-03  t[s]:   1085.57
	FillingsUpdate:  mu: +0.281164633  nElectrons: 340.000000  magneticMoment: [ Abs: 28.10532  Tot: +0.00000 ]
	SubspaceRotationAdjust: set factor to 0.527
ElecMinimize: Iter:   5  F: -1883.184077261355696  |grad|_K:  4.851e-04  alpha:  2.091e-02  linmin: -2.240e-03  t[s]:   1131.55
	FillingsUpdate:  mu: +0.431853533  nElectrons: 340.000000  magneticMoment: [ Abs: 29.30304  Tot: -0.00000 ]
	SubspaceRotationAdjust: set factor to 0.535
ElecMinimize: Iter:   6  F: -1886.550293310210463  |grad|_K:  4.166e-04  alpha:  4.742e-02  linmin: -8.933e-04  t[s]:   1178.08
	FillingsUpdate:  mu: +0.440939944  nElectrons: 340.000000  magneticMoment: [ Abs: 28.96546  Tot: -0.00000 ]
	SubspaceRotationAdjust: set factor to 0.38
ElecMinimize: Iter:   7  F: -1888.959056643249369  |grad|_K:  4.461e-04  alpha:  6.580e-02  linmin:  5.045e-04  t[s]:   1223.98
	FillingsUpdate:  mu: +0.376617548  nElectrons: 340.000000  magneticMoment: [ Abs: 28.20321  Tot: -0.00000 ]
	SubspaceRotationAdjust: set factor to 0.292
ElecMinimize: Iter:   8  F: -1889.569491303302129  |grad|_K:  4.072e-04  alpha:  1.940e-02  linmin:  1.309e-04  t[s]:   1269.92
	FillingsUpdate:  mu: +0.123386039  nElectrons: 340.000000  magneticMoment: [ Abs: 26.89295  Tot: +0.00000 ]
	SubspaceRotationAdjust: set factor to 0.34
ElecMinimize: Iter:   9  F: -1890.239402569824051  |grad|_K:  3.253e-04  alpha:  2.878e-02  linmin:  8.648e-04  t[s]:   1315.18
	FillingsUpdate:  mu: +0.094876718  nElectrons: 340.000000  magneticMoment: [ Abs: 27.06364  Tot: +0.00000 ]
	SubspaceRotationAdjust: set factor to 0.389
ElecMinimize: Iter:  10  F: -1890.407030629530482  |grad|_K:  3.246e-04  alpha:  1.324e-02  linmin: -6.710e-05  t[s]:   1360.01
	FillingsUpdate:  mu: +0.119053510  nElectrons: 340.000000  magneticMoment: [ Abs: 27.76034  Tot: +0.00000 ]
	SubspaceRotationAdjust: set factor to 0.425
ElecMinimize: Iter:  11  F: -1890.705748007454304  |grad|_K:  3.153e-04  alpha:  1.611e-02  linmin:  1.314e-04  t[s]:   1406.11
	FillingsUpdate:  mu: +0.113840647  nElectrons: 340.000000  magneticMoment: [ Abs: 28.47495  Tot: -0.00000 ]
	SubspaceRotationAdjust: set factor to 0.404
ElecMinimize: Iter:  12  F: -1890.898202463991765  |grad|_K:  3.180e-04  alpha:  1.201e-02  linmin: -1.336e-05  t[s]:   1451.82
	FillingsUpdate:  mu: +0.108820227  nElectrons: 340.000000  magneticMoment: [ Abs: 29.24798  Tot: -0.00000 ]
	SubspaceRotationAdjust: set factor to 0.35
ElecMinimize: Iter:  13  F: -1891.133288440404385  |grad|_K:  3.079e-04  alpha:  1.319e-02  linmin: -6.890e-05  t[s]:   1497.38
	FillingsUpdate:  mu: +0.116790843  nElectrons: 340.000000  magneticMoment: [ Abs: 29.91539  Tot: -0.00000 ]
	SubspaceRotationAdjust: set factor to 0.289
ElecMinimize: Iter:  14  F: -1891.408562542140317  |grad|_K:  2.867e-04  alpha:  1.582e-02  linmin: -1.033e-04  t[s]:   1542.89
	FillingsUpdate:  mu: +0.146006075  nElectrons: 340.000000  magneticMoment: [ Abs: 30.48848  Tot: -0.00000 ]
	SubspaceRotationAdjust: set factor to 0.253
ElecMinimize: Iter:  15  F: -1891.723396606117149  |grad|_K:  2.571e-04  alpha:  2.046e-02  linmin: -8.332e-05  t[s]:   1589.03
	FillingsUpdate:  mu: +0.152992383  nElectrons: 340.000000  magneticMoment: [ Abs: 31.06998  Tot: +0.00000 ]
	SubspaceRotationAdjust: set factor to 0.303
ElecMinimize: Iter:  16  F: -1892.031282435785670  |grad|_K:  2.265e-04  alpha:  2.561e-02  linmin:  1.706e-05  t[s]:   1634.53
	FillingsUpdate:  mu: +0.186949647  nElectrons: 340.000000  magneticMoment: [ Abs: 31.64876  Tot: +0.00000 ]
	SubspaceRotationAdjust: set factor to 0.404
ElecMinimize: Iter:  17  F: -1892.226272446362145  |grad|_K:  2.220e-04  alpha:  2.134e-02  linmin:  5.269e-05  t[s]:   1679.73
	FillingsUpdate:  mu: +0.213435283  nElectrons: 340.000000  magneticMoment: [ Abs: 32.19468  Tot: +0.00000 ]
	SubspaceRotationAdjust: set factor to 0.418
ElecMinimize: Iter:  18  F: -1892.351042713106835  |grad|_K:  2.480e-04  alpha:  1.495e-02  linmin:  1.656e-05  t[s]:   1724.82
	FillingsUpdate:  mu: +0.290648244  nElectrons: 340.000000  magneticMoment: [ Abs: 32.64031  Tot: -0.00000 ]
	SubspaceRotationAdjust: set factor to 0.365
ElecMinimize: Iter:  19  F: -1892.526990388721288  |grad|_K:  2.690e-04  alpha:  1.650e-02  linmin: -6.523e-05  t[s]:   1769.88
	FillingsUpdate:  mu: +0.261238532  nElectrons: 340.000000  magneticMoment: [ Abs: 32.75113  Tot: -0.00000 ]
	SubspaceRotationAdjust: set factor to 0.328
ElecMinimize: Iter:  20  F: -1892.697840429270627  |grad|_K:  2.610e-04  alpha:  1.289e-02  linmin:  2.893e-05  t[s]:   1815.11
	FillingsUpdate:  mu: +0.215116844  nElectrons: 340.000000  magneticMoment: [ Abs: 32.61804  Tot: +0.00000 ]
	SubspaceRotationAdjust: set factor to 0.461
ElecMinimize: Iter:  21  F: -1892.850349987500294  |grad|_K:  2.148e-04  alpha:  1.333e-02  linmin:  1.330e-04  t[s]:   1860.81
	FillingsUpdate:  mu: +0.183782761  nElectrons: 340.000000  magneticMoment: [ Abs: 32.60809  Tot: -0.00000 ]
	SubspaceRotationAdjust: set factor to 0.583
ElecMinimize: Iter:  22  F: -1892.905040577421460  |grad|_K:  2.132e-04  alpha:  7.855e-03  linmin:  7.540e-06  t[s]:   1906.66
	FillingsUpdate:  mu: +0.171499647  nElectrons: 340.000000  magneticMoment: [ Abs: 32.70400  Tot: +0.00000 ]
	SubspaceRotationAdjust: set factor to 0.523
ElecMinimize: Iter:  23  F: -1892.975220094979704  |grad|_K:  2.440e-04  alpha:  8.905e-03  linmin: -1.608e-05  t[s]:   1951.91
	FillingsUpdate:  mu: +0.149124340  nElectrons: 340.000000  magneticMoment: [ Abs: 32.91572  Tot: +0.00000 ]
	SubspaceRotationAdjust: set factor to 0.356
ElecMinimize: Iter:  24  F: -1893.089665739863676  |grad|_K:  2.903e-04  alpha:  1.082e-02  linmin: -5.577e-06  t[s]:   1997.97
	FillingsUpdate:  mu: +0.122816912  nElectrons: 340.000000  magneticMoment: [ Abs: 33.04984  Tot: -0.00000 ]
	SubspaceRotationAdjust: set factor to 0.235
ElecMinimize: Iter:  25  F: -1893.250772130039422  |grad|_K:  2.814e-04  alpha:  1.091e-02  linmin:  3.224e-05  t[s]:   2043.44
	FillingsUpdate:  mu: +0.127513083  nElectrons: 340.000000  magneticMoment: [ Abs: 33.20936  Tot: +0.00000 ]
	SubspaceRotationAdjust: set factor to 0.208
ElecMinimize: Iter:  26  F: -1893.383068144846447  |grad|_K:  2.172e-04  alpha:  9.736e-03  linmin:  5.990e-05  t[s]:   2089.27
	FillingsUpdate:  mu: +0.136137878  nElectrons: 340.000000  magneticMoment: [ Abs: 33.26191  Tot: -0.00000 ]
	SubspaceRotationAdjust: set factor to 0.277
ElecMinimize: Iter:  27  F: -1893.448185643334682  |grad|_K:  1.866e-04  alpha:  8.604e-03  linmin: -2.487e-05  t[s]:   2135.65
	FillingsUpdate:  mu: +0.146710476  nElectrons: 340.000000  magneticMoment: [ Abs: 33.28019  Tot: +0.00000 ]
	SubspaceRotationAdjust: set factor to 0.36
ElecMinimize: Iter:  28  F: -1893.533633872426435  |grad|_K:  1.762e-04  alpha:  1.302e-02  linmin: -1.020e-04  t[s]:   2180.97
	FillingsUpdate:  mu: +0.153209144  nElectrons: 340.000000  magneticMoment: [ Abs: 33.31184  Tot: -0.00000 ]
	SubspaceRotationAdjust: set factor to 0.412
ElecMinimize: Iter:  29  F: -1893.618925252089639  |grad|_K:  1.729e-04  alpha:  1.464e-02  linmin:  1.977e-04  t[s]:   2226.40
	FillingsUpdate:  mu: +0.148035445  nElectrons: 340.000000  magneticMoment: [ Abs: 33.32893  Tot: -0.00000 ]
	SubspaceRotationAdjust: set factor to 0.489
ElecMinimize: Iter:  30  F: -1893.643554620216946  |grad|_K:  1.900e-04  alpha:  5.491e-03  linmin: -5.264e-05  t[s]:   2272.15
	FillingsUpdate:  mu: +0.165980787  nElectrons: 340.000000  magneticMoment: [ Abs: 33.38717  Tot: -0.00000 ]
	SubspaceRotationAdjust: set factor to 0.362
ElecMinimize: Iter:  31  F: -1893.694667121421617  |grad|_K:  2.399e-04  alpha:  7.848e-03  linmin:  5.962e-05  t[s]:   2317.42
	FillingsUpdate:  mu: +0.195690960  nElectrons: 340.000000  magneticMoment: [ Abs: 33.49901  Tot: -0.00000 ]
	SubspaceRotationAdjust: set factor to 0.246
ElecMinimize: Iter:  32  F: -1893.745258067834584  |grad|_K:  2.474e-04  alpha:  5.427e-03  linmin:  4.377e-06  t[s]:   2362.90
	FillingsUpdate:  mu: +0.206921789  nElectrons: 340.000000  magneticMoment: [ Abs: 33.72523  Tot: +0.00000 ]
	SubspaceRotationAdjust: set factor to 0.172
ElecMinimize: Iter:  33  F: -1893.817224184229190  |grad|_K:  2.182e-04  alpha:  6.724e-03  linmin: -3.263e-05  t[s]:   2408.66
	FillingsUpdate:  mu: +0.202608942  nElectrons: 340.000000  magneticMoment: [ Abs: 33.98961  Tot: -0.00000 ]
	SubspaceRotationAdjust: set factor to 0.141
ElecMinimize: Iter:  34  F: -1893.893187923808910  |grad|_K:  1.754e-04  alpha:  8.739e-03  linmin: -4.566e-05  t[s]:   2454.21
	FillingsUpdate:  mu: +0.187140840  nElectrons: 340.000000  magneticMoment: [ Abs: 34.20872  Tot: +0.00000 ]
	SubspaceRotationAdjust: set factor to 0.147
ElecMinimize: Iter:  35  F: -1893.959406298957447  |grad|_K:  1.488e-04  alpha:  1.173e-02  linmin: -2.334e-05  t[s]:   2499.70
	FillingsUpdate:  mu: +0.166576490  nElectrons: 340.000000  magneticMoment: [ Abs: 34.34882  Tot: +0.00000 ]
	SubspaceRotationAdjust: set factor to 0.188
ElecMinimize: Iter:  36  F: -1894.011847662783339  |grad|_K:  1.363e-04  alpha:  1.337e-02  linmin:  3.070e-05  t[s]:   2545.17
	FillingsUpdate:  mu: +0.155870739  nElectrons: 340.000000  magneticMoment: [ Abs: 34.42968  Tot: +0.00000 ]
	SubspaceRotationAdjust: set factor to 0.242
ElecMinimize: Iter:  37  F: -1894.042194826555715  |grad|_K:  1.340e-04  alpha:  8.596e-03  linmin: -4.176e-05  t[s]:   2590.25
	FillingsUpdate:  mu: +0.146143312  nElectrons: 340.000000  magneticMoment: [ Abs: 34.48252  Tot: +0.00000 ]
	SubspaceRotationAdjust: set factor to 0.293
ElecMinimize: Iter:  38  F: -1894.060092483459812  |grad|_K:  1.341e-04  alpha:  4.523e-03  linmin: -1.531e-04  t[s]:   2635.17
	FillingsUpdate:  mu: +0.140263797  nElectrons: 340.000000  magneticMoment: [ Abs: 34.52858  Tot: -0.00000 ]
	SubspaceRotationAdjust: set factor to 0.341
ElecMinimize: Iter:  39  F: -1894.071857930666965  |grad|_K:  1.330e-04  alpha:  2.813e-03  linmin: -7.002e-05  t[s]:   2680.29
	FillingsUpdate:  mu: +0.137297766  nElectrons: 340.000000  magneticMoment: [ Abs: 34.55730  Tot: -0.00000 ]
	SubspaceRotationAdjust: set factor to 0.38
ElecMinimize: Iter:  40  F: -1894.077021184508567  |grad|_K:  1.333e-04  alpha:  1.331e-03  linmin: -1.331e-04  t[s]:   2725.86
	FillingsUpdate:  mu: +0.134075539  nElectrons: 340.000000  magneticMoment: [ Abs: 34.58381  Tot: -0.00000 ]
	SubspaceRotationAdjust: set factor to 0.41
ElecMinimize: Iter:  41  F: -1894.080750436295375  |grad|_K:  1.329e-04  alpha:  1.025e-03  linmin:  3.003e-05  t[s]:   2771.37
	FillingsUpdate:  mu: +0.132485348  nElectrons: 340.000000  magneticMoment: [ Abs: 34.60084  Tot: -0.00000 ]
	SubspaceRotationAdjust: set factor to 0.428
ElecMinimize: Iter:  42  F: -1894.082601701914200  |grad|_K:  1.333e-04  alpha:  5.713e-04  linmin: -3.884e-05  t[s]:   2816.91
	FillingsUpdate:  mu: +0.130778618  nElectrons: 340.000000  magneticMoment: [ Abs: 34.61709  Tot: -0.00000 ]
	SubspaceRotationAdjust: set factor to 0.437
ElecMinimize: Iter:  43  F: -1894.084164635471097  |grad|_K:  1.332e-04  alpha:  4.798e-04  linmin:  3.145e-05  t[s]:   2862.51
	FillingsUpdate:  mu: +0.129174168  nElectrons: 340.000000  magneticMoment: [ Abs: 34.63010  Tot: -0.00000 ]
	SubspaceRotationAdjust: set factor to 0.439
ElecMinimize: Iter:  44  F: -1894.085257085197554  |grad|_K:  1.328e-04  alpha:  3.576e-04  linmin:  9.349e-06  t[s]:   2907.44
	FillingsUpdate:  mu: +0.127580368  nElectrons: 340.000000  magneticMoment: [ Abs: 34.64191  Tot: -0.00000 ]
	SubspaceRotationAdjust: set factor to 0.437
ElecMinimize: Iter:  45  F: -1894.086245208168293  |grad|_K:  1.321e-04  alpha:  3.232e-04  linmin:  1.560e-05  t[s]:   2953.08
	FillingsUpdate:  mu: +0.126103528  nElectrons: 340.000000  magneticMoment: [ Abs: 34.65230  Tot: -0.00000 ]
	SubspaceRotationAdjust: set factor to 0.432
ElecMinimize: Iter:  46  F: -1894.087139711289865  |grad|_K:  1.311e-04  alpha:  2.979e-04  linmin:  1.017e-05  t[s]:   2998.73
	FillingsUpdate:  mu: +0.124895462  nElectrons: 340.000000  magneticMoment: [ Abs: 34.66168  Tot: +0.00000 ]
	SubspaceRotationAdjust: set factor to 0.425
ElecMinimize: Iter:  47  F: -1894.087994074858898  |grad|_K:  1.298e-04  alpha:  2.878e-04  linmin:  6.997e-06  t[s]:   3044.08
	FillingsUpdate:  mu: +0.123832888  nElectrons: 340.000000  magneticMoment: [ Abs: 34.67045  Tot: -0.00000 ]
	SubspaceRotationAdjust: set factor to 0.417
ElecMinimize: Iter:  48  F: -1894.088824818344619  |grad|_K:  1.283e-04  alpha:  2.847e-04  linmin:  2.510e-06  t[s]:   3089.58
	FillingsUpdate:  mu: +0.123075353  nElectrons: 340.000000  magneticMoment: [ Abs: 34.67923  Tot: -0.00000 ]
	SubspaceRotationAdjust: set factor to 0.408
ElecMinimize: Iter:  49  F: -1894.089654345148574  |grad|_K:  1.266e-04  alpha:  2.899e-04  linmin: -4.525e-06  t[s]:   3135.23
	FillingsUpdate:  mu: +0.123289691  nElectrons: 340.000000  magneticMoment: [ Abs: 34.68862  Tot: -0.00000 ]
	SubspaceRotationAdjust: set factor to 0.399
ElecMinimize: Iter:  50  F: -1894.090513776958687  |grad|_K:  1.246e-04  alpha:  3.066e-04  linmin: -1.445e-05  t[s]:   3180.57
	FillingsUpdate:  mu: +0.124746164  nElectrons: 340.000000  magneticMoment: [ Abs: 34.69907  Tot: +0.00000 ]
	SubspaceRotationAdjust: set factor to 0.39
ElecMinimize: Iter:  51  F: -1894.091439535630798  |grad|_K:  1.223e-04  alpha:  3.377e-04  linmin: -2.375e-05  t[s]:   3226.23
	FillingsUpdate:  mu: +0.126993281  nElectrons: 340.000000  magneticMoment: [ Abs: 34.71034  Tot: -0.00000 ]
	SubspaceRotationAdjust: set factor to 0.379
ElecMinimize: Iter:  52  F: -1894.092451934347764  |grad|_K:  1.199e-04  alpha:  3.800e-04  linmin: -2.592e-05  t[s]:   3271.27
	FillingsUpdate:  mu: +0.127639196  nElectrons: 340.000000  magneticMoment: [ Abs: 34.72131  Tot: -0.00000 ]
	SubspaceRotationAdjust: set factor to 0.363
ElecMinimize: Iter:  53  F: -1894.093539995217043  |grad|_K:  1.174e-04  alpha:  4.248e-04  linmin: -2.611e-05  t[s]:   3317.13
	FillingsUpdate:  mu: +0.128819062  nElectrons: 340.000000  magneticMoment: [ Abs: 34.73105  Tot: +0.00000 ]
	SubspaceRotationAdjust: set factor to 0.343
ElecMinimize: Iter:  54  F: -1894.094718583043914  |grad|_K:  1.149e-04  alpha:  4.793e-04  linmin: -3.619e-05  t[s]:   3363.03
	FillingsUpdate:  mu: +0.131866258  nElectrons: 340.000000  magneticMoment: [ Abs: 34.73970  Tot: -0.00000 ]
	SubspaceRotationAdjust: set factor to 0.315
ElecMinimize: Iter:  55  F: -1894.096069005002391  |grad|_K:  1.122e-04  alpha:  5.671e-04  linmin: -5.625e-05  t[s]:   3408.23
	FillingsUpdate:  mu: +0.135026042  nElectrons: 340.000000  magneticMoment: [ Abs: 34.74956  Tot: -0.00000 ]
	SubspaceRotationAdjust: set factor to 0.282
ElecMinimize: Iter:  56  F: -1894.097751395577461  |grad|_K:  1.086e-04  alpha:  7.226e-04  linmin: -1.121e-04  t[s]:   3453.42
	FillingsUpdate:  mu: +0.138723156  nElectrons: 340.000000  magneticMoment: [ Abs: 34.76951  Tot: -0.00000 ]
	SubspaceRotationAdjust: set factor to 0.243
ElecMinimize: Iter:  57  F: -1894.100348601387168  |grad|_K:  1.030e-04  alpha:  1.108e-03  linmin: -2.356e-04  t[s]:   3499.22
	FillingsUpdate:  mu: +0.142115194  nElectrons: 340.000000  magneticMoment: [ Abs: 34.81002  Tot: +0.00000 ]
	SubspaceRotationAdjust: set factor to 0.201
ElecMinimize: Iter:  58  F: -1894.103737042479452  |grad|_K:  9.526e-05  alpha:  1.667e-03  linmin:  2.349e-04  t[s]:   3544.92
	FillingsUpdate:  mu: +0.144627761  nElectrons: 340.000000  magneticMoment: [ Abs: 34.83327  Tot: +0.00000 ]
	SubspaceRotationAdjust: set factor to 0.172
ElecMinimize: Iter:  59  F: -1894.105001483429078  |grad|_K:  8.858e-05  alpha:  8.802e-04  linmin: -3.770e-05  t[s]:   3590.39
	FillingsUpdate:  mu: +0.144185843  nElectrons: 340.000000  magneticMoment: [ Abs: 34.86073  Tot: +0.00000 ]
	SubspaceRotationAdjust: set factor to 0.149
ElecMinimize: Iter:  60  F: -1894.106429074584412  |grad|_K:  8.288e-05  alpha:  1.031e-03  linmin:  5.287e-05  t[s]:   3636.49
	FillingsUpdate:  mu: +0.144037058  nElectrons: 340.000000  magneticMoment: [ Abs: 34.88563  Tot: +0.00000 ]
	SubspaceRotationAdjust: set factor to 0.132
	SubspaceRotationAdjust: resetting CG because factor has changed by 0.13235
ElecMinimize: 	State modified externally: resetting search direction.
ElecMinimize: Iter:  61  F: -1894.107538665151651  |grad|_K:  7.562e-05  alpha:  9.508e-04
ElecMinimize: 	Predicted alpha/alphaT>3.000000, increasing alphaT to 2.852472e-03.
ElecMinimize: 	Predicted alpha/alphaT>3.000000, increasing alphaT to 8.557417e-03.
ElecMinimize: 	Predicted alpha/alphaT>3.000000, increasing alphaT to 2.567225e-02.
	FillingsUpdate:  mu: +0.168992727  nElectrons: 340.000000  magneticMoment: [ Abs: 35.21547  Tot: -0.00000 ]
	SubspaceRotationAdjust: set factor to 0.08
ElecMinimize: Iter:  62  F: -1894.292489464928394  |grad|_K:  7.954e-05  alpha:  2.447e-01  linmin:  2.293e-02  t[s]:   3774.34
	FillingsUpdate:  mu: +0.116353563  nElectrons: 340.000000  magneticMoment: [ Abs: 35.17022  Tot: -0.00000 ]
	SubspaceRotationAdjust: set factor to 0.119
ElecMinimize: Iter:  63  F: -1894.485892481087603  |grad|_K:  5.796e-05  alpha:  2.335e-01  linmin: -1.906e-03  t[s]:   3819.86
	FillingsUpdate:  mu: +0.121977384  nElectrons: 340.000000  magneticMoment: [ Abs: 35.29173  Tot: +0.00000 ]
	SubspaceRotationAdjust: set factor to 0.138
ElecMinimize: Iter:  64  F: -1894.665558153352094  |grad|_K:  4.000e-05  alpha:  2.908e-01  linmin: -5.604e-03  t[s]:   3864.73
	FillingsUpdate:  mu: +0.132986144  nElectrons: 340.000000  magneticMoment: [ Abs: 35.51582  Tot: +0.00000 ]
	SubspaceRotationAdjust: set factor to 0.127
ElecMinimize: Iter:  65  F: -1894.748491496038241  |grad|_K:  3.034e-05  alpha:  2.753e-01  linmin: -6.527e-04  t[s]:   3910.73
	FillingsUpdate:  mu: +0.124160527  nElectrons: 340.000000  magneticMoment: [ Abs: 35.44472  Tot: -0.00000 ]
	SubspaceRotationAdjust: set factor to 0.13
ElecMinimize: Iter:  66  F: -1894.796387542947514  |grad|_K:  2.490e-05  alpha:  2.959e-01  linmin:  7.605e-04  t[s]:   3956.44
	FillingsUpdate:  mu: +0.136951515  nElectrons: 340.000000  magneticMoment: [ Abs: 35.58537  Tot: +0.00000 ]
	SubspaceRotationAdjust: set factor to 0.159
ElecMinimize: Iter:  67  F: -1894.839086397673327  |grad|_K:  2.077e-05  alpha:  3.999e-01  linmin: -8.757e-04  t[s]:   4002.50
	FillingsUpdate:  mu: +0.127806002  nElectrons: 340.000000  magneticMoment: [ Abs: 35.83822  Tot: +0.00000 ]
	SubspaceRotationAdjust: set factor to 0.175
ElecMinimize: Iter:  68  F: -1894.869857239644034  |grad|_K:  2.020e-05  alpha:  3.937e-01  linmin: -4.727e-04  t[s]:   4048.34
	FillingsUpdate:  mu: +0.121251749  nElectrons: 340.000000  magneticMoment: [ Abs: 35.95815  Tot: -0.00000 ]
	SubspaceRotationAdjust: set factor to 0.142
ElecMinimize: Iter:  69  F: -1894.889218466381863  |grad|_K:  1.778e-05  alpha:  2.730e-01  linmin: -1.243e-04  t[s]:   4093.87
	FillingsUpdate:  mu: +0.122962850  nElectrons: 340.000000  magneticMoment: [ Abs: 36.20382  Tot: -0.00000 ]
	SubspaceRotationAdjust: set factor to 0.132
ElecMinimize: Iter:  70  F: -1894.904547882308179  |grad|_K:  1.273e-05  alpha:  2.763e-01  linmin: -7.138e-05  t[s]:   4139.65
	FillingsUpdate:  mu: +0.126335829  nElectrons: 340.000000  magneticMoment: [ Abs: 36.36928  Tot: +0.00000 ]
	SubspaceRotationAdjust: set factor to 0.151
ElecMinimize: Iter:  71  F: -1894.916460601736844  |grad|_K:  1.003e-05  alpha:  4.167e-01  linmin: -2.726e-04  t[s]:   4184.88
	FillingsUpdate:  mu: +0.126364100  nElectrons: 340.000000  magneticMoment: [ Abs: 36.51018  Tot: +0.00000 ]
	SubspaceRotationAdjust: set factor to 0.172
ElecMinimize: Iter:  72  F: -1894.923954360049265  |grad|_K:  8.368e-06  alpha:  4.185e-01  linmin: -1.508e-04  t[s]:   4230.36
	FillingsUpdate:  mu: +0.126136992  nElectrons: 340.000000  magneticMoment: [ Abs: 36.69600  Tot: +0.00000 ]
	SubspaceRotationAdjust: set factor to 0.17
ElecMinimize: Iter:  73  F: -1894.928714421547284  |grad|_K:  8.067e-06  alpha:  3.860e-01  linmin: -4.186e-05  t[s]:   4276.12
	FillingsUpdate:  mu: +0.123604874  nElectrons: 340.000000  magneticMoment: [ Abs: 36.83258  Tot: -0.00000 ]
	SubspaceRotationAdjust: set factor to 0.154
ElecMinimize: Iter:  74  F: -1894.932650980869539  |grad|_K:  7.363e-06  alpha:  3.495e-01  linmin: -3.603e-04  t[s]:   4321.81
	FillingsUpdate:  mu: +0.126675607  nElectrons: 340.000000  magneticMoment: [ Abs: 37.07418  Tot: -0.00000 ]
	SubspaceRotationAdjust: set factor to 0.145
ElecMinimize: Iter:  75  F: -1894.936310947274023  |grad|_K:  6.743e-06  alpha:  3.774e-01  linmin:  5.885e-04  t[s]:   4367.36
	FillingsUpdate:  mu: +0.125891041  nElectrons: 340.000000  magneticMoment: [ Abs: 37.32563  Tot: -0.00000 ]
	SubspaceRotationAdjust: set factor to 0.188
ElecMinimize: Iter:  76  F: -1894.939445479920323  |grad|_K:  6.319e-06  alpha:  4.201e-01  linmin: -1.693e-05  t[s]:   4412.63
	FillingsUpdate:  mu: +0.124319209  nElectrons: 340.000000  magneticMoment: [ Abs: 37.53068  Tot: -0.00000 ]
	SubspaceRotationAdjust: set factor to 0.197
ElecMinimize: Iter:  77  F: -1894.942004788535314  |grad|_K:  5.556e-06  alpha:  3.736e-01  linmin: -5.437e-04  t[s]:   4458.54
	FillingsUpdate:  mu: +0.126883628  nElectrons: 340.000000  magneticMoment: [ Abs: 37.91380  Tot: +0.00000 ]
	SubspaceRotationAdjust: set factor to 0.202
ElecMinimize: Iter:  78  F: -1894.944662157957964  |grad|_K:  7.544e-06  alpha:  5.034e-01  linmin:  1.559e-03  t[s]:   4504.82
	FillingsUpdate:  mu: +0.127019395  nElectrons: 340.000000  magneticMoment: [ Abs: 38.21293  Tot: -0.00000 ]
	SubspaceRotationAdjust: set factor to 0.256
ElecMinimize: Iter:  79  F: -1894.947116003823339  |grad|_K:  7.567e-06  alpha:  2.797e-01  linmin: -1.520e-04  t[s]:   4550.62
	FillingsUpdate:  mu: +0.126807251  nElectrons: 340.000000  magneticMoment: [ Abs: 38.34505  Tot: -0.00000 ]
	SubspaceRotationAdjust: set factor to 0.26
ElecMinimize: Iter:  80  F: -1894.948978622124059  |grad|_K:  6.721e-06  alpha:  1.747e-01  linmin: -1.677e-04  t[s]:   4596.56
	FillingsUpdate:  mu: +0.124395274  nElectrons: 340.000000  magneticMoment: [ Abs: 38.49774  Tot: -0.00000 ]
	SubspaceRotationAdjust: set factor to 0.319
ElecMinimize: Iter:  81  F: -1894.950299870565686  |grad|_K:  5.865e-06  alpha:  1.641e-01  linmin:  5.157e-05  t[s]:   4642.40
	FillingsUpdate:  mu: +0.124611265  nElectrons: 340.000000  magneticMoment: [ Abs: 38.66276  Tot: -0.00000 ]
	SubspaceRotationAdjust: set factor to 0.369
ElecMinimize: Iter:  82  F: -1894.951617420110097  |grad|_K:  6.420e-06  alpha:  2.204e-01  linmin: -1.061e-04  t[s]:   4688.18
	FillingsUpdate:  mu: +0.126540348  nElectrons: 340.000000  magneticMoment: [ Abs: 38.80548  Tot: +0.00000 ]
	SubspaceRotationAdjust: set factor to 0.368
ElecMinimize: Iter:  83  F: -1894.952912931202718  |grad|_K:  8.093e-06  alpha:  1.781e-01  linmin: -2.215e-05  t[s]:   4733.62
	FillingsUpdate:  mu: +0.125422651  nElectrons: 340.000000  magneticMoment: [ Abs: 39.03135  Tot: +0.00000 ]
	SubspaceRotationAdjust: set factor to 0.37
ElecMinimize: Iter:  84  F: -1894.954278488944965  |grad|_K:  8.193e-06  alpha:  1.223e-01  linmin: -8.786e-06  t[s]:   4779.29
	FillingsUpdate:  mu: +0.126335682  nElectrons: 340.000000  magneticMoment: [ Abs: 39.23657  Tot: -0.00000 ]
	SubspaceRotationAdjust: set factor to 0.375
ElecMinimize: Iter:  85  F: -1894.956206613387167  |grad|_K:  9.226e-06  alpha:  1.757e-01  linmin:  7.428e-04  t[s]:   4824.25
	FillingsUpdate:  mu: +0.126288966  nElectrons: 340.000000  magneticMoment: [ Abs: 39.28807  Tot: -0.00000 ]
	SubspaceRotationAdjust: set factor to 0.474
ElecMinimize: Iter:  86  F: -1894.956886423327660  |grad|_K:  9.447e-06  alpha:  3.805e-02  linmin: -1.494e-03  t[s]:   4869.84
	FillingsUpdate:  mu: +0.126496587  nElectrons: 340.000000  magneticMoment: [ Abs: 39.38414  Tot: +0.00000 ]
	SubspaceRotationAdjust: set factor to 0.349
ElecMinimize: Iter:  87  F: -1894.958430125816221  |grad|_K:  1.077e-05  alpha:  7.548e-02  linmin:  8.215e-04  t[s]:   4914.83
	FillingsUpdate:  mu: +0.125663306  nElectrons: 340.000000  magneticMoment: [ Abs: 39.44387  Tot: -0.00000 ]
	SubspaceRotationAdjust: set factor to 0.29
ElecMinimize: Iter:  88  F: -1894.958934187645582  |grad|_K:  9.272e-06  alpha:  3.146e-02  linmin:  4.878e-05  t[s]:   4959.92
	FillingsUpdate:  mu: +0.123622864  nElectrons: 340.000000  magneticMoment: [ Abs: 39.51389  Tot: -0.00000 ]
	SubspaceRotationAdjust: set factor to 0.395
ElecMinimize: Iter:  89  F: -1894.959530415529116  |grad|_K:  7.117e-06  alpha:  3.967e-02  linmin: -2.389e-04  t[s]:   5005.19
	FillingsUpdate:  mu: +0.122840719  nElectrons: 340.000000  magneticMoment: [ Abs: 39.57940  Tot: +0.00000 ]
	SubspaceRotationAdjust: set factor to 0.343
ElecMinimize: Iter:  90  F: -1894.960107391749489  |grad|_K:  8.015e-06  alpha:  6.198e-02  linmin: -1.436e-04  t[s]:   5050.52
	FillingsUpdate:  mu: +0.124011179  nElectrons: 340.000000  magneticMoment: [ Abs: 39.63690  Tot: -0.00000 ]
	SubspaceRotationAdjust: set factor to 0.317
ElecMinimize: Iter:  91  F: -1894.960858721842442  |grad|_K:  7.305e-06  alpha:  6.552e-02  linmin: -2.969e-05  t[s]:   5096.55
	FillingsUpdate:  mu: +0.124836764  nElectrons: 340.000000  magneticMoment: [ Abs: 39.64860  Tot: -0.00000 ]
	SubspaceRotationAdjust: set factor to 0.401
ElecMinimize: Iter:  92  F: -1894.961291624222667  |grad|_K:  5.731e-06  alpha:  4.522e-02  linmin:  1.601e-05  t[s]:   5142.49
	FillingsUpdate:  mu: +0.127688071  nElectrons: 340.000000  magneticMoment: [ Abs: 39.65587  Tot: +0.00000 ]
	SubspaceRotationAdjust: set factor to 0.318
ElecMinimize: Iter:  93  F: -1894.961657821093468  |grad|_K:  7.412e-06  alpha:  6.471e-02  linmin:  1.282e-04  t[s]:   5187.87
	FillingsUpdate:  mu: +0.127392746  nElectrons: 340.000000  magneticMoment: [ Abs: 39.68790  Tot: -0.00000 ]
	SubspaceRotationAdjust: set factor to 0.303
ElecMinimize: Iter:  94  F: -1894.962142910407010  |grad|_K:  6.457e-06  alpha:  5.198e-02  linmin: -3.059e-05  t[s]:   5233.14
	FillingsUpdate:  mu: +0.125726406  nElectrons: 340.000000  magneticMoment: [ Abs: 39.72593  Tot: -0.00000 ]
	SubspaceRotationAdjust: set factor to 0.383
ElecMinimize: Iter:  95  F: -1894.962482479661730  |grad|_K:  5.092e-06  alpha:  4.686e-02  linmin: -1.384e-04  t[s]:   5278.91
	FillingsUpdate:  mu: +0.124261088  nElectrons: 340.000000  magneticMoment: [ Abs: 39.76639  Tot: -0.00000 ]
	SubspaceRotationAdjust: set factor to 0.38
ElecMinimize: Iter:  96  F: -1894.962846319213440  |grad|_K:  5.893e-06  alpha:  7.722e-02  linmin: -2.507e-04  t[s]:   5324.69
	FillingsUpdate:  mu: +0.123866274  nElectrons: 340.000000  magneticMoment: [ Abs: 39.79258  Tot: +0.00000 ]
	SubspaceRotationAdjust: set factor to 0.491
ElecMinimize: Iter:  97  F: -1894.963304412925709  |grad|_K:  5.027e-06  alpha:  7.257e-02  linmin:  1.865e-06  t[s]:   5370.02
	FillingsUpdate:  mu: +0.124322186  nElectrons: 340.000000  magneticMoment: [ Abs: 39.79305  Tot: +0.00000 ]
	SubspaceRotationAdjust: set factor to 0.518
ElecMinimize: Iter:  98  F: -1894.963558603410775  |grad|_K:  4.678e-06  alpha:  5.761e-02  linmin:  1.361e-05  t[s]:   5415.64
	FillingsUpdate:  mu: +0.124798140  nElectrons: 340.000000  magneticMoment: [ Abs: 39.80165  Tot: +0.00000 ]
	SubspaceRotationAdjust: set factor to 0.475
ElecMinimize: Iter:  99  F: -1894.963889070671712  |grad|_K:  5.576e-06  alpha:  8.695e-02  linmin:  7.914e-08  t[s]:   5461.36
	FillingsUpdate:  mu: +0.124346025  nElectrons: 340.000000  magneticMoment: [ Abs: 39.82373  Tot: -0.00000 ]
	SubspaceRotationAdjust: set factor to 0.597
ElecMinimize: Iter: 100  F: -1894.964164206887972  |grad|_K:  4.583e-06  alpha:  5.121e-02  linmin:  7.763e-06  t[s]:   5507.02
	FillingsUpdate:  mu: +0.124442956  nElectrons: 340.000000  magneticMoment: [ Abs: 39.83488  Tot: +0.00000 ]
	SubspaceRotationAdjust: set factor to 0.552
ElecMinimize: Iter: 101  F: -1894.964471959063076  |grad|_K:  5.781e-06  alpha:  8.369e-02  linmin: -6.470e-05  t[s]:   5552.65
	FillingsUpdate:  mu: +0.124348242  nElectrons: 340.000000  magneticMoment: [ Abs: 39.81370  Tot: -0.00000 ]
	SubspaceRotationAdjust: set factor to 0.728
ElecMinimize: Iter: 102  F: -1894.964797732678335  |grad|_K:  4.538e-06  alpha:  5.500e-02  linmin: -1.788e-06  t[s]:   5598.22
	FillingsUpdate:  mu: +0.124435542  nElectrons: 340.000000  magneticMoment: [ Abs: 39.78732  Tot: +0.00000 ]
	SubspaceRotationAdjust: set factor to 0.706
ElecMinimize: Iter: 103  F: -1894.965049042661349  |grad|_K:  5.660e-06  alpha:  7.016e-02  linmin:  1.787e-05  t[s]:   5643.73
	FillingsUpdate:  mu: +0.124230824  nElectrons: 340.000000  magneticMoment: [ Abs: 39.77999  Tot: -0.00000 ]
	SubspaceRotationAdjust: set factor to 1.03
	SubspaceRotationAdjust: resetting CG because factor has changed by 7.78352
ElecMinimize: 	State modified externally: resetting search direction.
ElecMinimize: Iter: 104  F: -1894.965365541603205  |grad|_K:  4.793e-06  alpha:  5.714e-02
	FillingsUpdate:  mu: +0.123887045  nElectrons: 340.000000  magneticMoment: [ Abs: 39.80599  Tot: +0.00000 ]
	SubspaceRotationAdjust: set factor to 0.589
ElecMinimize: Iter: 105  F: -1894.965810670354358  |grad|_K:  7.237e-06  alpha:  1.102e-01  linmin: -4.722e-04  t[s]:   5756.09
	FillingsUpdate:  mu: +0.124237999  nElectrons: 340.000000  magneticMoment: [ Abs: 39.77378  Tot: -0.00000 ]
	SubspaceRotationAdjust: set factor to 0.419
ElecMinimize: Iter: 106  F: -1894.966273274145578  |grad|_K:  3.450e-06  alpha:  4.628e-02  linmin: -1.206e-03  t[s]:   5801.67
ElecMinimize: 	Predicted alpha/alphaT>3.000000, increasing alphaT to 1.388516e-01.
	FillingsUpdate:  mu: +0.123982474  nElectrons: 340.000000  magneticMoment: [ Abs: 39.74107  Tot: +0.00000 ]
	SubspaceRotationAdjust: set factor to 0.406
ElecMinimize: Iter: 107  F: -1894.966698068339838  |grad|_K:  2.411e-06  alpha:  1.933e-01  linmin: -4.069e-04  t[s]:   5860.69
	FillingsUpdate:  mu: +0.124046135  nElectrons: 340.000000  magneticMoment: [ Abs: 39.73567  Tot: +0.00000 ]
	SubspaceRotationAdjust: set factor to 0.257
ElecMinimize: Iter: 108  F: -1894.966952130130949  |grad|_K:  2.882e-06  alpha:  2.435e-01  linmin: -2.281e-04  t[s]:   5906.14
	FillingsUpdate:  mu: +0.125488745  nElectrons: 340.000000  magneticMoment: [ Abs: 39.70886  Tot: +0.00000 ]
	SubspaceRotationAdjust: set factor to 0.215
ElecMinimize: Iter: 109  F: -1894.967106694348786  |grad|_K:  1.821e-06  alpha:  9.781e-02  linmin: -6.419e-04  t[s]:   5951.78
ElecMinimize: 	Predicted alpha/alphaT>3.000000, increasing alphaT to 2.934406e-01.
	FillingsUpdate:  mu: +0.124992146  nElectrons: 340.000000  magneticMoment: [ Abs: 39.68158  Tot: -0.00000 ]
	SubspaceRotationAdjust: set factor to 0.188
ElecMinimize: Iter: 110  F: -1894.967317878336189  |grad|_K:  1.905e-06  alpha:  3.479e-01  linmin:  6.818e-05  t[s]:   6010.93
	FillingsUpdate:  mu: +0.124753811  nElectrons: 340.000000  magneticMoment: [ Abs: 39.67870  Tot: -0.00000 ]
	SubspaceRotationAdjust: set factor to 0.151
ElecMinimize: Iter: 111  F: -1894.967420701852461  |grad|_K:  1.603e-06  alpha:  1.728e-01  linmin:  3.230e-04  t[s]:   6056.41
	FillingsUpdate:  mu: +0.124557996  nElectrons: 340.000000  magneticMoment: [ Abs: 39.65341  Tot: -0.00000 ]
	SubspaceRotationAdjust: set factor to 0.211
ElecMinimize: Iter: 112  F: -1894.967564010938304  |grad|_K:  1.493e-06  alpha:  3.289e-01  linmin:  8.057e-06  t[s]:   6101.30
	FillingsUpdate:  mu: +0.124179858  nElectrons: 340.000000  magneticMoment: [ Abs: 39.62689  Tot: +0.00000 ]
	SubspaceRotationAdjust: set factor to 0.189
ElecMinimize: Iter: 113  F: -1894.967666751614388  |grad|_K:  1.565e-06  alpha:  2.641e-01  linmin:  5.034e-05  t[s]:   6146.33
	FillingsUpdate:  mu: +0.124667011  nElectrons: 340.000000  magneticMoment: [ Abs: 39.61481  Tot: -0.00000 ]
	SubspaceRotationAdjust: set factor to 0.199
ElecMinimize: Iter: 114  F: -1894.967794288921141  |grad|_K:  1.502e-06  alpha:  2.995e-01  linmin: -1.107e-04  t[s]:   6191.51
	FillingsUpdate:  mu: +0.124818047  nElectrons: 340.000000  magneticMoment: [ Abs: 39.59665  Tot: +0.00000 ]
	SubspaceRotationAdjust: set factor to 0.227
ElecMinimize: Iter: 115  F: -1894.967950570511221  |grad|_K:  1.735e-06  alpha:  3.930e-01  linmin: -5.757e-05  t[s]:   6236.89
	FillingsUpdate:  mu: +0.124909600  nElectrons: 340.000000  magneticMoment: [ Abs: 39.56026  Tot: +0.00000 ]
	SubspaceRotationAdjust: set factor to 0.202
ElecMinimize: Iter: 116  F: -1894.968113725217108  |grad|_K:  1.984e-06  alpha:  3.078e-01  linmin:  4.249e-05  t[s]:   6282.58
	FillingsUpdate:  mu: +0.124600918  nElectrons: 340.000000  magneticMoment: [ Abs: 39.53813  Tot: +0.00000 ]
	SubspaceRotationAdjust: set factor to 0.224
ElecMinimize: Iter: 117  F: -1894.968317839456631  |grad|_K:  1.974e-06  alpha:  2.989e-01  linmin:  7.279e-06  t[s]:   6327.82
	FillingsUpdate:  mu: +0.125059807  nElectrons: 340.000000  magneticMoment: [ Abs: 39.51287  Tot: -0.00000 ]
	SubspaceRotationAdjust: set factor to 0.257
ElecMinimize: Iter: 118  F: -1894.968594611903200  |grad|_K:  2.319e-06  alpha:  4.057e-01  linmin: -1.354e-04  t[s]:   6372.65
	FillingsUpdate:  mu: +0.125581206  nElectrons: 340.000000  magneticMoment: [ Abs: 39.47049  Tot: -0.00000 ]
	SubspaceRotationAdjust: set factor to 0.235
ElecMinimize: Iter: 119  F: -1894.968888127029913  |grad|_K:  2.568e-06  alpha:  3.058e-01  linmin:  2.222e-05  t[s]:   6417.86
	FillingsUpdate:  mu: +0.125907194  nElectrons: 340.000000  magneticMoment: [ Abs: 39.44396  Tot: -0.00000 ]
	SubspaceRotationAdjust: set factor to 0.266
ElecMinimize: Iter: 120  F: -1894.969247536800594  |grad|_K:  2.470e-06  alpha:  3.139e-01  linmin: -3.553e-05  t[s]:   6463.16
	FillingsUpdate:  mu: +0.125856651  nElectrons: 340.000000  magneticMoment: [ Abs: 39.41237  Tot: -0.00000 ]
	SubspaceRotationAdjust: set factor to 0.301
ElecMinimize: Iter: 121  F: -1894.969619648343269  |grad|_K:  2.434e-06  alpha:  3.491e-01  linmin:  7.514e-05  t[s]:   6508.31
	FillingsUpdate:  mu: +0.125216078  nElectrons: 340.000000  magneticMoment: [ Abs: 39.38206  Tot: -0.00000 ]
	SubspaceRotationAdjust: set factor to 0.312
ElecMinimize: Iter: 122  F: -1894.969895308533978  |grad|_K:  2.416e-06  alpha:  2.690e-01  linmin:  2.058e-05  t[s]:   6553.37
	FillingsUpdate:  mu: +0.125674488  nElectrons: 340.000000  magneticMoment: [ Abs: 39.38552  Tot: +0.00000 ]
	SubspaceRotationAdjust: set factor to 0.325
ElecMinimize: Iter: 123  F: -1894.970152711097398  |grad|_K:  2.219e-06  alpha:  2.541e-01  linmin: -4.538e-05  t[s]:   6598.70
	FillingsUpdate:  mu: +0.125614341  nElectrons: 340.000000  magneticMoment: [ Abs: 39.38549  Tot: -0.00000 ]
	SubspaceRotationAdjust: set factor to 0.383
ElecMinimize: Iter: 124  F: -1894.970452441956695  |grad|_K:  2.192e-06  alpha:  3.481e-01  linmin:  3.591e-05  t[s]:   6643.76
	FillingsUpdate:  mu: +0.125328508  nElectrons: 340.000000  magneticMoment: [ Abs: 39.38628  Tot: +0.00000 ]
	SubspaceRotationAdjust: set factor to 0.407
ElecMinimize: Iter: 125  F: -1894.970704798037332  |grad|_K:  2.383e-06  alpha:  3.026e-01  linmin:  3.982e-05  t[s]:   6689.46
	FillingsUpdate:  mu: +0.126157782  nElectrons: 340.000000  magneticMoment: [ Abs: 39.41569  Tot: +0.00000 ]
	SubspaceRotationAdjust: set factor to 0.36
ElecMinimize: Iter: 126  F: -1894.970879106410393  |grad|_K:  2.094e-06  alpha:  1.776e-01  linmin: -7.634e-07  t[s]:   6735.01
	FillingsUpdate:  mu: +0.125795110  nElectrons: 340.000000  magneticMoment: [ Abs: 39.42776  Tot: -0.00000 ]
	SubspaceRotationAdjust: set factor to 0.368
ElecMinimize: Iter: 127  F: -1894.971058114606649  |grad|_K:  1.867e-06  alpha:  2.354e-01  linmin:  5.139e-05  t[s]:   6780.60
	FillingsUpdate:  mu: +0.125612705  nElectrons: 340.000000  magneticMoment: [ Abs: 39.45162  Tot: +0.00000 ]
	SubspaceRotationAdjust: set factor to 0.38
ElecMinimize: Iter: 128  F: -1894.971221024063425  |grad|_K:  1.656e-06  alpha:  2.718e-01  linmin:  6.397e-06  t[s]:   6826.09
	FillingsUpdate:  mu: +0.125771829  nElectrons: 340.000000  magneticMoment: [ Abs: 39.47429  Tot: +0.00000 ]
	SubspaceRotationAdjust: set factor to 0.441
ElecMinimize: Iter: 129  F: -1894.971357307260405  |grad|_K:  1.435e-06  alpha:  2.858e-01  linmin: -6.661e-07  t[s]:   6871.72
	FillingsUpdate:  mu: +0.125734969  nElectrons: 340.000000  magneticMoment: [ Abs: 39.49230  Tot: -0.00000 ]
	SubspaceRotationAdjust: set factor to 0.511
ElecMinimize: Iter: 130  F: -1894.971466309860944  |grad|_K:  1.372e-06  alpha:  3.040e-01  linmin:  9.598e-06  t[s]:   6917.16
	FillingsUpdate:  mu: +0.126093110  nElectrons: 340.000000  magneticMoment: [ Abs: 39.51477  Tot: +0.00000 ]
	SubspaceRotationAdjust: set factor to 0.426
ElecMinimize: Iter: 131  F: -1894.971530671926530  |grad|_K:  1.592e-06  alpha:  1.985e-01  linmin:  2.688e-06  t[s]:   6962.44
	FillingsUpdate:  mu: +0.125380509  nElectrons: 340.000000  magneticMoment: [ Abs: 39.52140  Tot: -0.00000 ]
	SubspaceRotationAdjust: set factor to 0.369
ElecMinimize: Iter: 132  F: -1894.971593081317224  |grad|_K:  1.253e-06  alpha:  1.407e-01  linmin:  5.521e-06  t[s]:   7007.69
	FillingsUpdate:  mu: +0.125842713  nElectrons: 340.000000  magneticMoment: [ Abs: 39.54292  Tot: +0.00000 ]
	SubspaceRotationAdjust: set factor to 0.364
ElecMinimize: Iter: 133  F: -1894.971650209348354  |grad|_K:  1.089e-06  alpha:  2.088e-01  linmin: -2.280e-05  t[s]:   7053.35
	FillingsUpdate:  mu: +0.125577306  nElectrons: 340.000000  magneticMoment: [ Abs: 39.55803  Tot: -0.00000 ]
	SubspaceRotationAdjust: set factor to 0.418
ElecMinimize: Iter: 134  F: -1894.971708333996276  |grad|_K:  9.503e-07  alpha:  2.804e-01  linmin:  1.597e-05  t[s]:   7098.76
	FillingsUpdate:  mu: +0.125437645  nElectrons: 340.000000  magneticMoment: [ Abs: 39.56568  Tot: -0.00000 ]
	SubspaceRotationAdjust: set factor to 0.425
ElecMinimize: Iter: 135  F: -1894.971753267006534  |grad|_K:  1.079e-06  alpha:  2.869e-01  linmin:  1.125e-05  t[s]:   7144.08
	FillingsUpdate:  mu: +0.125979394  nElectrons: 340.000000  magneticMoment: [ Abs: 39.58175  Tot: -0.00000 ]
	SubspaceRotationAdjust: set factor to 0.361
ElecMinimize: Iter: 136  F: -1894.971786090500473  |grad|_K:  1.087e-06  alpha:  1.632e-01  linmin:  4.859e-06  t[s]:   7189.34
	FillingsUpdate:  mu: +0.125838290  nElectrons: 340.000000  magneticMoment: [ Abs: 39.58664  Tot: +0.00000 ]
	SubspaceRotationAdjust: set factor to 0.379
ElecMinimize: Iter: 137  F: -1894.971831592431045  |grad|_K:  9.535e-07  alpha:  2.221e-01  linmin:  2.093e-05  t[s]:   7234.65
	FillingsUpdate:  mu: +0.125655821  nElectrons: 340.000000  magneticMoment: [ Abs: 39.59594  Tot: +0.00000 ]
	SubspaceRotationAdjust: set factor to 0.409
ElecMinimize: Iter: 138  F: -1894.971882525624324  |grad|_K:  1.013e-06  alpha:  3.247e-01  linmin:  6.132e-06  t[s]:   7279.86
	FillingsUpdate:  mu: +0.125555892  nElectrons: 340.000000  magneticMoment: [ Abs: 39.60416  Tot: -0.00000 ]
	SubspaceRotationAdjust: set factor to 0.449
ElecMinimize: Iter: 139  F: -1894.971931764228657  |grad|_K:  9.286e-07  alpha:  2.773e-01  linmin: -1.426e-05  t[s]:   7324.91
	FillingsUpdate:  mu: +0.125230826  nElectrons: 340.000000  magneticMoment: [ Abs: 39.60292  Tot: -0.00000 ]
	SubspaceRotationAdjust: set factor to 0.503
ElecMinimize: Iter: 140  F: -1894.971982577127164  |grad|_K:  1.047e-06  alpha:  3.373e-01  linmin:  2.540e-05  t[s]:   7370.45
	FillingsUpdate:  mu: +0.125590494  nElectrons: 340.000000  magneticMoment: [ Abs: 39.60825  Tot: -0.00000 ]
	SubspaceRotationAdjust: set factor to 0.424
ElecMinimize: Iter: 141  F: -1894.972013040213142  |grad|_K:  1.170e-06  alpha:  1.655e-01  linmin:  4.973e-05  t[s]:   7415.15
	FillingsUpdate:  mu: +0.125334473  nElectrons: 340.000000  magneticMoment: [ Abs: 39.59880  Tot: +0.00000 ]
	SubspaceRotationAdjust: set factor to 0.38
ElecMinimize: Iter: 142  F: -1894.972050445299146  |grad|_K:  9.483e-07  alpha:  1.591e-01  linmin:  2.756e-05  t[s]:   7460.73
	FillingsUpdate:  mu: +0.125689935  nElectrons: 340.000000  magneticMoment: [ Abs: 39.59756  Tot: -0.00000 ]
	SubspaceRotationAdjust: set factor to 0.395
ElecMinimize: Iter: 143  F: -1894.972089646743598  |grad|_K:  8.231e-07  alpha:  2.502e-01  linmin: -7.850e-05  t[s]:   7506.38
	FillingsUpdate:  mu: +0.125449218  nElectrons: 340.000000  magneticMoment: [ Abs: 39.58953  Tot: -0.00000 ]
	SubspaceRotationAdjust: set factor to 0.447
ElecMinimize: Iter: 144  F: -1894.972122760857474  |grad|_K:  7.052e-07  alpha:  2.761e-01  linmin:  1.725e-05  t[s]:   7551.48
	FillingsUpdate:  mu: +0.125361688  nElectrons: 340.000000  magneticMoment: [ Abs: 39.57987  Tot: +0.00000 ]
	SubspaceRotationAdjust: set factor to 0.551
ElecMinimize: Iter: 145  F: -1894.972150604572562  |grad|_K:  6.660e-07  alpha:  3.229e-01  linmin: -8.427e-07  t[s]:   7596.97
	FillingsUpdate:  mu: +0.125561249  nElectrons: 340.000000  magneticMoment: [ Abs: 39.57094  Tot: +0.00000 ]
	SubspaceRotationAdjust: set factor to 0.608
ElecMinimize: Iter: 146  F: -1894.972173670042139  |grad|_K:  7.015e-07  alpha:  2.988e-01  linmin: -8.181e-06  t[s]:   7641.71
	FillingsUpdate:  mu: +0.125353636  nElectrons: 340.000000  magneticMoment: [ Abs: 39.55757  Tot: +0.00000 ]
	SubspaceRotationAdjust: set factor to 0.563
ElecMinimize: Iter: 147  F: -1894.972192829846108  |grad|_K:  7.909e-07  alpha:  2.228e-01  linmin:  3.576e-07  t[s]:   7687.02
	FillingsUpdate:  mu: +0.125605982  nElectrons: 340.000000  magneticMoment: [ Abs: 39.55583  Tot: -0.00000 ]
	SubspaceRotationAdjust: set factor to 0.471
ElecMinimize: Iter: 148  F: -1894.972207261638005  |grad|_K:  8.274e-07  alpha:  1.339e-01  linmin:  4.965e-06  t[s]:   7732.01
	FillingsUpdate:  mu: +0.125412740  nElectrons: 340.000000  magneticMoment: [ Abs: 39.54470  Tot: -0.00000 ]
	SubspaceRotationAdjust: set factor to 0.415
ElecMinimize: Iter: 149  F: -1894.972224704770724  |grad|_K:  6.595e-07  alpha:  1.468e-01  linmin:  1.476e-05  t[s]:   7777.31
	FillingsUpdate:  mu: +0.125357191  nElectrons: 340.000000  magneticMoment: [ Abs: 39.53330  Tot: +0.00000 ]
	SubspaceRotationAdjust: set factor to 0.514
ElecMinimize: Iter: 150  F: -1894.972245530000009  |grad|_K:  5.741e-07  alpha:  2.772e-01  linmin:  4.630e-06  t[s]:   7822.62
	FillingsUpdate:  mu: +0.125517457  nElectrons: 340.000000  magneticMoment: [ Abs: 39.52778  Tot: -0.00000 ]
	SubspaceRotationAdjust: set factor to 0.449
ElecMinimize: Iter: 151  F: -1894.972261194965768  |grad|_K:  6.851e-07  alpha:  2.734e-01  linmin: -3.661e-06  t[s]:   7867.74
	FillingsUpdate:  mu: +0.125314722  nElectrons: 340.000000  magneticMoment: [ Abs: 39.51951  Tot: -0.00000 ]
	SubspaceRotationAdjust: set factor to 0.366
ElecMinimize: Iter: 152  F: -1894.972271315142507  |grad|_K:  6.134e-07  alpha:  1.219e-01  linmin: -4.487e-05  t[s]:   7912.58
	FillingsUpdate:  mu: +0.125346167  nElectrons: 340.000000  magneticMoment: [ Abs: 39.51626  Tot: -0.00000 ]
	SubspaceRotationAdjust: set factor to 0.444
ElecMinimize: Iter: 153  F: -1894.972287047831969  |grad|_K:  5.439e-07  alpha:  2.378e-01  linmin: -1.237e-05  t[s]:   7958.00
	FillingsUpdate:  mu: +0.125387337  nElectrons: 340.000000  magneticMoment: [ Abs: 39.51355  Tot: +0.00000 ]
	SubspaceRotationAdjust: set factor to 0.458
ElecMinimize: Iter: 154  F: -1894.972300893622105  |grad|_K:  6.005e-07  alpha:  2.681e-01  linmin:  8.290e-07  t[s]:   8003.46
	FillingsUpdate:  mu: +0.125210323  nElectrons: 340.000000  magneticMoment: [ Abs: 39.50787  Tot: -0.00000 ]
	SubspaceRotationAdjust: set factor to 0.395
ElecMinimize: Iter: 155  F: -1894.972309762549003  |grad|_K:  5.729e-07  alpha:  1.400e-01  linmin: -1.170e-05  t[s]:   8048.95
	FillingsUpdate:  mu: +0.125391096  nElectrons: 340.000000  magneticMoment: [ Abs: 39.50997  Tot: +0.00000 ]
	SubspaceRotationAdjust: set factor to 0.426
ElecMinimize: Iter: 156  F: -1894.972320682515829  |grad|_K:  4.574e-07  alpha:  1.902e-01  linmin: -2.980e-06  t[s]:   8094.21
	FillingsUpdate:  mu: +0.125409592  nElectrons: 340.000000  magneticMoment: [ Abs: 39.51282  Tot: +0.00000 ]
	SubspaceRotationAdjust: set factor to 0.493
ElecMinimize: Iter: 157  F: -1894.972330987653095  |grad|_K:  4.687e-07  alpha:  2.825e-01  linmin: -2.511e-07  t[s]:   8140.05
	FillingsUpdate:  mu: +0.125213255  nElectrons: 340.000000  magneticMoment: [ Abs: 39.51103  Tot: -0.00000 ]
	SubspaceRotationAdjust: set factor to 0.41
ElecMinimize: Iter: 158  F: -1894.972336388673511  |grad|_K:  4.774e-07  alpha:  1.404e-01  linmin: -6.040e-06  t[s]:   8185.04
	FillingsUpdate:  mu: +0.125256632  nElectrons: 340.000000  magneticMoment: [ Abs: 39.51614  Tot: -0.00000 ]
	SubspaceRotationAdjust: set factor to 0.449
ElecMinimize: Iter: 159  F: -1894.972343972203134  |grad|_K:  3.628e-07  alpha:  1.905e-01  linmin: -2.951e-06  t[s]:   8230.48
	FillingsUpdate:  mu: +0.125329462  nElectrons: 340.000000  magneticMoment: [ Abs: 39.51992  Tot: +0.00000 ]
	SubspaceRotationAdjust: set factor to 0.502
ElecMinimize: Iter: 160  F: -1894.972350483465334  |grad|_K:  3.369e-07  alpha:  2.837e-01  linmin:  1.346e-08  t[s]:   8275.59
	FillingsUpdate:  mu: +0.125238192  nElectrons: 340.000000  magneticMoment: [ Abs: 39.52139  Tot: -0.00000 ]
	SubspaceRotationAdjust: set factor to 0.507
ElecMinimize: Iter: 161  F: -1894.972355235932582  |grad|_K:  3.451e-07  alpha:  2.403e-01  linmin:  5.089e-06  t[s]:   8321.15
	FillingsUpdate:  mu: +0.125332154  nElectrons: 340.000000  magneticMoment: [ Abs: 39.52593  Tot: +0.00000 ]
	SubspaceRotationAdjust: set factor to 0.429
ElecMinimize: Iter: 162  F: -1894.972358055180166  |grad|_K:  3.447e-07  alpha:  1.365e-01  linmin:  3.512e-06  t[s]:   8366.54
	FillingsUpdate:  mu: +0.125262944  nElectrons: 340.000000  magneticMoment: [ Abs: 39.52758  Tot: -0.00000 ]
	SubspaceRotationAdjust: set factor to 0.408
ElecMinimize: Iter: 163  F: -1894.972361339971030  |grad|_K:  2.648e-07  alpha:  1.589e-01  linmin:  7.072e-06  t[s]:   8412.25
	FillingsUpdate:  mu: +0.125248147  nElectrons: 340.000000  magneticMoment: [ Abs: 39.53004  Tot: -0.00000 ]
	SubspaceRotationAdjust: set factor to 0.505
ElecMinimize: Iter: 164  F: -1894.972364885894422  |grad|_K:  2.363e-07  alpha:  2.910e-01  linmin:  1.234e-06  t[s]:   8457.67
	FillingsUpdate:  mu: +0.125305369  nElectrons: 340.000000  magneticMoment: [ Abs: 39.53280  Tot: -0.00000 ]
	SubspaceRotationAdjust: set factor to 0.447
ElecMinimize: Iter: 165  F: -1894.972367590487465  |grad|_K:  2.768e-07  alpha:  2.784e-01  linmin: -2.256e-06  t[s]:   8503.01
	FillingsUpdate:  mu: +0.125234365  nElectrons: 340.000000  magneticMoment: [ Abs: 39.53218  Tot: -0.00000 ]
	SubspaceRotationAdjust: set factor to 0.36
ElecMinimize: Iter: 166  F: -1894.972369174847017  |grad|_K:  2.468e-07  alpha:  1.182e-01  linmin: -6.196e-06  t[s]:   8548.60
	FillingsUpdate:  mu: +0.125259420  nElectrons: 340.000000  magneticMoment: [ Abs: 39.53448  Tot: +0.00000 ]
	SubspaceRotationAdjust: set factor to 0.425
ElecMinimize: Iter: 167  F: -1894.972371625962523  |grad|_K:  2.147e-07  alpha:  2.304e-01  linmin: -2.261e-06  t[s]:   8593.73
	FillingsUpdate:  mu: +0.125250085  nElectrons: 340.000000  magneticMoment: [ Abs: 39.53546  Tot: -0.00000 ]
	SubspaceRotationAdjust: set factor to 0.455
ElecMinimize: Iter: 168  F: -1894.972373848740290  |grad|_K:  2.302e-07  alpha:  2.765e-01  linmin: -2.221e-06  t[s]:   8638.93
	FillingsUpdate:  mu: +0.125188841  nElectrons: 340.000000  magneticMoment: [ Abs: 39.53404  Tot: -0.00000 ]
	SubspaceRotationAdjust: set factor to 0.398
ElecMinimize: Iter: 169  F: -1894.972375340785220  |grad|_K:  2.468e-07  alpha:  1.614e-01  linmin: -5.651e-07  t[s]:   8684.54
	FillingsUpdate:  mu: +0.125272197  nElectrons: 340.000000  magneticMoment: [ Abs: 39.53541  Tot: -0.00000 ]
	SubspaceRotationAdjust: set factor to 0.396
ElecMinimize: Iter: 170  F: -1894.972377212029642  |grad|_K:  1.977e-07  alpha:  1.764e-01  linmin: -1.316e-06  t[s]:   8730.08
	FillingsUpdate:  mu: +0.125261179  nElectrons: 340.000000  magneticMoment: [ Abs: 39.53562  Tot: +0.00000 ]
	SubspaceRotationAdjust: set factor to 0.481
ElecMinimize: Iter: 171  F: -1894.972379318550793  |grad|_K:  1.965e-07  alpha:  3.091e-01  linmin: -2.379e-06  t[s]:   8775.56
	FillingsUpdate:  mu: +0.125179349  nElectrons: 340.000000  magneticMoment: [ Abs: 39.53410  Tot: -0.00000 ]
	SubspaceRotationAdjust: set factor to 0.395
ElecMinimize: Iter: 172  F: -1894.972380747362422  |grad|_K:  2.409e-07  alpha:  2.124e-01  linmin: -3.319e-07  t[s]:   8821.08
	FillingsUpdate:  mu: +0.125227615  nElectrons: 340.000000  magneticMoment: [ Abs: 39.53526  Tot: -0.00000 ]
	SubspaceRotationAdjust: set factor to 0.35
ElecMinimize: Iter: 173  F: -1894.972382144606854  |grad|_K:  1.859e-07  alpha:  1.384e-01  linmin:  1.719e-07  t[s]:   8866.37
	FillingsUpdate:  mu: +0.125243243  nElectrons: 340.000000  magneticMoment: [ Abs: 39.53482  Tot: -0.00000 ]
	SubspaceRotationAdjust: set factor to 0.415
ElecMinimize: Iter: 174  F: -1894.972383920526909  |grad|_K:  1.754e-07  alpha:  2.952e-01  linmin:  2.133e-07  t[s]:   8912.20
	FillingsUpdate:  mu: +0.125193836  nElectrons: 340.000000  magneticMoment: [ Abs: 39.53375  Tot: +0.00000 ]
	SubspaceRotationAdjust: set factor to 0.433
ElecMinimize: Iter: 175  F: -1894.972385414354221  |grad|_K:  1.948e-07  alpha:  2.788e-01  linmin: -3.504e-07  t[s]:   8957.01
	FillingsUpdate:  mu: +0.125241848  nElectrons: 340.000000  magneticMoment: [ Abs: 39.53514  Tot: -0.00000 ]
	SubspaceRotationAdjust: set factor to 0.376
ElecMinimize: Iter: 176  F: -1894.972386500739276  |grad|_K:  1.988e-07  alpha:  1.648e-01  linmin:  1.508e-06  t[s]:   9002.15
	FillingsUpdate:  mu: +0.125207402  nElectrons: 340.000000  magneticMoment: [ Abs: 39.53483  Tot: +0.00000 ]
	SubspaceRotationAdjust: set factor to 0.39
ElecMinimize: Iter: 177  F: -1894.972387953832140  |grad|_K:  1.706e-07  alpha:  2.113e-01  linmin:  1.196e-06  t[s]:   9047.35
	FillingsUpdate:  mu: +0.125207723  nElectrons: 340.000000  magneticMoment: [ Abs: 39.53506  Tot: +0.00000 ]
	SubspaceRotationAdjust: set factor to 0.478
ElecMinimize: Iter: 178  F: -1894.972389683192432  |grad|_K:  1.747e-07  alpha:  3.416e-01  linmin:  8.032e-07  t[s]:   9092.55
	FillingsUpdate:  mu: +0.125260090  nElectrons: 340.000000  magneticMoment: [ Abs: 39.53648  Tot: -0.00000 ]
	SubspaceRotationAdjust: set factor to 0.414
ElecMinimize: Iter: 179  F: -1894.972391119920530  |grad|_K:  2.225e-07  alpha:  2.706e-01  linmin: -7.010e-07  t[s]:   9137.58
	FillingsUpdate:  mu: +0.125208204  nElectrons: 340.000000  magneticMoment: [ Abs: 39.53578  Tot: -0.00000 ]
	SubspaceRotationAdjust: set factor to 0.348
ElecMinimize: Iter: 180  F: -1894.972392322726364  |grad|_K:  1.988e-07  alpha:  1.392e-01  linmin: -2.142e-06  t[s]:   9182.84
	FillingsUpdate:  mu: +0.125252532  nElectrons: 340.000000  magneticMoment: [ Abs: 39.53769  Tot: -0.00000 ]
	SubspaceRotationAdjust: set factor to 0.394
ElecMinimize: Iter: 181  F: -1894.972394143271913  |grad|_K:  1.878e-07  alpha:  2.641e-01  linmin: -3.304e-06  t[s]:   9228.01
	FillingsUpdate:  mu: +0.125269542  nElectrons: 340.000000  magneticMoment: [ Abs: 39.53912  Tot: -0.00000 ]
	SubspaceRotationAdjust: set factor to 0.425
ElecMinimize: Iter: 182  F: -1894.972396031343806  |grad|_K:  2.086e-07  alpha:  3.072e-01  linmin: -5.009e-07  t[s]:   9273.52
	FillingsUpdate:  mu: +0.125207726  nElectrons: 340.000000  magneticMoment: [ Abs: 39.53819  Tot: +0.00000 ]
	SubspaceRotationAdjust: set factor to 0.371
ElecMinimize: Iter: 183  F: -1894.972397385741715  |grad|_K:  2.264e-07  alpha:  1.784e-01  linmin: -2.535e-06  t[s]:   9318.66
	FillingsUpdate:  mu: +0.125270040  nElectrons: 340.000000  magneticMoment: [ Abs: 39.54013  Tot: -0.00000 ]
	SubspaceRotationAdjust: set factor to 0.383
ElecMinimize: Iter: 184  F: -1894.972399216373560  |grad|_K:  1.931e-07  alpha:  2.050e-01  linmin: -2.531e-06  t[s]:   9364.00
	FillingsUpdate:  mu: +0.125269154  nElectrons: 340.000000  magneticMoment: [ Abs: 39.54123  Tot: -0.00000 ]
	SubspaceRotationAdjust: set factor to 0.467
ElecMinimize: Iter: 185  F: -1894.972401399299997  |grad|_K:  2.005e-07  alpha:  3.361e-01  linmin: -1.244e-07  t[s]:   9409.52
	FillingsUpdate:  mu: +0.125196303  nElectrons: 340.000000  magneticMoment: [ Abs: 39.54022  Tot: +0.00000 ]
	SubspaceRotationAdjust: set factor to 0.406
ElecMinimize: Iter: 186  F: -1894.972403180993069  |grad|_K:  2.530e-07  alpha:  2.545e-01  linmin:  3.218e-07  t[s]:   9454.93
	FillingsUpdate:  mu: +0.125269424  nElectrons: 340.000000  magneticMoment: [ Abs: 39.54189  Tot: -0.00000 ]
	SubspaceRotationAdjust: set factor to 0.35
ElecMinimize: Iter: 187  F: -1894.972404780942043  |grad|_K:  2.207e-07  alpha:  1.437e-01  linmin:  1.982e-07  t[s]:   9499.71
	FillingsUpdate:  mu: +0.125293847  nElectrons: 340.000000  magneticMoment: [ Abs: 39.54136  Tot: +0.00000 ]
	SubspaceRotationAdjust: set factor to 0.393
ElecMinimize: Iter: 188  F: -1894.972407070591316  |grad|_K:  2.088e-07  alpha:  2.702e-01  linmin:  2.067e-06  t[s]:   9545.21
	FillingsUpdate:  mu: +0.125258727  nElectrons: 340.000000  magneticMoment: [ Abs: 39.53983  Tot: -0.00000 ]
	SubspaceRotationAdjust: set factor to 0.436
ElecMinimize: Iter: 189  F: -1894.972409357024162  |grad|_K:  2.256e-07  alpha:  3.016e-01  linmin:  8.423e-07  t[s]:   9590.88
	FillingsUpdate:  mu: +0.125322294  nElectrons: 340.000000  magneticMoment: [ Abs: 39.54059  Tot: -0.00000 ]
	SubspaceRotationAdjust: set factor to 0.38
ElecMinimize: Iter: 190  F: -1894.972410960294837  |grad|_K:  2.489e-07  alpha:  1.813e-01  linmin:  6.155e-07  t[s]:   9636.23
	FillingsUpdate:  mu: +0.125274128  nElectrons: 340.000000  magneticMoment: [ Abs: 39.53824  Tot: -0.00000 ]
	SubspaceRotationAdjust: set factor to 0.383
ElecMinimize: Iter: 191  F: -1894.972413037841761  |grad|_K:  2.039e-07  alpha:  1.926e-01  linmin:  1.526e-06  t[s]:   9682.19
	FillingsUpdate:  mu: +0.125312167  nElectrons: 340.000000  magneticMoment: [ Abs: 39.53631  Tot: -0.00000 ]
	SubspaceRotationAdjust: set factor to 0.457
[...]
	SubspaceRotationAdjust: set factor to 0.231
ElecMinimize: Iter:  12  F: -1895.056953994005653  |grad|_K:  2.946e-07  alpha:  3.256e-01  linmin:  1.105e-05  t[s]:  84561.20
	FillingsUpdate:  mu: +0.132023301  nElectrons: 340.000000  magneticMoment: [ Abs: 40.21089  Tot: +0.00000 ]
	SubspaceRotationAdjust: set factor to 0.284
ElecMinimize: Iter:  13  F: -1895.056959766833188  |grad|_K:  2.101e-07  alpha:  3.824e-01  linmin: -5.193e-07  t[s]:  84606.36
	FillingsUpdate:  mu: +0.132033231  nElectrons: 340.000000  magneticMoment: [ Abs: 40.21121  Tot: +0.00000 ]
	SubspaceRotationAdjust: set factor to 0.332
ElecMinimize: Iter:  14  F: -1895.056962768023141  |grad|_K:  1.721e-07  alpha:  3.906e-01  linmin: -1.723e-07  t[s]:  84651.43
	FillingsUpdate:  mu: +0.132039398  nElectrons: 340.000000  magneticMoment: [ Abs: 40.21060  Tot: +0.00000 ]
	SubspaceRotationAdjust: set factor to 0.331
ElecMinimize: Iter:  15  F: -1895.056964618044276  |grad|_K:  1.446e-07  alpha:  3.586e-01  linmin:  2.807e-06  t[s]:  84696.80
	FillingsUpdate:  mu: +0.131983578  nElectrons: 340.000000  magneticMoment: [ Abs: 40.21100  Tot: +0.00000 ]
	SubspaceRotationAdjust: set factor to 0.312
ElecMinimize: Iter:  16  F: -1895.056965855186718  |grad|_K:  1.147e-07  alpha:  3.402e-01  linmin: -2.497e-06  t[s]:  84742.30
	FillingsUpdate:  mu: +0.132056314  nElectrons: 340.000000  magneticMoment: [ Abs: 40.21051  Tot: +0.00000 ]
	SubspaceRotationAdjust: set factor to 0.312
ElecMinimize: Iter:  17  F: -1895.056966679822381  |grad|_K:  9.047e-08  alpha:  3.600e-01  linmin:  3.725e-06  t[s]:  84787.47
	FillingsUpdate:  mu: +0.131991999  nElectrons: 340.000000  magneticMoment: [ Abs: 40.21075  Tot: -0.00000 ]
	SubspaceRotationAdjust: set factor to 0.341
ElecMinimize: Iter:  18  F: -1895.056967207495290  |grad|_K:  7.072e-08  alpha:  3.705e-01  linmin: -1.287e-06  t[s]:  84833.27
	FillingsUpdate:  mu: +0.132027725  nElectrons: 340.000000  magneticMoment: [ Abs: 40.21049  Tot: +0.00000 ]
	SubspaceRotationAdjust: set factor to 0.397
ElecMinimize: Iter:  19  F: -1895.056967554832681  |grad|_K:  6.159e-08  alpha:  3.987e-01  linmin: -2.965e-06  t[s]:  84878.81
	FillingsUpdate:  mu: +0.132011397  nElectrons: 340.000000  magneticMoment: [ Abs: 40.21050  Tot: -0.00000 ]
	SubspaceRotationAdjust: set factor to 0.471
ElecMinimize: Iter:  20  F: -1895.056967847041278  |grad|_K:  6.092e-08  alpha:  4.423e-01  linmin:  4.296e-07  t[s]:  84924.60
	FillingsUpdate:  mu: +0.132009336  nElectrons: 340.000000  magneticMoment: [ Abs: 40.21043  Tot: +0.00000 ]
	SubspaceRotationAdjust: set factor to 0.518
ElecMinimize: Iter:  21  F: -1895.056968156907487  |grad|_K:  7.097e-08  alpha:  4.798e-01  linmin:  4.562e-06  t[s]:  84970.19
ElecMinimize: Converged (|Delta F|<1.000000e-06 for 5 iters).
Setting wave functions to eigenvectors of Hamiltonian

# Ionic positions in lattice coordinates:
ion Ni   0.002042798716448  -0.144116229393008   0.192972737523442 1
ion Ni   0.499167900596854   0.011522393599865   0.156675935061646 1
ion Ni  -0.014252315866815   0.464933205750868   0.158800064470742 1
ion Ni   0.000000000000000   0.500000000000000  -0.050000000000000 0
ion Co   0.490900843743855   0.499193333781092   0.162604392662734 1
ion Co   0.224298152673011   0.760872884021417   0.065065698984920 1
ion Cr   0.242794847613083   0.256596109200960   0.057482511225806 1
ion Cr  -0.255830208940862   0.254982999030626   0.057382713112969 1
ion V  -0.253577147467712   0.755572189662457   0.060098525593456 1
ion V   0.000000000000000   0.000000000000000  -0.050000000000000 0
ion V   0.500000000000000   0.000000000000000  -0.050000000000000 0
ion V   0.500000000000000   0.500000000000000  -0.050000000000000 0
ion V   0.250000000000000   0.250000000000000  -0.150000000000000 0
ion V   0.250000000000000   0.750000000000000  -0.150000000000000 0
ion V  -0.250000000000000   0.250000000000000  -0.150000000000000 0
ion V  -0.250000000000000   0.750000000000000  -0.150000000000000 0
ion O   0.255165666306760   0.269742759967091   0.145551497143472 1
ion O   0.277414137798807   0.761349885024573   0.158013890705673 1
ion O  -0.277957253467593   0.258539741414578   0.147426794411395 1
ion O  -0.261029363851085   0.739317238317140   0.158266199993950 1
ion O  -0.006066835796874   0.024140653271633   0.049294666214234 1
ion O   0.492549679935372   0.024865433485383   0.050589235758308 1
ion O  -0.003723051422263   0.489652475855947   0.051095695472332 1
ion O   0.492993131443264   0.488528777905560   0.050011688002640 1
ion O   0.250000000000000   0.250000000000000  -0.050000000000000 0
ion O   0.250000000000000   0.750000000000000  -0.050000000000000 0
ion O  -0.250000000000000   0.250000000000000  -0.050000000000000 0
ion O  -0.250000000000000   0.750000000000000  -0.050000000000000 0
ion O   0.000000000000000   0.000000000000000  -0.150000000000000 0
ion O   0.500000000000000   0.000000000000000  -0.150000000000000 0
ion O   0.000000000000000   0.500000000000000  -0.150000000000000 0
ion O   0.500000000000000   0.500000000000000  -0.150000000000000 0
ion O  -0.006793804133509   0.019808747302770   0.255855072440491 1

# Forces in Lattice coordinates:
force Ni   0.000790220116087   0.019340967205958   0.006569559014617 1
force Ni  -0.000974945806249  -0.000735325287372   0.020994612225383 1
force Ni   0.006096548709828  -0.014999638964473  -0.013026182016875 1
force Ni   0.007428345628395   0.027179429297538   0.034884295714625 0
force Co   0.005375055145877  -0.009219223996111   0.011143209662118 1
force Co  -0.008952022919191   0.000884909197835  -0.011790166305214 1
force Cr  -0.011254349558153   0.004256479383781  -0.038168425679141 1
force Cr   0.008082475610701   0.003568275280196  -0.036986478775237 1
force V   0.009806473547559   0.013718421323112  -0.040961103177133 1
force V  -0.010536647628971  -0.002874734203929   0.377886431423822 0
force V  -0.090300760057596  -0.011310476379785   0.387271621964114 0
force V  -0.079158828326913   0.046230079257551   0.340179808446623 0
force V  -0.025549591964245   0.058577159002463  -0.272871166836918 0
force V  -0.026945163021958  -0.056023012797073  -0.214997974475553 0
force V   0.083907324072982   0.031216221933090  -0.417036683152650 0
force V   0.085302025973674  -0.032226367418660  -0.348358105507232 0
force O   0.000307357375588  -0.001497870293606   0.044228940686381 1
force O   0.003502211581745  -0.006925633972858   0.040356063681256 1
force O  -0.012824719363425   0.009324242566355   0.010784037949833 1
force O  -0.004761390940046  -0.009199558210153   0.007539869775654 1
force O   0.001940267624744  -0.004478480189428   0.007512532826424 1
force O   0.007207342395596  -0.008586142866447   0.000951263981814 1
force O  -0.003483976209131  -0.003588105298643  -0.005213016214799 1
force O   0.007275976052175  -0.005448041385123  -0.005813865046012 1
force O   0.015518043713420   0.026759626381345   0.327697600343028 0
force O  -0.005330014681271  -0.054865632677869   0.135829458090076 0
force O  -0.026010152208252   0.063677801613678   0.261064264312798 0
force O  -0.057909428360506  -0.019515827524172   0.219181044051041 0
force O   0.026654160561481  -0.002615013285964  -0.330327100630790 0
force O   0.029101364992711  -0.003172967031989  -0.198788992769513 0
force O   0.021844129608954   0.000909126621595  -0.206535634111654 0
force O   0.040852883084139  -0.002110334361362  -0.204087168845351 0
force O  -0.001082399263386  -0.008472376272628   0.006704271344390 1

# Energy components:
   Eewald =     4909.2857574566232870
       EH =     6616.9011349958345818
     Eloc =   -13596.7528061431130482
      Enl =     -464.6053412269172895
   Epulay =       -0.0004828466650297
      Exc =     -236.7478440280889345
       KE =      875.6165356574763337
        U =        1.2471339343952328
-------------------------------------
     Etot =    -1895.0559122004558503
       TS =        0.0010559564516564
-------------------------------------
        F =    -1895.0569681569074874

IonicMinimize: Iter:  27  F: -1895.056968156907487  |grad|_K:  6.481e-04  alpha:  1.000e+00  linmin:  2.659e-02  t[s]:  84986.01

#--- Lowdin population analysis ---
# oxidation-state Ni +3.568 +3.727 +3.575 +3.426
# magnetic-moments Ni +0.744 -0.799 -0.797 +0.855
# oxidation-state Co +1.231 +1.222
# magnetic-moments Co -2.671 +2.693
# oxidation-state Cr +2.939 +2.961
# magnetic-moments Cr +1.047 -3.150
# oxidation-state V +1.026 +0.973 +1.016 +1.038 +1.062 +1.058 +1.069 +1.067
# magnetic-moments V -2.920 -2.845 +2.752 +2.720 -2.911 -2.903 +2.907 +2.906
# oxidation-state O -0.726 -0.828 -0.753 -0.775 -0.855 -0.851 -0.818 -0.879 -0.858 -0.887 -0.862 -0.875 -0.956 -0.954 -0.918 -0.953 -0.347
# magnetic-moments O -0.122 +0.213 +0.025 +0.196 +0.109 -0.005 +0.077 +0.036 +0.057 +0.083 +0.056 +0.047 +0.006 -0.006 +0.093 -0.008 +1.399


-------- Electronic minimization -----------
	FillingsUpdate:  mu: +0.130526803  nElectrons: 340.000000  magneticMoment: [ Abs: 40.20784  Tot: +0.00000 ]
ElecMinimize: Iter:   0  F: -1895.045104509936664  |grad|_K:  1.848e-05  alpha:  1.000e+00
	FillingsUpdate:  mu: +0.133028867  nElectrons: 340.000000  magneticMoment: [ Abs: 40.21488  Tot: -0.00000 ]
	SubspaceRotationAdjust: set factor to 0.473
ElecMinimize: Iter:   1  F: -1895.056477222372450  |grad|_K:  2.965e-06  alpha:  1.920e-01  linmin:  8.941e-04  t[s]:  85066.74
	FillingsUpdate:  mu: +0.131652511  nElectrons: 340.000000  magneticMoment: [ Abs: 40.20939  Tot: -0.00000 ]
	SubspaceRotationAdjust: set factor to 0.329
ElecMinimize: Iter:   2  F: -1895.056782271489283  |grad|_K:  2.045e-06  alpha:  2.002e-01  linmin:  6.575e-04  t[s]:  85112.62
	FillingsUpdate:  mu: +0.131594477  nElectrons: 340.000000  magneticMoment: [ Abs: 40.21457  Tot: -0.00000 ]
	SubspaceRotationAdjust: set factor to 0.225
ElecMinimize: Iter:   3  F: -1895.056909822556008  |grad|_K:  1.143e-06  alpha:  1.791e-01  linmin: -2.456e-04  t[s]:  85158.43
	FillingsUpdate:  mu: +0.132463153  nElectrons: 340.000000  magneticMoment: [ Abs: 40.21198  Tot: -0.00000 ]
	SubspaceRotationAdjust: set factor to 0.259
ElecMinimize: Iter:   4  F: -1895.056966089896378  |grad|_K:  7.461e-07  alpha:  2.447e-01  linmin: -3.550e-06  t[s]:  85203.57
	FillingsUpdate:  mu: +0.132228845  nElectrons: 340.000000  magneticMoment: [ Abs: 40.21200  Tot: -0.00000 ]
	SubspaceRotationAdjust: set factor to 0.265
ElecMinimize: Iter:   5  F: -1895.056994881485025  |grad|_K:  5.181e-07  alpha:  2.971e-01  linmin:  2.058e-05  t[s]:  85248.76
	FillingsUpdate:  mu: +0.131678682  nElectrons: 340.000000  magneticMoment: [ Abs: 40.21411  Tot: +0.00000 ]
	SubspaceRotationAdjust: set factor to 0.261
ElecMinimize: Iter:   6  F: -1895.057008321595958  |grad|_K:  3.730e-07  alpha:  2.880e-01  linmin: -1.292e-05  t[s]:  85293.59
	FillingsUpdate:  mu: +0.132026055  nElectrons: 340.000000  magneticMoment: [ Abs: 40.21290  Tot: -0.00000 ]
	SubspaceRotationAdjust: set factor to 0.299
ElecMinimize: Iter:   7  F: -1895.057016068648409  |grad|_K:  2.842e-07  alpha:  3.195e-01  linmin: -1.586e-06  t[s]:  85338.90
	FillingsUpdate:  mu: +0.132103574  nElectrons: 340.000000  magneticMoment: [ Abs: 40.21293  Tot: -0.00000 ]
	SubspaceRotationAdjust: set factor to 0.339
ElecMinimize: Iter:   8  F: -1895.057020444198088  |grad|_K:  2.319e-07  alpha:  3.111e-01  linmin:  1.549e-06  t[s]:  85383.89
	FillingsUpdate:  mu: +0.131850904  nElectrons: 340.000000  magneticMoment: [ Abs: 40.21436  Tot: -0.00000 ]
	SubspaceRotationAdjust: set factor to 0.344
ElecMinimize: Iter:   9  F: -1895.057023373453603  |grad|_K:  1.926e-07  alpha:  3.130e-01  linmin: -2.264e-06  t[s]:  85428.81
	FillingsUpdate:  mu: +0.131999413  nElectrons: 340.000000  magneticMoment: [ Abs: 40.21335  Tot: +0.00000 ]
	SubspaceRotationAdjust: set factor to 0.364
ElecMinimize: Iter:  10  F: -1895.057025357076100  |grad|_K:  1.484e-07  alpha:  3.070e-01  linmin:  4.677e-07  t[s]:  85473.98
	FillingsUpdate:  mu: +0.132001997  nElectrons: 340.000000  magneticMoment: [ Abs: 40.21361  Tot: +0.00000 ]
	SubspaceRotationAdjust: set factor to 0.419
ElecMinimize: Iter:  11  F: -1895.057026588350482  |grad|_K:  1.170e-07  alpha:  3.209e-01  linmin:  1.961e-07  t[s]:  85519.33
	FillingsUpdate:  mu: +0.131911884  nElectrons: 340.000000  magneticMoment: [ Abs: 40.21437  Tot: +0.00000 ]
	SubspaceRotationAdjust: set factor to 0.4
ElecMinimize: Iter:  12  F: -1895.057027234600582  |grad|_K:  9.176e-08  alpha:  2.711e-01  linmin: -1.180e-06  t[s]:  85564.56
	FillingsUpdate:  mu: +0.132000713  nElectrons: 340.000000  magneticMoment: [ Abs: 40.21374  Tot: -0.00000 ]
	SubspaceRotationAdjust: set factor to 0.349
ElecMinimize: Iter:  13  F: -1895.057027615411016  |grad|_K:  7.205e-08  alpha:  2.597e-01  linmin:  2.135e-06  t[s]:  85609.90
	FillingsUpdate:  mu: +0.131962975  nElectrons: 340.000000  magneticMoment: [ Abs: 40.21401  Tot: -0.00000 ]
	SubspaceRotationAdjust: set factor to 0.384
ElecMinimize: Iter:  14  F: -1895.057027880133091  |grad|_K:  5.889e-08  alpha:  2.928e-01  linmin: -3.746e-07  t[s]:  85655.13
	FillingsUpdate:  mu: +0.131937860  nElectrons: 340.000000  magneticMoment: [ Abs: 40.21425  Tot: -0.00000 ]
	SubspaceRotationAdjust: set factor to 0.446
ElecMinimize: Iter:  15  F: -1895.057028086144328  |grad|_K:  5.197e-08  alpha:  3.410e-01  linmin: -1.681e-07  t[s]:  85700.35
	FillingsUpdate:  mu: +0.132002405  nElectrons: 340.000000  magneticMoment: [ Abs: 40.21391  Tot: +0.00000 ]
	SubspaceRotationAdjust: set factor to 0.47
ElecMinimize: Iter:  16  F: -1895.057028264601058  |grad|_K:  5.647e-08  alpha:  3.795e-01  linmin:  3.907e-06  t[s]:  85745.80
ElecMinimize: Converged (|Delta F|<1.000000e-06 for 5 iters).
Setting wave functions to eigenvectors of Hamiltonian

# Ionic positions in lattice coordinates:
ion Ni   0.002188401665435  -0.143362031270548   0.192778889277604 1
ion Ni   0.499226022346682   0.011208941412052   0.156757847615256 1
ion Ni  -0.013924075101980   0.463927186468771   0.158782240753221 1
ion Ni   0.000000000000000   0.500000000000000  -0.050000000000000 0
ion Co   0.491042748885079   0.499020659739172   0.162641131275517 1
ion Co   0.224133873197729   0.760897154618794   0.065027384437463 1
ion Cr   0.242613711192470   0.256861061718018   0.057425824557971 1
ion Cr  -0.255642921100124   0.255241345317620   0.057272949308428 1
ion V  -0.253134051626639   0.756110052381578   0.059956535246597 1
ion V   0.000000000000000   0.000000000000000  -0.050000000000000 0
ion V   0.500000000000000   0.000000000000000  -0.050000000000000 0
ion V   0.500000000000000   0.500000000000000  -0.050000000000000 0
ion V   0.250000000000000   0.250000000000000  -0.150000000000000 0
ion V   0.250000000000000   0.750000000000000  -0.150000000000000 0
ion V  -0.250000000000000   0.250000000000000  -0.150000000000000 0
ion V  -0.250000000000000   0.750000000000000  -0.150000000000000 0
ion O   0.255163898561237   0.269455072315804   0.145665263910974 1
ion O   0.277411012288964   0.760866189232403   0.158095407878879 1
ion O  -0.278270471197841   0.258656945760372   0.147447368364573 1
ion O  -0.260952164634754   0.739065241495246   0.158272476004266 1
ion O  -0.005863277317153   0.023901645107130   0.049343973581725 1
ion O   0.492827126115648   0.024564705873130   0.050600766536409 1
ion O  -0.003722417188411   0.489468372528506   0.051102009550659 1
ion O   0.493327148791778   0.488165014479348   0.050004026292313 1
ion O   0.250000000000000   0.250000000000000  -0.050000000000000 0
ion O   0.250000000000000   0.750000000000000  -0.050000000000000 0
ion O  -0.250000000000000   0.250000000000000  -0.050000000000000 0
ion O  -0.250000000000000   0.750000000000000  -0.050000000000000 0
ion O   0.000000000000000   0.000000000000000  -0.150000000000000 0
ion O   0.500000000000000   0.000000000000000  -0.150000000000000 0
ion O   0.000000000000000   0.500000000000000  -0.150000000000000 0
ion O   0.500000000000000   0.500000000000000  -0.150000000000000 0
ion O  -0.006850864700856   0.019261830020223   0.255837393886962 1

# Forces in Lattice coordinates:
force Ni  -0.002490660400831  -0.002306089040972  -0.013392248002898 1
force Ni  -0.000219383624438  -0.000642305405598  -0.005586342626831 1
force Ni   0.002114469435762  -0.003582642682447  -0.023168885891515 1
force Ni   0.008228566610782   0.027284284291522   0.068890524012964 0
force Co   0.004968067129675  -0.005939640044921   0.000373824664577 1
force Co  -0.002145271202821  -0.000681237064424  -0.011323002729678 1
force Cr  -0.003273084504857  -0.004323365650246  -0.013405402407452 1
force Cr   0.001175603731467  -0.003615088829526  -0.006906980502634 1
force V  -0.002106279278516  -0.001464549831935  -0.005316365247727 1
force V  -0.009263266619874  -0.002839146829299   0.384617886679691 0
force V  -0.090820376406811  -0.011606252435229   0.402205195049705 0
force V  -0.079177396431708   0.046402236833316   0.352267686804421 0
force V  -0.025610683661069   0.059116961385913  -0.261218267833584 0
force V  -0.026916685800852  -0.056534934417053  -0.203775805498951 0
force V   0.083980619230894   0.031714267835051  -0.406341951526809 0
force V   0.085371381412909  -0.032651115029782  -0.336873143732570 0
force O   0.002428549277351  -0.004198017752975   0.001305723506597 1
force O   0.004182137545551  -0.004447567772544   0.029131462546275 1
force O  -0.006721335010839   0.003272287353970  -0.011623304544118 1
force O  -0.002294844561185  -0.006612665975609  -0.007206105333609 1
force O   0.000590756066159  -0.000646030265352  -0.004707359580928 1
force O   0.002378899186922  -0.003606636331218  -0.005584004862625 1
force O  -0.002185333032230  -0.000139627124933  -0.009402588756116 1
force O   0.002827404801132  -0.001841978110198  -0.009810035263240 1
force O   0.014810634667370   0.027730675566548   0.330784338997868 0
force O  -0.005219231136266  -0.054827443425982   0.139556066450554 0
force O  -0.025496579807537   0.063593754048285   0.263103511717877 0
force O  -0.056812797040171  -0.020043422283618   0.217735016799235 0
force O   0.026555212184693  -0.002559033476893  -0.328998697324458 0
force O   0.029155351449104  -0.003086002182964  -0.198978465492506 0
force O   0.021717691140664   0.000864165904793  -0.208706548087239 0
force O   0.040891108037233  -0.002050008238448  -0.203305137543888 0
force O  -0.001172547169713  -0.005794230820857   0.036923772018007 1

# Energy components:
   Eewald =     4909.7201021976252377
       EH =     6617.3479444413442252
     Eloc =   -13597.6327490472613135
      Enl =     -464.6068919377646580
   Epulay =       -0.0004828466650297
      Exc =     -236.7474770148203049
       KE =      875.6166510550245903
        U =        1.2469304803642878
-------------------------------------
     Etot =    -1895.0559726721528477
       TS =        0.0010555924482233
-------------------------------------
        F =    -1895.0570282646010583

IonicMinimize: Iter:  28  F: -1895.057028264601058  |grad|_K:  3.178e-04  alpha:  1.000e+00  linmin: -2.404e-02  t[s]:  85761.90
IonicMinimize: Converged (|Delta F|<1.000000e-04 for 3 iters).

#--- Lowdin population analysis ---
# oxidation-state Ni +3.570 +3.727 +3.577 +3.425
# magnetic-moments Ni +0.746 -0.799 -0.797 +0.855
# oxidation-state Co +1.232 +1.222
# magnetic-moments Co -2.670 +2.693
# oxidation-state Cr +2.939 +2.962
# magnetic-moments Cr +1.048 -3.150
# oxidation-state V +1.027 +0.973 +1.018 +1.040 +1.061 +1.058 +1.068 +1.065
# magnetic-moments V -2.920 -2.846 +2.750 +2.719 -2.911 -2.903 +2.908 +2.908
# oxidation-state O -0.727 -0.828 -0.754 -0.775 -0.855 -0.851 -0.818 -0.879 -0.857 -0.886 -0.862 -0.875 -0.956 -0.955 -0.919 -0.954 -0.347
# magnetic-moments O -0.122 +0.214 +0.026 +0.197 +0.109 -0.005 +0.076 +0.036 +0.056 +0.083 +0.056 +0.047 +0.007 -0.006 +0.092 -0.007 +1.399


Dumping 'run.ionpos' ... done
Dumping 'run.lattice' ... done
Dumping 'run.Ecomponents' ... done
End date and time: Sat May 17 21:07:59 2025  (Duration: 0-23:49:26.05)
Done!
