/var/spool/slurmd/job44077/slurm_script: line 9: module: command not found
/var/spool/slurmd/job44077/slurm_script: line 10: module: command not found

*************** JDFTx 1.7.0  ***************

Start date and time: Tue May  6 18:49:09 2025
Executable /data2/jt577/jdftx_eat_withLibXC/build/jdftx with command-line: -i /data2/jt577/May_2025/Relax_Mag/rel2+1_6/O/runs/calc_/run.in
Running on hosts (process indices):  node3303 (0-8)
Divided in process groups (process indices):  0 (0)  1 (1)  2 (2)  3 (3)  4 (4)  5 (5)  6 (6)  7 (7)  8 (8)
Resource initialization completed at t[s]:      0.00
Run totals: 9 processes, 63 threads, 0 GPUs


Input parsed successfully to the following command list (including defaults):

add-mix 
add-U 	Ni d 0.22 \
	Co d 0.2 \
	Cr d 0.16 \
	V d 0.12
basis kpoint-dependent
coords-type Lattice
core-overlap-check vector
coulomb-interaction Periodic
davidson-band-ratio 1.1
dump End IonicPositions Lattice Ecomponents
dump-name run.$VAR
elec-cutoff 30
elec-eigen-algo Davidson
elec-ex-corr gga-x-rpbe gga-c-pbe
elec-smearing Fermi 0.001
electronic-minimize  \
	dirUpdateScheme      FletcherReeves \
	linminMethod         DirUpdateRecommended \
	nIterations          1000 \
	history              15 \
	knormThreshold       0 \
	energyDiffThreshold  1e-06 \
	nEnergyDiff          5 \
	alphaTstart          1 \
	alphaTmin            1e-10 \
	updateTestStepSize   yes \
	alphaTreduceFactor   0.1 \
	alphaTincreaseFactor 3 \
	nAlphaAdjustMax      3 \
	wolfeEnergy          0.0001 \
	wolfeGradient        0.9 \
	fdTest               no
exchange-regularization WignerSeitzTruncated
fluid None
fluid-ex-corr (null) lda-PZ
fluid-gummel-loop 10 1.000000e-05
fluid-minimize  \
	dirUpdateScheme      PolakRibiere \
	linminMethod         DirUpdateRecommended \
	nIterations          100 \
	history              15 \
	knormThreshold       0 \
	energyDiffThreshold  0 \
	nEnergyDiff          2 \
	alphaTstart          1 \
	alphaTmin            1e-10 \
	updateTestStepSize   yes \
	alphaTreduceFactor   0.1 \
	alphaTincreaseFactor 3 \
	nAlphaAdjustMax      3 \
	wolfeEnergy          0.0001 \
	wolfeGradient        0.9 \
	fdTest               no
fluid-solvent H2O 55.338 ScalarEOS \
	epsBulk 78.4 \
	pMol 0.92466 \
	epsInf 1.77 \
	Pvap 1.06736e-10 \
	sigmaBulk 4.62e-05 \
	Rvdw 2.61727 \
	Res 1.42 \
	tauNuc 343133 \
	poleEl 15 7 1
forces-output-coords Positions
initial-magnetic-moments  \
	Ni 1 -1 1 -1 \
	Co -1 1 \
	Cr 1 -1 \
	V -1 -1 1 1 -1 -1 1 1
initial-state run.$VAR
ion Ni  0.000000000000000   0.000000000000000   0.150000000000000 1
ion Ni  0.500000000000000   0.000000000000000   0.150000000000000 1
ion Ni  0.000000000000000   0.500000000000000   0.150000000000000 1
ion Ni  0.000000000000000   0.500000000000000  -0.050000000000000 0
ion Co  0.500000000000000   0.500000000000000   0.150000000000000 1
ion Co  0.250000000000000   0.750000000000000   0.050000000000000 1
ion Cr  0.250000000000000   0.250000000000000   0.050000000000000 1
ion Cr -0.250000000000000   0.250000000000000   0.050000000000000 1
ion V -0.250000000000000   0.750000000000000   0.050000000000000 1
ion V  0.000000000000000   0.000000000000000  -0.050000000000000 0
ion V  0.500000000000000   0.000000000000000  -0.050000000000000 0
ion V  0.500000000000000   0.500000000000000  -0.050000000000000 0
ion V  0.250000000000000   0.250000000000000  -0.150000000000000 0
ion V  0.250000000000000   0.750000000000000  -0.150000000000000 0
ion V -0.250000000000000   0.250000000000000  -0.150000000000000 0
ion V -0.250000000000000   0.750000000000000  -0.150000000000000 0
ion O  0.250000000000000   0.250000000000000   0.150000000000000 1
ion O  0.250000000000000   0.750000000000000   0.150000000000000 1
ion O -0.250000000000000   0.250000000000000   0.150000000000000 1
ion O -0.250000000000000   0.750000000000000   0.150000000000000 1
ion O  0.000000000000000   0.000000000000000   0.050000000000000 1
ion O  0.500000000000000   0.000000000000000   0.050000000000000 1
ion O  0.000000000000000   0.500000000000000   0.050000000000000 1
ion O  0.500000000000000   0.500000000000000   0.050000000000000 1
ion O  0.250000000000000   0.250000000000000  -0.050000000000000 0
ion O  0.250000000000000   0.750000000000000  -0.050000000000000 0
ion O -0.250000000000000   0.250000000000000  -0.050000000000000 0
ion O -0.250000000000000   0.750000000000000  -0.050000000000000 0
ion O  0.000000000000000   0.000000000000000  -0.150000000000000 0
ion O  0.500000000000000   0.000000000000000  -0.150000000000000 0
ion O  0.000000000000000   0.500000000000000  -0.150000000000000 0
ion O  0.500000000000000   0.500000000000000  -0.150000000000000 0
ion O -0.000095572322686   0.000198307128402   0.224876729873325 1
ion-species SG15/$ID_ONCV_PBE.upf
ion-width 0
ionic-minimize  \
	dirUpdateScheme      L-BFGS \
	linminMethod         DirUpdateRecommended \
	nIterations          1000 \
	history              15 \
	knormThreshold       0.0001 \
	energyDiffThreshold  0.0001 \
	nEnergyDiff          3 \
	alphaTstart          1 \
	alphaTmin            1e-10 \
	updateTestStepSize   yes \
	alphaTreduceFactor   0.1 \
	alphaTincreaseFactor 3 \
	nAlphaAdjustMax      3 \
	wolfeEnergy          0.0001 \
	wolfeGradient        0.9 \
	fdTest               no
kpoint   0.500000000000   0.500000000000   0.500000000000  1.00000000000000
kpoint-folding 3 3 1 
latt-move-scale 1 1 1
latt-scale 1 1 1 
lattice  \
	   8.140000000000001    8.140000000000001    0.000000000000000  \
	   8.140000000000001   -8.140000000000001    0.000000000000000  \
	   0.000000000000000    0.000000000000000   40.700000000000003 
lattice-minimize  \
	dirUpdateScheme      L-BFGS \
	linminMethod         DirUpdateRecommended \
	nIterations          0 \
	history              15 \
	knormThreshold       0 \
	energyDiffThreshold  1e-06 \
	nEnergyDiff          2 \
	alphaTstart          1 \
	alphaTmin            1e-10 \
	updateTestStepSize   yes \
	alphaTreduceFactor   0.1 \
	alphaTincreaseFactor 3 \
	nAlphaAdjustMax      3 \
	wolfeEnergy          0.0001 \
	wolfeGradient        0.9 \
	fdTest               no
lcao-params -1 1e-06 0.001
pcm-variant GLSSA13
spintype z-spin
subspace-rotation-factor 1 yes
symmetries none
symmetry-threshold 0.0001


Applied RMS atom displacement 0 bohrs to make symmetries exact.

---------- Initializing the Grid ----------
R = 
[         8.14         8.14            0  ]
[         8.14        -8.14            0  ]
[            0            0         40.7  ]
unit cell volume = 5393.53
G =
[   0.385945   0.385945         -0  ]
[   0.385945  -0.385945         -0  ]
[         -0         -0   0.154378  ]
Minimum fftbox size, Smin = [  60  60  204  ]
Chosen fftbox size, S = [  60  60  210  ]

---------- Exchange Correlation functional ----------
Initialized LibXC exchange functional 'Hammer, Hansen, and Norskov'
Initialized LibXC correlation functional 'Perdew, Burke & Ernzerhof'

---------- Setting up pseudopotentials ----------
Width of ionic core gaussian charges (only for fluid interactions / plotting) set to 0

Reading pseudopotential file '/data2/jt577/jdftx_eat_withLibXC/build/pseudopotentials/SG15/Ni_ONCV_PBE.upf':
  'Ni' pseudopotential, 'PBE' functional
  Generated using ONCVPSP code by D. R. Hamann
  Author: Martin Schlipf and Francois Gygi  Date: 150915.
  18 valence electrons, 4 orbitals, 6 projectors, 1292 radial grid points, with lMax = 2
  Transforming local potential to a uniform radial grid of dG=0.02 with 1419 points.
  Transforming nonlocal projectors to a uniform radial grid of dG=0.02 with 528 points.
    3S    l: 0   occupation:  2.0   eigenvalue: -4.081355
    3P    l: 1   occupation:  6.0   eigenvalue: -2.623460
    4S    l: 0   occupation:  2.0   eigenvalue: -0.207378
    3D    l: 2   occupation:  8.0   eigenvalue: -0.326118
  Transforming atomic orbitals to a uniform radial grid of dG=0.02 with 528 points.
  WARNING: large normalization error in atomic orbital 1s (integral: 0.000006).
  Core radius for overlap checks: 1.99 bohrs.
  Reading pulay file /data2/jt577/jdftx_eat_withLibXC/build/pseudopotentials/SG15/Ni_ONCV_PBE.pulay ... using dE_dnG = -7.250568e-04 computed for Ecut = 30.

Reading pseudopotential file '/data2/jt577/jdftx_eat_withLibXC/build/pseudopotentials/SG15/Co_ONCV_PBE.upf':
  'Co' pseudopotential, 'PBE' functional
  Generated using ONCVPSP code by D. R. Hamann
  Author: Martin Schlipf and Francois Gygi  Date: 150915.
  17 valence electrons, 4 orbitals, 6 projectors, 1388 radial grid points, with lMax = 2
  Transforming local potential to a uniform radial grid of dG=0.02 with 1419 points.
  Transforming nonlocal projectors to a uniform radial grid of dG=0.02 with 528 points.
    3S    l: 0   occupation:  2.0   eigenvalue: -3.763303
    3P    l: 1   occupation:  6.0   eigenvalue: -2.412101
    4S    l: 0   occupation:  2.0   eigenvalue: -0.201022
    3D    l: 2   occupation:  7.0   eigenvalue: -0.301498
  Transforming atomic orbitals to a uniform radial grid of dG=0.02 with 528 points.
  Core radius for overlap checks: 1.94 bohrs.
  Reading pulay file /data2/jt577/jdftx_eat_withLibXC/build/pseudopotentials/SG15/Co_ONCV_PBE.pulay ... using dE_dnG = -9.787391e-05 computed for Ecut = 30.

Reading pseudopotential file '/data2/jt577/jdftx_eat_withLibXC/build/pseudopotentials/SG15/Cr_ONCV_PBE.upf':
  'Cr' pseudopotential, 'PBE' functional
  Generated using ONCVPSP code by D. R. Hamann
  Author: Martin Schlipf and Francois Gygi  Date: 150915.
  14 valence electrons, 4 orbitals, 6 projectors, 1160 radial grid points, with lMax = 2
  Transforming local potential to a uniform radial grid of dG=0.02 with 1419 points.
  Transforming nonlocal projectors to a uniform radial grid of dG=0.02 with 528 points.
    3S    l: 0   occupation:  2.0   eigenvalue: -2.865131
    3P    l: 1   occupation:  6.0   eigenvalue: -1.810600
    4S    l: 0   occupation:  2.0   eigenvalue: -0.180525
    3D    l: 2   occupation:  4.0   eigenvalue: -0.220312
  Transforming atomic orbitals to a uniform radial grid of dG=0.02 with 528 points.
  WARNING: large normalization error in atomic orbital 1s (integral: 0.000001).
  Core radius for overlap checks: 2.10 bohrs.
  Reading pulay file /data2/jt577/jdftx_eat_withLibXC/build/pseudopotentials/SG15/Cr_ONCV_PBE.pulay ... using dE_dnG = -9.817895e-06 computed for Ecut = 30.

Reading pseudopotential file '/data2/jt577/jdftx_eat_withLibXC/build/pseudopotentials/SG15/V_ONCV_PBE.upf':
  'V' pseudopotential, 'PBE' functional
  Generated using ONCVPSP code by D. R. Hamann
  Author: Martin Schlipf and Francois Gygi  Date: 150915.
  13 valence electrons, 4 orbitals, 6 projectors, 1536 radial grid points, with lMax = 2
  Transforming local potential to a uniform radial grid of dG=0.02 with 1419 points.
  Transforming nonlocal projectors to a uniform radial grid of dG=0.02 with 528 points.
    3S    l: 0   occupation:  2.0   eigenvalue: -2.581105
    3P    l: 1   occupation:  6.0   eigenvalue: -1.618486
    4S    l: 0   occupation:  2.0   eigenvalue: -0.172804
    3D    l: 2   occupation:  3.0   eigenvalue: -0.189795
  Transforming atomic orbitals to a uniform radial grid of dG=0.02 with 528 points.
  Core radius for overlap checks: 1.80 bohrs.
  Reading pulay file /data2/jt577/jdftx_eat_withLibXC/build/pseudopotentials/SG15/V_ONCV_PBE.pulay ... using dE_dnG = -1.698632e-04 computed for Ecut = 30.

Reading pseudopotential file '/data2/jt577/jdftx_eat_withLibXC/build/pseudopotentials/SG15/O_ONCV_PBE.upf':
  'O' pseudopotential, 'PBE' functional
  Generated using ONCVPSP code by D. R. Hamann
  Author: Martin Schlipf and Francois Gygi  Date: 150915.
  6 valence electrons, 2 orbitals, 4 projectors, 936 radial grid points, with lMax = 1
  Transforming local potential to a uniform radial grid of dG=0.02 with 1419 points.
  Transforming nonlocal projectors to a uniform radial grid of dG=0.02 with 528 points.
    2S    l: 0   occupation:  2.0   eigenvalue: -0.880572
    2P    l: 1   occupation:  4.0   eigenvalue: -0.331869
  Transforming atomic orbitals to a uniform radial grid of dG=0.02 with 528 points.
  Core radius for overlap checks: 1.29 bohrs.
  Reading pulay file /data2/jt577/jdftx_eat_withLibXC/build/pseudopotentials/SG15/O_ONCV_PBE.pulay ... using dE_dnG = -8.209514e-03 computed for Ecut = 30.

Initialized 5 species with 33 total atoms.

Folded 1 k-points by 3x3x1 to 9 k-points.

---------- Setting up k-points, bands, fillings ----------
No reducable k-points. 
Computing the number of bands and number of electrons
Calculating initial fillings.
nElectrons: 340.000000   nBands: 228   nStates: 18

----- Setting up reduced wavefunction bases (one per k-point) -----
average nbasis = 42312.000 , ideal nbasis = 42330.081

---------- Setting up ewald sum ----------
Optimum gaussian width for ewald sums = 3.906449 bohr.
Real space sum over 605 unit cells with max indices [  5  5  2  ]
Reciprocal space sum over 5915 terms with max indices [  6  6  17  ]

---------- Allocating electronic variables ----------
Initializing wave functions:  linear combination of atomic orbitals
Ni (M=1) pseudo-atom majority spin occupations:   s ( 1 0.5 )  p ( 3 )  d ( 5 )
Ni (M=1) pseudo-atom minority spin occupations:   s ( 1 0 )  p ( 3 )  d ( 4.5 )
Co (M=1) pseudo-atom majority spin occupations:   s ( 1 0 )  p ( 3 )  d ( 5 )
Co (M=1) pseudo-atom minority spin occupations:   s ( 1 0 )  p ( 3 )  d ( 4 )
Cr (M=1) pseudo-atom majority spin occupations:   s ( 1 0 )  p ( 3 )  d ( 3.5 )
Cr (M=1) pseudo-atom minority spin occupations:   s ( 1 0 )  p ( 3 )  d ( 2.5 )
V (M=1) pseudo-atom majority spin occupations:   s ( 1 0 )  p ( 3 )  d ( 3 )
V (M=1) pseudo-atom minority spin occupations:   s ( 1 0 )  p ( 3 )  d ( 2 )
O pseudo-atom occupations:   s ( 2 )  p ( 4 )
	FillingsUpdate:  mu: +0.972421612  nElectrons: 340.000000  magneticMoment: [ Abs: 0.72467  Tot: +0.00000 ]
LCAOMinimize: Iter:   0  F: -1760.9889486266442873  |grad|_K:  1.012e-02  alpha:  1.000e+00
	FillingsUpdate:  mu: +0.584413341  nElectrons: 340.000000  magneticMoment: [ Abs: 1.56951  Tot: -0.00000 ]
LCAOMinimize: Iter:   1  F: -1767.8754724136681489  |grad|_K:  1.155e-02  alpha:  4.224e-02  linmin: -4.364e-02  cgtest:  6.321e-01  t[s]:     63.38
LCAOMinimize: 	Wrong curvature in test step, increasing alphaT to 1.267057e-01.
	FillingsUpdate:  mu: +0.487624428  nElectrons: 340.000000  magneticMoment: [ Abs: 4.83035  Tot: -0.00000 ]
LCAOMinimize: Iter:   2  F: -1783.5508989627267056  |grad|_K:  1.316e-02  alpha: -3.194e-02  linmin: -4.875e-02  cgtest:  6.559e-01  t[s]:     83.91
LCAOMinimize: 	Step increased F by 6.007927e+02, reducing alpha to 1.231541e-02.
	FillingsUpdate:  mu: +0.403963973  nElectrons: 340.000000  magneticMoment: [ Abs: 4.34465  Tot: +0.00000 ]
LCAOMinimize: Iter:   3  F: -1788.7778899330146487  |grad|_K:  1.743e-02  alpha:  1.232e-02  linmin: -4.263e-02  cgtest:  6.585e-01  t[s]:    122.09
	FillingsUpdate:  mu: +1.048792894  nElectrons: 340.000000  magneticMoment: [ Abs: 6.26025  Tot: -0.00000 ]
LCAOMinimize: Iter:   4  F: -1791.0259616275734516  |grad|_K:  4.562e-02  alpha:  1.411e-02  linmin:  5.035e-02  cgtest: -1.875e-01  t[s]:    143.84
LCAOMinimize: 	Bad step direction: g.d > 0.
LCAOMinimize: 	Undoing step.
LCAOMinimize: 	Step failed: resetting search direction.
	FillingsUpdate:  mu: +1.048792894  nElectrons: 340.000000  magneticMoment: [ Abs: 6.26025  Tot: -0.00000 ]
LCAOMinimize: Iter:   5  F: -1791.0259616275734516  |grad|_K:  4.562e-02  alpha:  0.000e+00
	FillingsUpdate:  mu: +1.097740884  nElectrons: 340.000000  magneticMoment: [ Abs: 4.35544  Tot: +0.00000 ]
LCAOMinimize: Iter:   6  F: -1800.2689132220314150  |grad|_K:  4.812e-02  alpha:  1.951e-02  linmin:  1.151e-01  cgtest: -8.426e-01  t[s]:    180.77
LCAOMinimize: 	Bad step direction: g.d > 0.
LCAOMinimize: 	Undoing step.
LCAOMinimize: 	Step failed: resetting search direction.
	FillingsUpdate:  mu: +1.097740884  nElectrons: 340.000000  magneticMoment: [ Abs: 4.35544  Tot: +0.00000 ]
LCAOMinimize: Iter:   7  F: -1800.2689132220314150  |grad|_K:  4.812e-02  alpha:  0.000e+00
	FillingsUpdate:  mu: +0.214899978  nElectrons: 340.000000  magneticMoment: [ Abs: 8.60180  Tot: +0.00000 ]
LCAOMinimize: Iter:   8  F: -1811.8748058662404219  |grad|_K:  1.043e-02  alpha:  9.908e-03  linmin:  6.133e-03  cgtest: -3.724e-01  t[s]:    218.11
LCAOMinimize: 	Wrong curvature in test step, increasing alphaT to 2.972327e-02.
	FillingsUpdate:  mu: +0.207583685  nElectrons: 340.000000  magneticMoment: [ Abs: 9.18820  Tot: -0.00000 ]
LCAOMinimize: Iter:   9  F: -1812.9645231050499206  |grad|_K:  1.251e-02  alpha: -5.681e-02  linmin: -7.891e-02  cgtest:  8.116e-01  t[s]:    237.63
LCAOMinimize: 	Step increased F by 8.421416e+01, reducing alpha to 2.032796e-02.
	FillingsUpdate:  mu: -0.105317582  nElectrons: 340.000000  magneticMoment: [ Abs: 9.27725  Tot: -0.00000 ]
LCAOMinimize: Iter:  10  F: -1815.7388589248171229  |grad|_K:  2.003e-02  alpha:  2.033e-02  linmin: -4.762e-04  cgtest: -3.920e-02  t[s]:    273.99
	FillingsUpdate:  mu: -0.154989302  nElectrons: 340.000000  magneticMoment: [ Abs: 9.79777  Tot: -0.00000 ]
LCAOMinimize: Iter:  11  F: -1817.6352679396538861  |grad|_K:  1.424e-02  alpha:  4.841e-03  linmin: -3.918e-02  cgtest:  1.242e+00  t[s]:    295.25
LCAOMinimize: Encountered beta<0, resetting CG.
LCAOMinimize: 	Wrong curvature in test step, increasing alphaT to 1.452382e-02.
	FillingsUpdate:  mu: -0.122256293  nElectrons: 340.000000  magneticMoment: [ Abs: 10.18545  Tot: +0.00000 ]
LCAOMinimize: Iter:  12  F: -1818.5976046203243186  |grad|_K:  1.166e-02  alpha: -6.363e-02  linmin: -1.331e-01  cgtest:  7.457e-01  t[s]:    315.22
LCAOMinimize: 	Step increased F by 7.597470e+01, reducing alpha to 2.165759e-02.
	FillingsUpdate:  mu: +0.392250001  nElectrons: 340.000000  magneticMoment: [ Abs: 10.56492  Tot: +0.00000 ]
LCAOMinimize: Iter:  13  F: -1819.2943599431048369  |grad|_K:  1.524e-02  alpha:  2.166e-02  linmin:  3.019e-02  cgtest: -4.630e-01  t[s]:    351.79
	FillingsUpdate:  mu: +0.455924581  nElectrons: 340.000000  magneticMoment: [ Abs: 11.03319  Tot: +0.00000 ]
LCAOMinimize: Iter:  14  F: -1820.2230497364655548  |grad|_K:  1.331e-02  alpha:  1.143e-02  linmin: -7.210e-03  cgtest:  1.047e+00  t[s]:    372.93
LCAOMinimize: Encountered beta<0, resetting CG.
	FillingsUpdate:  mu: -0.026062189  nElectrons: 340.000000  magneticMoment: [ Abs: 10.41954  Tot: -0.00000 ]
LCAOMinimize: Iter:  15  F: -1820.7417002380930171  |grad|_K:  2.276e-02  alpha:  2.258e-02  linmin:  1.118e-01  cgtest: -5.159e-01  t[s]:    393.65
LCAOMinimize: 	Bad step direction: g.d > 0.
LCAOMinimize: 	Undoing step.
LCAOMinimize: 	Step failed: resetting search direction.
	FillingsUpdate:  mu: -0.026062189  nElectrons: 340.000000  magneticMoment: [ Abs: 10.41954  Tot: -0.00000 ]
LCAOMinimize: Iter:  16  F: -1820.7417002380930171  |grad|_K:  2.276e-02  alpha:  0.000e+00
	FillingsUpdate:  mu: +0.121606380  nElectrons: 340.000000  magneticMoment: [ Abs: 12.22003  Tot: +0.00000 ]
LCAOMinimize: Iter:  17  F: -1822.4453873709160234  |grad|_K:  7.103e-03  alpha:  9.157e-03  linmin:  1.065e-01  cgtest: -6.055e-01  t[s]:    430.24
LCAOMinimize: 	Predicted alpha/alphaT>3.000000, increasing alphaT to 2.747223e-02.
LCAOMinimize: 	Predicted alpha/alphaT>3.000000, increasing alphaT to 8.241670e-02.
	FillingsUpdate:  mu: +0.352723871  nElectrons: 340.000000  magneticMoment: [ Abs: 16.26653  Tot: -0.00000 ]
LCAOMinimize: Iter:  18  F: -1823.1621940212967274  |grad|_K:  1.436e-02  alpha:  9.636e-02  linmin:  4.241e-02  cgtest:  5.414e-01  t[s]:    463.22
LCAOMinimize: 	Step increased F by 3.406432e-01, reducing alpha to 5.184505e-04.
	FillingsUpdate:  mu: +0.344128222  nElectrons: 340.000000  magneticMoment: [ Abs: 16.32142  Tot: -0.00000 ]
LCAOMinimize: Iter:  19  F: -1823.1810295254172161  |grad|_K:  1.393e-02  alpha:  5.185e-04  linmin: -6.839e-03  cgtest:  9.994e-01  t[s]:    499.00
LCAOMinimize: Encountered beta<0, resetting CG.
LCAOMinimize: 	Predicted alpha/alphaT>3.000000, increasing alphaT to 1.555352e-03.
LCAOMinimize: 	Predicted alpha/alphaT>3.000000, increasing alphaT to 4.666055e-03.
	FillingsUpdate:  mu: +0.038465324  nElectrons: 340.000000  magneticMoment: [ Abs: 15.50695  Tot: -0.00000 ]
LCAOMinimize: Iter:  20  F: -1824.0920106353132724  |grad|_K:  5.276e-03  alpha:  9.467e-03  linmin: -5.814e-02  cgtest:  3.599e-01  t[s]:    531.65
	FillingsUpdate:  mu: +0.139474884  nElectrons: 340.000000  magneticMoment: [ Abs: 15.61719  Tot: +0.00000 ]
LCAOMinimize: Iter:  21  F: -1824.4339144165646758  |grad|_K:  4.866e-03  alpha:  2.742e-02  linmin:  1.145e-02  cgtest:  4.124e-02  t[s]:    552.78
	FillingsUpdate:  mu: +0.066018647  nElectrons: 340.000000  magneticMoment: [ Abs: 15.63547  Tot: -0.00000 ]
LCAOMinimize: Iter:  22  F: -1824.6112631803378008  |grad|_K:  2.573e-03  alpha:  1.804e-02  linmin: -3.412e-04  cgtest: -1.871e-01  t[s]:    573.84
LCAOMinimize: 	Predicted alpha/alphaT>3.000000, increasing alphaT to 5.411812e-02.
	FillingsUpdate:  mu: +0.077038896  nElectrons: 340.000000  magneticMoment: [ Abs: 17.69222  Tot: -0.00000 ]
LCAOMinimize: Iter:  23  F: -1824.8116827065719008  |grad|_K:  4.540e-03  alpha:  7.217e-02  linmin:  8.622e-03  cgtest: -2.889e-01  t[s]:    600.51
	FillingsUpdate:  mu: +0.058879705  nElectrons: 340.000000  magneticMoment: [ Abs: 18.52135  Tot: +0.00000 ]
LCAOMinimize: Iter:  24  F: -1824.8577736067613841  |grad|_K:  4.714e-03  alpha:  9.366e-03  linmin: -5.024e-04  cgtest:  9.651e-01  t[s]:    621.24
	FillingsUpdate:  mu: +0.049397387  nElectrons: 340.000000  magneticMoment: [ Abs: 18.23064  Tot: -0.00000 ]
LCAOMinimize: Iter:  25  F: -1824.9741998996655639  |grad|_K:  2.529e-03  alpha:  1.093e-02  linmin: -1.130e-02  cgtest:  6.820e-02  t[s]:    642.18
	FillingsUpdate:  mu: +0.098303154  nElectrons: 340.000000  magneticMoment: [ Abs: 18.50610  Tot: -0.00000 ]
LCAOMinimize: Iter:  26  F: -1825.0375430545700510  |grad|_K:  1.555e-03  alpha:  2.011e-02  linmin:  2.440e-03  cgtest: -1.462e-01  t[s]:    663.15
	FillingsUpdate:  mu: +0.104439674  nElectrons: 340.000000  magneticMoment: [ Abs: 19.35855  Tot: +0.00000 ]
LCAOMinimize: Iter:  27  F: -1825.0787088697115905  |grad|_K:  1.523e-03  alpha:  4.045e-02  linmin:  7.245e-03  cgtest:  2.513e-01  t[s]:    684.24
	FillingsUpdate:  mu: +0.080336544  nElectrons: 340.000000  magneticMoment: [ Abs: 20.13194  Tot: -0.00000 ]
LCAOMinimize: Iter:  28  F: -1825.1027757446290707  |grad|_K:  1.282e-03  alpha:  2.242e-02  linmin: -1.611e-03  cgtest:  2.954e-01  t[s]:    705.09
	FillingsUpdate:  mu: +0.064518147  nElectrons: 340.000000  magneticMoment: [ Abs: 20.73329  Tot: -0.00000 ]
LCAOMinimize: Iter:  29  F: -1825.1396616836846079  |grad|_K:  1.497e-03  alpha:  4.376e-02  linmin: -3.327e-03  cgtest:  1.785e-02  t[s]:    725.83
	FillingsUpdate:  mu: +0.083071888  nElectrons: 340.000000  magneticMoment: [ Abs: 21.57608  Tot: +0.00000 ]
LCAOMinimize: Iter:  30  F: -1825.1783342632522817  |grad|_K:  1.442e-03  alpha:  3.349e-02  linmin: -3.332e-04  cgtest: -3.204e-01  t[s]:    746.43
LCAOMinimize: None of the convergence criteria satisfied after 30 iterations.


---- Citations for features of the code used in this run ----

   Software package:
      R. Sundararaman, K. Letchworth-Weaver, K.A. Schwarz, D. Gunceler, Y. Ozhabes and T.A. Arias, 'JDFTx: software for joint density-functional theory', SoftwareX 6, 278 (2017)

   Simplified rotationally-invariant DFT+U:
      S. L. Dudarev et al., Phys. Rev. B 57, 1505 (1998)

   LibXC library of exchange-correlation functions:
      M. A. L. Marques, M. J. T. Oliveira and T. Burnus, Comput. Phys. Commun. 183, 2272 (2012)

   Hammer, Hansen, and Norskov exchange functional:
      B. Hammer, L. B. Hansen, and J. K. Nørskov, Phys. Rev. B 59, 7413 (1999)

   Perdew, Burke & Ernzerhof correlation functional:
      J. P. Perdew, K. Burke, and M. Ernzerhof, Phys. Rev. Lett. 77, 3865 (1996)

   Pseudopotentials:
      M Schlipf and F Gygi, Comput. Phys. Commun. 196, 36 (2015)

   Total energy minimization with Auxiliary Hamiltonian:
      C. Freysoldt, S. Boeck, and J. Neugebauer, Phys. Rev. B 79, 241103(R) (2009)

This list may not be complete. Please suggest additional citations or
report any other bugs at https://github.com/shankar1729/jdftx/issues

Initialization completed successfully at t[s]:    753.78


-------- Electronic minimization -----------
	FillingsUpdate:  mu: +0.083071908  nElectrons: 340.000000  magneticMoment: [ Abs: 21.57608  Tot: +0.00000 ]
ElecMinimize: Iter:   0  F: -1825.178334263251827  |grad|_K:  8.668e-04  alpha:  1.000e+00
	FillingsUpdate:  mu: +0.894564867  nElectrons: 340.000000  magneticMoment: [ Abs: 20.42087  Tot: -0.00000 ]
	SubspaceRotationAdjust: set factor to 0.634
ElecMinimize: Iter:   1  F: -1858.477679990392517  |grad|_K:  1.925e-03  alpha:  4.421e-01  linmin:  1.047e-02  t[s]:    822.34
ElecMinimize: 	Step increased F by 1.104859e+01, reducing alpha to 4.713091e-03.
	FillingsUpdate:  mu: +0.404946938  nElectrons: 340.000000  magneticMoment: [ Abs: 21.82297  Tot: +0.00000 ]
	SubspaceRotationAdjust: set factor to 0.622
ElecMinimize: Iter:   2  F: -1863.307163761752463  |grad|_K:  8.941e-04  alpha:  4.713e-03  linmin: -3.933e-03  t[s]:    898.19
	FillingsUpdate:  mu: +0.206772052  nElectrons: 340.000000  magneticMoment: [ Abs: 23.22702  Tot: -0.00000 ]
	SubspaceRotationAdjust: set factor to 0.898
ElecMinimize: Iter:   3  F: -1865.526217061747502  |grad|_K:  7.136e-04  alpha:  9.995e-03  linmin: -5.780e-03  t[s]:    945.18
ElecMinimize: 	Predicted alpha/alphaT>3.000000, increasing alphaT to 2.998423e-02.
	FillingsUpdate:  mu: +0.605026415  nElectrons: 340.000000  magneticMoment: [ Abs: 26.93805  Tot: -0.00000 ]
	SubspaceRotationAdjust: set factor to 0.757
ElecMinimize: Iter:   4  F: -1870.835096583433824  |grad|_K:  8.429e-04  alpha:  3.473e-02  linmin: -3.358e-03  t[s]:   1004.64
	FillingsUpdate:  mu: +0.245366474  nElectrons: 340.000000  magneticMoment: [ Abs: 26.51780  Tot: -0.00000 ]
	SubspaceRotationAdjust: set factor to 0.489
ElecMinimize: Iter:   5  F: -1880.716102887984789  |grad|_K:  7.889e-04  alpha:  4.985e-02  linmin:  9.321e-05  t[s]:   1050.66
	FillingsUpdate:  mu: +0.162208639  nElectrons: 340.000000  magneticMoment: [ Abs: 26.80575  Tot: +0.00000 ]
	SubspaceRotationAdjust: set factor to 0.542
ElecMinimize: Iter:   6  F: -1884.805191722271957  |grad|_K:  4.758e-04  alpha:  3.868e-02  linmin:  1.392e-04  t[s]:   1098.36
	FillingsUpdate:  mu: +0.235453559  nElectrons: 340.000000  magneticMoment: [ Abs: 26.56726  Tot: +0.00000 ]
	SubspaceRotationAdjust: set factor to 0.651
ElecMinimize: Iter:   7  F: -1887.260101876579029  |grad|_K:  4.125e-04  alpha:  6.720e-02  linmin:  1.890e-04  t[s]:   1145.93
	FillingsUpdate:  mu: +0.309954663  nElectrons: 340.000000  magneticMoment: [ Abs: 26.61172  Tot: +0.00000 ]
	SubspaceRotationAdjust: set factor to 0.725
ElecMinimize: Iter:   8  F: -1888.426263314714788  |grad|_K:  4.237e-04  alpha:  3.923e-02  linmin:  8.687e-05  t[s]:   1192.94
	FillingsUpdate:  mu: +0.355007541  nElectrons: 340.000000  magneticMoment: [ Abs: 27.62731  Tot: -0.00000 ]
	SubspaceRotationAdjust: set factor to 0.633
ElecMinimize: Iter:   9  F: -1889.382945511603111  |grad|_K:  4.209e-04  alpha:  3.128e-02  linmin:  2.429e-05  t[s]:   1240.16
	FillingsUpdate:  mu: +0.350918492  nElectrons: 340.000000  magneticMoment: [ Abs: 28.82041  Tot: -0.00000 ]
	SubspaceRotationAdjust: set factor to 0.47
ElecMinimize: Iter:  10  F: -1890.217208668090962  |grad|_K:  4.191e-04  alpha:  2.716e-02  linmin:  9.010e-05  t[s]:   1287.44
	FillingsUpdate:  mu: +0.183254271  nElectrons: 340.000000  magneticMoment: [ Abs: 28.56117  Tot: -0.00000 ]
	SubspaceRotationAdjust: set factor to 0.485
ElecMinimize: Iter:  11  F: -1890.865642124558235  |grad|_K:  3.078e-04  alpha:  2.076e-02  linmin:  1.574e-04  t[s]:   1334.64
	FillingsUpdate:  mu: +0.051983268  nElectrons: 340.000000  magneticMoment: [ Abs: 28.16848  Tot: +0.00000 ]
	SubspaceRotationAdjust: set factor to 0.549
ElecMinimize: Iter:  12  F: -1891.206850514918642  |grad|_K:  2.788e-04  alpha:  2.237e-02  linmin: -1.025e-04  t[s]:   1381.97
	FillingsUpdate:  mu: +0.032635415  nElectrons: 340.000000  magneticMoment: [ Abs: 28.22672  Tot: +0.00000 ]
	SubspaceRotationAdjust: set factor to 0.435
ElecMinimize: Iter:  13  F: -1891.632299354067982  |grad|_K:  3.121e-04  alpha:  2.974e-02  linmin:  1.954e-05  t[s]:   1428.08
	FillingsUpdate:  mu: +0.067954734  nElectrons: 340.000000  magneticMoment: [ Abs: 29.04569  Tot: +0.00000 ]
	SubspaceRotationAdjust: set factor to 0.326
ElecMinimize: Iter:  14  F: -1892.100543356454182  |grad|_K:  3.058e-04  alpha:  2.797e-02  linmin: -1.330e-05  t[s]:   1474.24
	FillingsUpdate:  mu: +0.129676835  nElectrons: 340.000000  magneticMoment: [ Abs: 30.45358  Tot: +0.00000 ]
	SubspaceRotationAdjust: set factor to 0.391
ElecMinimize: Iter:  15  F: -1892.476835863287533  |grad|_K:  2.259e-04  alpha:  2.059e-02  linmin:  1.278e-04  t[s]:   1520.39
	FillingsUpdate:  mu: +0.140701762  nElectrons: 340.000000  magneticMoment: [ Abs: 31.25946  Tot: +0.00000 ]
	SubspaceRotationAdjust: set factor to 0.492
ElecMinimize: Iter:  16  F: -1892.682639859910296  |grad|_K:  2.102e-04  alpha:  2.432e-02  linmin: -2.684e-04  t[s]:   1566.86
	FillingsUpdate:  mu: +0.232582654  nElectrons: 340.000000  magneticMoment: [ Abs: 32.21145  Tot: -0.00000 ]
	SubspaceRotationAdjust: set factor to 0.604
ElecMinimize: Iter:  17  F: -1893.168392729093966  |grad|_K:  1.762e-04  alpha:  5.183e-02  linmin: -1.039e-04  t[s]:   1613.01
	FillingsUpdate:  mu: +0.260577995  nElectrons: 340.000000  magneticMoment: [ Abs: 32.70548  Tot: -0.00000 ]
	SubspaceRotationAdjust: set factor to 0.605
ElecMinimize: Iter:  18  F: -1893.495795084281099  |grad|_K:  1.807e-04  alpha:  5.668e-02  linmin: -2.889e-05  t[s]:   1659.32
	FillingsUpdate:  mu: +0.170095298  nElectrons: 340.000000  magneticMoment: [ Abs: 33.01900  Tot: +0.00000 ]
	SubspaceRotationAdjust: set factor to 0.837
ElecMinimize: Iter:  19  F: -1893.736329474920467  |grad|_K:  1.543e-04  alpha:  4.041e-02  linmin:  2.609e-05  t[s]:   1705.59
	FillingsUpdate:  mu: +0.158021536  nElectrons: 340.000000  magneticMoment: [ Abs: 33.03539  Tot: +0.00000 ]
	SubspaceRotationAdjust: set factor to 1.06
ElecMinimize: Iter:  20  F: -1893.822727347063164  |grad|_K:  1.525e-04  alpha:  1.288e-02  linmin: -5.896e-04  t[s]:   1751.76
	FillingsUpdate:  mu: +0.138127354  nElectrons: 340.000000  magneticMoment: [ Abs: 32.93483  Tot: +0.00000 ]
	SubspaceRotationAdjust: set factor to 0.652
ElecMinimize: Iter:  21  F: -1893.909657164615965  |grad|_K:  2.555e-04  alpha:  1.542e-02  linmin:  7.488e-04  t[s]:   1797.62
ElecMinimize: 	Step increased F by 5.021745e-04, reducing alpha to 1.202586e-04.
	FillingsUpdate:  mu: +0.137283841  nElectrons: 340.000000  magneticMoment: [ Abs: 32.93399  Tot: -0.00000 ]
	SubspaceRotationAdjust: set factor to 0.445
ElecMinimize: Iter:  22  F: -1893.910152439157628  |grad|_K:  2.149e-04  alpha:  1.203e-04  linmin: -1.607e-04  t[s]:   1873.51
ElecMinimize: 	Predicted alpha/alphaT>3.000000, increasing alphaT to 3.607758e-04.
ElecMinimize: 	Predicted alpha/alphaT>3.000000, increasing alphaT to 1.082327e-03.
ElecMinimize: 	Predicted alpha/alphaT>3.000000, increasing alphaT to 3.246982e-03.
	FillingsUpdate:  mu: +0.112247001  nElectrons: 340.000000  magneticMoment: [ Abs: 32.99371  Tot: -0.00000 ]
	SubspaceRotationAdjust: set factor to 0.276
ElecMinimize: Iter:  23  F: -1893.979790902291370  |grad|_K:  2.288e-04  alpha:  7.010e-03  linmin: -9.793e-05  t[s]:   1946.04
	FillingsUpdate:  mu: +0.091984919  nElectrons: 340.000000  magneticMoment: [ Abs: 33.23850  Tot: -0.00000 ]
	SubspaceRotationAdjust: set factor to 0.192
ElecMinimize: Iter:  24  F: -1894.078473159264377  |grad|_K:  1.664e-04  alpha:  9.496e-03  linmin: -7.323e-05  t[s]:   1992.31
	FillingsUpdate:  mu: +0.104468375  nElectrons: 340.000000  magneticMoment: [ Abs: 33.42951  Tot: -0.00000 ]
	SubspaceRotationAdjust: set factor to 0.162
ElecMinimize: Iter:  25  F: -1894.118821366454540  |grad|_K:  1.325e-04  alpha:  7.755e-03  linmin:  2.680e-05  t[s]:   2038.22
	FillingsUpdate:  mu: +0.121615866  nElectrons: 340.000000  magneticMoment: [ Abs: 33.62167  Tot: -0.00000 ]
	SubspaceRotationAdjust: set factor to 0.139
ElecMinimize: Iter:  26  F: -1894.146092744433872  |grad|_K:  1.261e-04  alpha:  9.142e-03  linmin:  2.031e-05  t[s]:   2083.69
	FillingsUpdate:  mu: +0.141324337  nElectrons: 340.000000  magneticMoment: [ Abs: 33.85996  Tot: -0.00000 ]
	SubspaceRotationAdjust: set factor to 0.109
	SubspaceRotationAdjust: resetting CG because factor has changed by 0.109162
ElecMinimize: 	State modified externally: resetting search direction.
ElecMinimize: Iter:  27  F: -1894.175327591375435  |grad|_K:  1.180e-04  alpha:  1.076e-02
ElecMinimize: 	Predicted alpha/alphaT>3.000000, increasing alphaT to 3.226932e-02.
ElecMinimize: 	Predicted alpha/alphaT>3.000000, increasing alphaT to 9.680796e-02.
	FillingsUpdate:  mu: +0.127043610  nElectrons: 340.000000  magneticMoment: [ Abs: 34.15446  Tot: -0.00000 ]
	SubspaceRotationAdjust: set factor to 0.17
ElecMinimize: Iter:  28  F: -1894.570069948758828  |grad|_K:  3.532e-05  alpha:  1.545e-01  linmin: -3.042e-02  t[s]:   2220.45
	FillingsUpdate:  mu: +0.132018444  nElectrons: 340.000000  magneticMoment: [ Abs: 34.32471  Tot: +0.00000 ]
	SubspaceRotationAdjust: set factor to 0.137
ElecMinimize: Iter:  29  F: -1894.638409491590210  |grad|_K:  3.233e-05  alpha:  2.886e-01  linmin:  3.265e-03  t[s]:   2266.33
	FillingsUpdate:  mu: +0.124425955  nElectrons: 340.000000  magneticMoment: [ Abs: 34.28234  Tot: +0.00000 ]
	SubspaceRotationAdjust: set factor to 0.124
ElecMinimize: Iter:  30  F: -1894.663170378325731  |grad|_K:  2.539e-05  alpha:  1.500e-01  linmin:  1.200e-04  t[s]:   2311.60
	FillingsUpdate:  mu: +0.117632249  nElectrons: 340.000000  magneticMoment: [ Abs: 34.39021  Tot: -0.00000 ]
	SubspaceRotationAdjust: set factor to 0.159
ElecMinimize: Iter:  31  F: -1894.697129943535174  |grad|_K:  2.244e-05  alpha:  3.044e-01  linmin: -7.151e-05  t[s]:   2356.44
	FillingsUpdate:  mu: +0.137208798  nElectrons: 340.000000  magneticMoment: [ Abs: 34.76683  Tot: +0.00000 ]
	SubspaceRotationAdjust: set factor to 0.114
ElecMinimize: Iter:  32  F: -1894.722871532704858  |grad|_K:  3.084e-05  alpha:  2.908e-01  linmin:  1.802e-04  t[s]:   2401.47
	FillingsUpdate:  mu: +0.135640346  nElectrons: 340.000000  magneticMoment: [ Abs: 35.15265  Tot: -0.00000 ]
	SubspaceRotationAdjust: set factor to 0.135
ElecMinimize: Iter:  33  F: -1894.747098093744171  |grad|_K:  2.124e-05  alpha:  1.537e-01  linmin:  6.521e-06  t[s]:   2446.27
	FillingsUpdate:  mu: +0.150259475  nElectrons: 340.000000  magneticMoment: [ Abs: 35.40798  Tot: -0.00000 ]
	SubspaceRotationAdjust: set factor to 0.133
ElecMinimize: Iter:  34  F: -1894.767641834297137  |grad|_K:  2.181e-05  alpha:  2.612e-01  linmin: -3.712e-05  t[s]:   2491.10
	FillingsUpdate:  mu: +0.136635455  nElectrons: 340.000000  magneticMoment: [ Abs: 35.65793  Tot: +0.00000 ]
	SubspaceRotationAdjust: set factor to 0.148
ElecMinimize: Iter:  35  F: -1894.784163579478673  |grad|_K:  1.829e-05  alpha:  2.011e-01  linmin: -5.580e-05  t[s]:   2536.47
	FillingsUpdate:  mu: +0.122450981  nElectrons: 340.000000  magneticMoment: [ Abs: 35.96281  Tot: +0.00000 ]
	SubspaceRotationAdjust: set factor to 0.168
ElecMinimize: Iter:  36  F: -1894.801789808872854  |grad|_K:  1.923e-05  alpha:  3.001e-01  linmin:  5.248e-05  t[s]:   2581.86
	FillingsUpdate:  mu: +0.119704595  nElectrons: 340.000000  magneticMoment: [ Abs: 36.21080  Tot: -0.00000 ]
	SubspaceRotationAdjust: set factor to 0.166
ElecMinimize: Iter:  37  F: -1894.814761350798562  |grad|_K:  1.762e-05  alpha:  2.084e-01  linmin: -3.525e-05  t[s]:   2627.03
	FillingsUpdate:  mu: +0.128631271  nElectrons: 340.000000  magneticMoment: [ Abs: 36.54193  Tot: +0.00000 ]
	SubspaceRotationAdjust: set factor to 0.189
ElecMinimize: Iter:  38  F: -1894.829181604316773  |grad|_K:  1.562e-05  alpha:  2.651e-01  linmin:  4.794e-05  t[s]:   2672.21
	FillingsUpdate:  mu: +0.127399982  nElectrons: 340.000000  magneticMoment: [ Abs: 36.74903  Tot: -0.00000 ]
	SubspaceRotationAdjust: set factor to 0.186
ElecMinimize: Iter:  39  F: -1894.837578797737251  |grad|_K:  1.332e-05  alpha:  1.983e-01  linmin:  1.192e-05  t[s]:   2717.05
	FillingsUpdate:  mu: +0.127024102  nElectrons: 340.000000  magneticMoment: [ Abs: 36.88705  Tot: -0.00000 ]
	SubspaceRotationAdjust: set factor to 0.222
ElecMinimize: Iter:  40  F: -1894.843639310433900  |grad|_K:  1.062e-05  alpha:  1.967e-01  linmin:  7.344e-05  t[s]:   2762.00
	FillingsUpdate:  mu: +0.123386811  nElectrons: 340.000000  magneticMoment: [ Abs: 37.00397  Tot: +0.00000 ]
	SubspaceRotationAdjust: set factor to 0.258
ElecMinimize: Iter:  41  F: -1894.847225632716345  |grad|_K:  9.372e-06  alpha:  1.855e-01  linmin: -7.862e-06  t[s]:   2807.06
	FillingsUpdate:  mu: +0.125032984  nElectrons: 340.000000  magneticMoment: [ Abs: 37.16101  Tot: +0.00000 ]
	SubspaceRotationAdjust: set factor to 0.335
ElecMinimize: Iter:  42  F: -1894.850025589621737  |grad|_K:  8.283e-06  alpha:  1.828e-01  linmin:  6.389e-05  t[s]:   2852.19
	FillingsUpdate:  mu: +0.125329750  nElectrons: 340.000000  magneticMoment: [ Abs: 37.33665  Tot: -0.00000 ]
	SubspaceRotationAdjust: set factor to 0.307
ElecMinimize: Iter:  43  F: -1894.852565744536605  |grad|_K:  9.662e-06  alpha:  2.151e-01  linmin:  7.937e-05  t[s]:   2897.26
	FillingsUpdate:  mu: +0.123637216  nElectrons: 340.000000  magneticMoment: [ Abs: 37.49759  Tot: +0.00000 ]
	SubspaceRotationAdjust: set factor to 0.418
ElecMinimize: Iter:  44  F: -1894.855103207250750  |grad|_K:  9.264e-06  alpha:  1.606e-01  linmin: -4.539e-05  t[s]:   2942.78
	FillingsUpdate:  mu: +0.123861421  nElectrons: 340.000000  magneticMoment: [ Abs: 37.76197  Tot: -0.00000 ]
	SubspaceRotationAdjust: set factor to 0.402
ElecMinimize: Iter:  45  F: -1894.858331703415388  |grad|_K:  1.158e-05  alpha:  2.217e-01  linmin:  5.847e-04  t[s]:   2988.28
	FillingsUpdate:  mu: +0.124823010  nElectrons: 340.000000  magneticMoment: [ Abs: 38.02065  Tot: +0.00000 ]
	SubspaceRotationAdjust: set factor to 0.414
ElecMinimize: Iter:  46  F: -1894.861051737963635  |grad|_K:  1.255e-05  alpha:  1.221e-01  linmin: -1.734e-04  t[s]:   3033.75
	FillingsUpdate:  mu: +0.123087543  nElectrons: 340.000000  magneticMoment: [ Abs: 38.24053  Tot: -0.00000 ]
	SubspaceRotationAdjust: set factor to 0.524
ElecMinimize: Iter:  47  F: -1894.863941962288209  |grad|_K:  1.184e-05  alpha:  1.018e-01  linmin: -2.872e-05  t[s]:   3078.94
	FillingsUpdate:  mu: +0.123144742  nElectrons: 340.000000  magneticMoment: [ Abs: 38.45919  Tot: +0.00000 ]
	SubspaceRotationAdjust: set factor to 0.566
ElecMinimize: Iter:  48  F: -1894.866632271178105  |grad|_K:  1.286e-05  alpha:  1.098e-01  linmin:  9.528e-05  t[s]:   3123.93
	FillingsUpdate:  mu: +0.123800560  nElectrons: 340.000000  magneticMoment: [ Abs: 38.65189  Tot: +0.00000 ]
	SubspaceRotationAdjust: set factor to 0.541
ElecMinimize: Iter:  49  F: -1894.868649845228902  |grad|_K:  1.330e-05  alpha:  7.085e-02  linmin: -2.878e-05  t[s]:   3169.17
	FillingsUpdate:  mu: +0.123892929  nElectrons: 340.000000  magneticMoment: [ Abs: 38.82794  Tot: +0.00000 ]
	SubspaceRotationAdjust: set factor to 0.548
ElecMinimize: Iter:  50  F: -1894.870783603193786  |grad|_K:  1.288e-05  alpha:  6.890e-02  linmin:  4.286e-05  t[s]:   3214.49
	FillingsUpdate:  mu: +0.127231151  nElectrons: 340.000000  magneticMoment: [ Abs: 38.90572  Tot: +0.00000 ]
	SubspaceRotationAdjust: set factor to 0.513
ElecMinimize: Iter:  51  F: -1894.872079541430821  |grad|_K:  1.330e-05  alpha:  3.728e-02  linmin: -7.226e-04  t[s]:   3259.63
	FillingsUpdate:  mu: +0.131761088  nElectrons: 340.000000  magneticMoment: [ Abs: 39.01624  Tot: -0.00000 ]
	SubspaceRotationAdjust: set factor to 0.365
ElecMinimize: Iter:  52  F: -1894.873425903060934  |grad|_K:  1.620e-05  alpha:  3.896e-02  linmin:  6.315e-04  t[s]:   3304.30
	FillingsUpdate:  mu: +0.132046170  nElectrons: 340.000000  magneticMoment: [ Abs: 39.11982  Tot: +0.00000 ]
	SubspaceRotationAdjust: set factor to 0.266
ElecMinimize: Iter:  53  F: -1894.874236918116821  |grad|_K:  1.547e-05  alpha:  1.907e-02  linmin: -1.590e-04  t[s]:   3349.42
	FillingsUpdate:  mu: +0.129005436  nElectrons: 340.000000  magneticMoment: [ Abs: 39.27530  Tot: +0.00000 ]
	SubspaceRotationAdjust: set factor to 0.217
ElecMinimize: Iter:  54  F: -1894.875429150894433  |grad|_K:  1.377e-05  alpha:  2.743e-02  linmin: -1.253e-04  t[s]:   3394.87
	FillingsUpdate:  mu: +0.124632414  nElectrons: 340.000000  magneticMoment: [ Abs: 39.45194  Tot: +0.00000 ]
	SubspaceRotationAdjust: set factor to 0.196
ElecMinimize: Iter:  55  F: -1894.876878549679077  |grad|_K:  1.284e-05  alpha:  4.141e-02  linmin: -3.470e-04  t[s]:   3440.62
	FillingsUpdate:  mu: +0.121766554  nElectrons: 340.000000  magneticMoment: [ Abs: 39.62725  Tot: -0.00000 ]
	SubspaceRotationAdjust: set factor to 0.254
ElecMinimize: Iter:  56  F: -1894.878769899751887  |grad|_K:  1.150e-05  alpha:  6.108e-02  linmin:  4.708e-05  t[s]:   3486.42
	FillingsUpdate:  mu: +0.123311522  nElectrons: 340.000000  magneticMoment: [ Abs: 39.71174  Tot: -0.00000 ]
	SubspaceRotationAdjust: set factor to 0.321
ElecMinimize: Iter:  57  F: -1894.879921055869318  |grad|_K:  1.085e-05  alpha:  4.988e-02  linmin:  6.707e-05  t[s]:   3532.41
	FillingsUpdate:  mu: +0.121403479  nElectrons: 340.000000  magneticMoment: [ Abs: 39.76765  Tot: -0.00000 ]
	SubspaceRotationAdjust: set factor to 0.387
ElecMinimize: Iter:  58  F: -1894.880785375069991  |grad|_K:  1.156e-05  alpha:  4.255e-02  linmin:  6.263e-05  t[s]:   3578.34
	FillingsUpdate:  mu: +0.121587499  nElectrons: 340.000000  magneticMoment: [ Abs: 39.83158  Tot: +0.00000 ]
	SubspaceRotationAdjust: set factor to 0.338
ElecMinimize: Iter:  59  F: -1894.881716105470105  |grad|_K:  1.316e-05  alpha:  4.066e-02  linmin: -1.821e-05  t[s]:   3623.86
	FillingsUpdate:  mu: +0.120615730  nElectrons: 340.000000  magneticMoment: [ Abs: 39.91342  Tot: -0.00000 ]
	SubspaceRotationAdjust: set factor to 0.353
ElecMinimize: Iter:  60  F: -1894.882811759135393  |grad|_K:  1.162e-05  alpha:  3.641e-02  linmin: -1.008e-04  t[s]:   3669.25
	FillingsUpdate:  mu: +0.121587515  nElectrons: 340.000000  magneticMoment: [ Abs: 39.98595  Tot: -0.00000 ]
	SubspaceRotationAdjust: set factor to 0.479
ElecMinimize: Iter:  61  F: -1894.883755855597656  |grad|_K:  1.021e-05  alpha:  3.925e-02  linmin: -7.115e-05  t[s]:   3714.98
	FillingsUpdate:  mu: +0.123120470  nElectrons: 340.000000  magneticMoment: [ Abs: 40.04334  Tot: -0.00000 ]
	SubspaceRotationAdjust: set factor to 0.536
ElecMinimize: Iter:  62  F: -1894.884645110076690  |grad|_K:  1.116e-05  alpha:  4.819e-02  linmin: -9.083e-06  t[s]:   3760.40
	FillingsUpdate:  mu: +0.127037648  nElectrons: 340.000000  magneticMoment: [ Abs: 40.06850  Tot: +0.00000 ]
	SubspaceRotationAdjust: set factor to 0.622
ElecMinimize: Iter:  63  F: -1894.885514685546013  |grad|_K:  1.088e-05  alpha:  3.969e-02  linmin:  5.549e-05  t[s]:   3805.81
	FillingsUpdate:  mu: +0.131310366  nElectrons: 340.000000  magneticMoment: [ Abs: 40.07261  Tot: +0.00000 ]
	SubspaceRotationAdjust: set factor to 0.548
ElecMinimize: Iter:  64  F: -1894.886246653509716  |grad|_K:  1.214e-05  alpha:  3.586e-02  linmin:  3.545e-05  t[s]:   3850.44
	FillingsUpdate:  mu: +0.130939729  nElectrons: 340.000000  magneticMoment: [ Abs: 40.09330  Tot: +0.00000 ]
	SubspaceRotationAdjust: set factor to 0.514
ElecMinimize: Iter:  65  F: -1894.887132462118188  |grad|_K:  1.147e-05  alpha:  3.474e-02  linmin:  1.184e-05  t[s]:   3895.39
	FillingsUpdate:  mu: +0.126431180  nElectrons: 340.000000  magneticMoment: [ Abs: 40.12797  Tot: +0.00000 ]
	SubspaceRotationAdjust: set factor to 0.68
ElecMinimize: Iter:  66  F: -1894.887802272651243  |grad|_K:  9.891e-06  alpha:  2.944e-02  linmin: -4.107e-05  t[s]:   3940.32
	FillingsUpdate:  mu: +0.124068888  nElectrons: 340.000000  magneticMoment: [ Abs: 40.16972  Tot: +0.00000 ]
	SubspaceRotationAdjust: set factor to 0.591
ElecMinimize: Iter:  67  F: -1894.888528818150462  |grad|_K:  1.167e-05  alpha:  4.186e-02  linmin: -1.358e-04  t[s]:   3985.38
	FillingsUpdate:  mu: +0.123713527  nElectrons: 340.000000  magneticMoment: [ Abs: 40.20434  Tot: +0.00000 ]
	SubspaceRotationAdjust: set factor to 0.632
ElecMinimize: Iter:  68  F: -1894.889440210545217  |grad|_K:  1.049e-05  alpha:  3.745e-02  linmin: -3.019e-05  t[s]:   4031.03
	FillingsUpdate:  mu: +0.123645205  nElectrons: 340.000000  magneticMoment: [ Abs: 40.22202  Tot: +0.00000 ]
	SubspaceRotationAdjust: set factor to 0.827
	SubspaceRotationAdjust: resetting CG because factor has changed by 7.57769
ElecMinimize: 	State modified externally: resetting search direction.
ElecMinimize: Iter:  69  F: -1894.890143816601267  |grad|_K:  1.014e-05  alpha:  3.651e-02
ElecMinimize: 	Predicted alpha/alphaT>3.000000, increasing alphaT to 1.095293e-01.
	FillingsUpdate:  mu: +0.127175723  nElectrons: 340.000000  magneticMoment: [ Abs: 40.26253  Tot: +0.00000 ]
	SubspaceRotationAdjust: set factor to 0.47
ElecMinimize: Iter:  70  F: -1894.892213171020558  |grad|_K:  1.525e-05  alpha:  1.153e-01  linmin: -5.844e-04  t[s]:   4154.17
	FillingsUpdate:  mu: +0.131585591  nElectrons: 340.000000  magneticMoment: [ Abs: 40.20635  Tot: -0.00000 ]
	SubspaceRotationAdjust: set factor to 0.299
ElecMinimize: Iter:  71  F: -1894.894055852646034  |grad|_K:  8.616e-06  alpha:  3.735e-02  linmin: -3.639e-03  t[s]:   4199.57
ElecMinimize: 	Predicted alpha/alphaT>3.000000, increasing alphaT to 1.120510e-01.
	FillingsUpdate:  mu: +0.126654877  nElectrons: 340.000000  magneticMoment: [ Abs: 40.16073  Tot: +0.00000 ]
	SubspaceRotationAdjust: set factor to 0.244
ElecMinimize: Iter:  72  F: -1894.895982026875799  |grad|_K:  6.638e-06  alpha:  1.284e-01  linmin: -5.831e-04  t[s]:   4258.10
	FillingsUpdate:  mu: +0.121119804  nElectrons: 340.000000  magneticMoment: [ Abs: 40.17942  Tot: +0.00000 ]
	SubspaceRotationAdjust: set factor to 0.174
ElecMinimize: Iter:  73  F: -1894.897211992872826  |grad|_K:  6.787e-06  alpha:  1.518e-01  linmin: -1.157e-03  t[s]:   4303.13
	FillingsUpdate:  mu: +0.123251291  nElectrons: 340.000000  magneticMoment: [ Abs: 40.13435  Tot: -0.00000 ]
	SubspaceRotationAdjust: set factor to 0.204
ElecMinimize: Iter:  74  F: -1894.899282865096211  |grad|_K:  4.132e-06  alpha:  2.399e-01  linmin:  2.226e-04  t[s]:   4348.39
	FillingsUpdate:  mu: +0.127114595  nElectrons: 340.000000  magneticMoment: [ Abs: 40.08765  Tot: -0.00000 ]
	SubspaceRotationAdjust: set factor to 0.144
ElecMinimize: Iter:  75  F: -1894.900147271869628  |grad|_K:  4.364e-06  alpha:  2.977e-01  linmin:  2.055e-04  t[s]:   4393.44
	FillingsUpdate:  mu: +0.124095188  nElectrons: 340.000000  magneticMoment: [ Abs: 40.08934  Tot: +0.00000 ]
	SubspaceRotationAdjust: set factor to 0.112
ElecMinimize: Iter:  76  F: -1894.900587830260747  |grad|_K:  2.650e-06  alpha:  1.435e-01  linmin:  4.548e-04  t[s]:   4438.83
	FillingsUpdate:  mu: +0.124174461  nElectrons: 340.000000  magneticMoment: [ Abs: 40.07359  Tot: -0.00000 ]
	SubspaceRotationAdjust: set factor to 0.149
ElecMinimize: Iter:  77  F: -1894.900891271689261  |grad|_K:  1.840e-06  alpha:  2.559e-01  linmin: -5.437e-05  t[s]:   4483.44
	FillingsUpdate:  mu: +0.124218455  nElectrons: 340.000000  magneticMoment: [ Abs: 40.05577  Tot: -0.00000 ]
	SubspaceRotationAdjust: set factor to 0.136
ElecMinimize: Iter:  78  F: -1894.901054972956899  |grad|_K:  1.606e-06  alpha:  2.772e-01  linmin:  6.860e-05  t[s]:   4528.60
	FillingsUpdate:  mu: +0.124197521  nElectrons: 340.000000  magneticMoment: [ Abs: 40.05959  Tot: +0.00000 ]
	SubspaceRotationAdjust: set factor to 0.149
ElecMinimize: Iter:  79  F: -1894.901174165689554  |grad|_K:  1.221e-06  alpha:  2.663e-01  linmin: -5.225e-05  t[s]:   4573.66
	FillingsUpdate:  mu: +0.124100620  nElectrons: 340.000000  magneticMoment: [ Abs: 40.06019  Tot: -0.00000 ]
	SubspaceRotationAdjust: set factor to 0.177
ElecMinimize: Iter:  80  F: -1894.901276526496531  |grad|_K:  1.255e-06  alpha:  3.933e-01  linmin: -2.714e-05  t[s]:   4618.42
	FillingsUpdate:  mu: +0.124213098  nElectrons: 340.000000  magneticMoment: [ Abs: 40.04832  Tot: +0.00000 ]
	SubspaceRotationAdjust: set factor to 0.156
ElecMinimize: Iter:  81  F: -1894.901359644172089  |grad|_K:  1.344e-06  alpha:  3.025e-01  linmin:  7.971e-06  t[s]:   4663.04
	FillingsUpdate:  mu: +0.124190201  nElectrons: 340.000000  magneticMoment: [ Abs: 40.04990  Tot: -0.00000 ]
	SubspaceRotationAdjust: set factor to 0.162
ElecMinimize: Iter:  82  F: -1894.901463459988690  |grad|_K:  1.233e-06  alpha:  3.301e-01  linmin: -5.058e-05  t[s]:   4708.19
	FillingsUpdate:  mu: +0.124368502  nElectrons: 340.000000  magneticMoment: [ Abs: 40.04645  Tot: -0.00000 ]
	SubspaceRotationAdjust: set factor to 0.183
ElecMinimize: Iter:  83  F: -1894.901576068982195  |grad|_K:  1.248e-06  alpha:  4.233e-01  linmin: -7.940e-06  t[s]:   4753.02
	FillingsUpdate:  mu: +0.124533773  nElectrons: 340.000000  magneticMoment: [ Abs: 40.03310  Tot: -0.00000 ]
	SubspaceRotationAdjust: set factor to 0.172
ElecMinimize: Iter:  84  F: -1894.901673873080426  |grad|_K:  1.376e-06  alpha:  3.604e-01  linmin:  1.866e-06  t[s]:   4798.37
	FillingsUpdate:  mu: +0.124214568  nElectrons: 340.000000  magneticMoment: [ Abs: 40.03427  Tot: +0.00000 ]
	SubspaceRotationAdjust: set factor to 0.151
ElecMinimize: Iter:  85  F: -1894.901768178652901  |grad|_K:  1.283e-06  alpha:  2.883e-01  linmin: -6.079e-05  t[s]:   4843.72
	FillingsUpdate:  mu: +0.124240583  nElectrons: 340.000000  magneticMoment: [ Abs: 40.02322  Tot: -0.00000 ]
	SubspaceRotationAdjust: set factor to 0.167
ElecMinimize: Iter:  86  F: -1894.901884134453667  |grad|_K:  1.249e-06  alpha:  4.017e-01  linmin:  1.499e-05  t[s]:   4889.35
	FillingsUpdate:  mu: +0.124540585  nElectrons: 340.000000  magneticMoment: [ Abs: 40.01120  Tot: -0.00000 ]
	SubspaceRotationAdjust: set factor to 0.177
ElecMinimize: Iter:  87  F: -1894.901994475984793  |grad|_K:  1.296e-06  alpha:  4.073e-01  linmin:  1.295e-06  t[s]:   4934.91
	FillingsUpdate:  mu: +0.124369995  nElectrons: 340.000000  magneticMoment: [ Abs: 40.01056  Tot: -0.00000 ]
	SubspaceRotationAdjust: set factor to 0.165
ElecMinimize: Iter:  88  F: -1894.902090172235148  |grad|_K:  1.176e-06  alpha:  3.300e-01  linmin: -6.294e-05  t[s]:   4979.94
	FillingsUpdate:  mu: +0.124222150  nElectrons: 340.000000  magneticMoment: [ Abs: 39.99828  Tot: +0.00000 ]
	SubspaceRotationAdjust: set factor to 0.172
ElecMinimize: Iter:  89  F: -1894.902175520625178  |grad|_K:  1.109e-06  alpha:  3.514e-01  linmin:  1.924e-05  t[s]:   5024.92
	FillingsUpdate:  mu: +0.124228326  nElectrons: 340.000000  magneticMoment: [ Abs: 39.99326  Tot: +0.00000 ]
	SubspaceRotationAdjust: set factor to 0.204
ElecMinimize: Iter:  90  F: -1894.902263069607670  |grad|_K:  1.127e-06  alpha:  4.101e-01  linmin:  8.678e-06  t[s]:   5069.69
	FillingsUpdate:  mu: +0.124346772  nElectrons: 340.000000  magneticMoment: [ Abs: 39.99567  Tot: +0.00000 ]
	SubspaceRotationAdjust: set factor to 0.218
ElecMinimize: Iter:  91  F: -1894.902355430798934  |grad|_K:  1.253e-06  alpha:  4.180e-01  linmin: -3.679e-05  t[s]:   5114.65
	FillingsUpdate:  mu: +0.124446049  nElectrons: 340.000000  magneticMoment: [ Abs: 39.98766  Tot: +0.00000 ]
	SubspaceRotationAdjust: set factor to 0.21
ElecMinimize: Iter:  92  F: -1894.902457786996138  |grad|_K:  1.388e-06  alpha:  3.710e-01  linmin:  7.159e-05  t[s]:   5159.68
	FillingsUpdate:  mu: +0.124470415  nElectrons: 340.000000  magneticMoment: [ Abs: 39.99599  Tot: +0.00000 ]
	SubspaceRotationAdjust: set factor to 0.233
ElecMinimize: Iter:  93  F: -1894.902578033415466  |grad|_K:  1.435e-06  alpha:  3.624e-01  linmin: -3.968e-05  t[s]:   5204.80
	FillingsUpdate:  mu: +0.124720451  nElectrons: 340.000000  magneticMoment: [ Abs: 40.00572  Tot: -0.00000 ]
	SubspaceRotationAdjust: set factor to 0.268
ElecMinimize: Iter:  94  F: -1894.902744993358056  |grad|_K:  1.661e-06  alpha:  4.627e-01  linmin:  1.998e-05  t[s]:   5249.66
	FillingsUpdate:  mu: +0.125121363  nElectrons: 340.000000  magneticMoment: [ Abs: 40.01624  Tot: -0.00000 ]
	SubspaceRotationAdjust: set factor to 0.282
ElecMinimize: Iter:  95  F: -1894.902935119692074  |grad|_K:  1.922e-06  alpha:  3.946e-01  linmin:  6.704e-05  t[s]:   5295.13
	FillingsUpdate:  mu: +0.125125040  nElectrons: 340.000000  magneticMoment: [ Abs: 40.04959  Tot: +0.00000 ]
	SubspaceRotationAdjust: set factor to 0.271
ElecMinimize: Iter:  96  F: -1894.903098041195335  |grad|_K:  1.791e-06  alpha:  2.591e-01  linmin: -1.704e-05  t[s]:   5340.42
	FillingsUpdate:  mu: +0.125017155  nElectrons: 340.000000  magneticMoment: [ Abs: 40.06917  Tot: +0.00000 ]
	SubspaceRotationAdjust: set factor to 0.305
ElecMinimize: Iter:  97  F: -1894.903288171008398  |grad|_K:  1.693e-06  alpha:  3.406e-01  linmin:  4.946e-05  t[s]:   5385.47
	FillingsUpdate:  mu: +0.125244196  nElectrons: 340.000000  magneticMoment: [ Abs: 40.09708  Tot: -0.00000 ]
	SubspaceRotationAdjust: set factor to 0.364
ElecMinimize: Iter:  98  F: -1894.903486233434478  |grad|_K:  1.703e-06  alpha:  4.003e-01  linmin: -1.875e-05  t[s]:   5430.80
	FillingsUpdate:  mu: +0.125430637  nElectrons: 340.000000  magneticMoment: [ Abs: 40.12288  Tot: -0.00000 ]
	SubspaceRotationAdjust: set factor to 0.42
ElecMinimize: Iter:  99  F: -1894.903685804776387  |grad|_K:  1.871e-06  alpha:  3.934e-01  linmin:  1.796e-05  t[s]:   5476.13
	FillingsUpdate:  mu: +0.125884824  nElectrons: 340.000000  magneticMoment: [ Abs: 40.12202  Tot: -0.00000 ]
	SubspaceRotationAdjust: set factor to 0.322
ElecMinimize: Iter: 100  F: -1894.903840462472090  |grad|_K:  2.444e-06  alpha:  2.514e-01  linmin:  7.200e-07  t[s]:   5521.13
	FillingsUpdate:  mu: +0.125398504  nElectrons: 340.000000  magneticMoment: [ Abs: 40.14402  Tot: +0.00000 ]
	SubspaceRotationAdjust: set factor to 0.281
ElecMinimize: Iter: 101  F: -1894.903998983492556  |grad|_K:  1.956e-06  alpha:  1.522e-01  linmin:  2.594e-06  t[s]:   5566.56
	FillingsUpdate:  mu: +0.125355454  nElectrons: 340.000000  magneticMoment: [ Abs: 40.14578  Tot: -0.00000 ]
	SubspaceRotationAdjust: set factor to 0.339
ElecMinimize: Iter: 102  F: -1894.904231969692319  |grad|_K:  1.833e-06  alpha:  3.531e-01  linmin:  4.685e-05  t[s]:   5611.63
	FillingsUpdate:  mu: +0.125661862  nElectrons: 340.000000  magneticMoment: [ Abs: 40.13828  Tot: +0.00000 ]
	SubspaceRotationAdjust: set factor to 0.393
ElecMinimize: Iter: 103  F: -1894.904436511031918  |grad|_K:  1.969e-06  alpha:  3.564e-01  linmin:  3.055e-05  t[s]:   5656.77
	FillingsUpdate:  mu: +0.126208633  nElectrons: 340.000000  magneticMoment: [ Abs: 40.14538  Tot: -0.00000 ]
	SubspaceRotationAdjust: set factor to 0.322
ElecMinimize: Iter: 104  F: -1894.904577097097217  |grad|_K:  2.336e-06  alpha:  2.135e-01  linmin:  1.309e-05  t[s]:   5701.65
	FillingsUpdate:  mu: +0.126100150  nElectrons: 340.000000  magneticMoment: [ Abs: 40.12429  Tot: -0.00000 ]
	SubspaceRotationAdjust: set factor to 0.28
ElecMinimize: Iter: 105  F: -1894.904728598140764  |grad|_K:  1.897e-06  alpha:  1.583e-01  linmin:  1.809e-05  t[s]:   5746.87
	FillingsUpdate:  mu: +0.125704781  nElectrons: 340.000000  magneticMoment: [ Abs: 40.10863  Tot: -0.00000 ]
	SubspaceRotationAdjust: set factor to 0.348
ElecMinimize: Iter: 106  F: -1894.904923261310614  |grad|_K:  1.710e-06  alpha:  3.136e-01  linmin:  4.888e-05  t[s]:   5792.01
	FillingsUpdate:  mu: +0.126154173  nElectrons: 340.000000  magneticMoment: [ Abs: 40.09352  Tot: +0.00000 ]
	SubspaceRotationAdjust: set factor to 0.413
ElecMinimize: Iter: 107  F: -1894.905090783998276  |grad|_K:  1.720e-06  alpha:  3.325e-01  linmin: -1.482e-05  t[s]:   5837.08
	FillingsUpdate:  mu: +0.126700338  nElectrons: 340.000000  magneticMoment: [ Abs: 40.06708  Tot: -0.00000 ]
	SubspaceRotationAdjust: set factor to 0.316
ElecMinimize: Iter: 108  F: -1894.905202390832301  |grad|_K:  2.104e-06  alpha:  2.144e-01  linmin: -2.889e-06  t[s]:   5882.32
	FillingsUpdate:  mu: +0.126070049  nElectrons: 340.000000  magneticMoment: [ Abs: 40.05828  Tot: -0.00000 ]
	SubspaceRotationAdjust: set factor to 0.299
ElecMinimize: Iter: 109  F: -1894.905311757745267  |grad|_K:  1.577e-06  alpha:  1.426e-01  linmin:  3.712e-07  t[s]:   5926.87
	FillingsUpdate:  mu: +0.126103764  nElectrons: 340.000000  magneticMoment: [ Abs: 40.03244  Tot: +0.00000 ]
	SubspaceRotationAdjust: set factor to 0.402
ElecMinimize: Iter: 110  F: -1894.905443828121406  |grad|_K:  1.382e-06  alpha:  3.058e-01  linmin:  1.710e-05  t[s]:   5972.19
	FillingsUpdate:  mu: +0.126648073  nElectrons: 340.000000  magneticMoment: [ Abs: 40.00849  Tot: -0.00000 ]
	SubspaceRotationAdjust: set factor to 0.327
ElecMinimize: Iter: 111  F: -1894.905538637426616  |grad|_K:  1.670e-06  alpha:  2.868e-01  linmin:  1.039e-05  t[s]:   6017.53
	FillingsUpdate:  mu: +0.126390354  nElectrons: 340.000000  magneticMoment: [ Abs: 40.00682  Tot: -0.00000 ]
	SubspaceRotationAdjust: set factor to 0.284
ElecMinimize: Iter: 112  F: -1894.905599450128648  |grad|_K:  1.414e-06  alpha:  1.271e-01  linmin:  1.425e-05  t[s]:   6062.26
	FillingsUpdate:  mu: +0.126192038  nElectrons: 340.000000  magneticMoment: [ Abs: 39.98985  Tot: -0.00000 ]
	SubspaceRotationAdjust: set factor to 0.394
ElecMinimize: Iter: 113  F: -1894.905692942201085  |grad|_K:  1.233e-06  alpha:  2.711e-01  linmin:  1.297e-05  t[s]:   6107.33
	FillingsUpdate:  mu: +0.126730456  nElectrons: 340.000000  magneticMoment: [ Abs: 39.97632  Tot: +0.00000 ]
	SubspaceRotationAdjust: set factor to 0.314
ElecMinimize: Iter: 114  F: -1894.905760964976025  |grad|_K:  1.504e-06  alpha:  2.584e-01  linmin:  8.873e-06  t[s]:   6152.22
	FillingsUpdate:  mu: +0.126487185  nElectrons: 340.000000  magneticMoment: [ Abs: 39.97982  Tot: +0.00000 ]
	SubspaceRotationAdjust: set factor to 0.293
ElecMinimize: Iter: 115  F: -1894.905810753107744  |grad|_K:  1.222e-06  alpha:  1.269e-01  linmin:  4.040e-07  t[s]:   6196.94
	FillingsUpdate:  mu: +0.126072148  nElectrons: 340.000000  magneticMoment: [ Abs: 39.97459  Tot: -0.00000 ]
	SubspaceRotationAdjust: set factor to 0.383
ElecMinimize: Iter: 116  F: -1894.905880441496038  |grad|_K:  1.157e-06  alpha:  2.678e-01  linmin: -4.747e-06  t[s]:   6241.69
	FillingsUpdate:  mu: +0.126594806  nElectrons: 340.000000  magneticMoment: [ Abs: 39.97149  Tot: +0.00000 ]
	SubspaceRotationAdjust: set factor to 0.329
ElecMinimize: Iter: 117  F: -1894.905934264909547  |grad|_K:  1.344e-06  alpha:  2.305e-01  linmin:  3.879e-06  t[s]:   6286.51
	FillingsUpdate:  mu: +0.126668668  nElectrons: 340.000000  magneticMoment: [ Abs: 39.98243  Tot: +0.00000 ]
	SubspaceRotationAdjust: set factor to 0.324
ElecMinimize: Iter: 118  F: -1894.905980343577767  |grad|_K:  1.241e-06  alpha:  1.454e-01  linmin: -7.495e-06  t[s]:   6331.46
	FillingsUpdate:  mu: +0.126110756  nElectrons: 340.000000  magneticMoment: [ Abs: 39.98523  Tot: -0.00000 ]
	SubspaceRotationAdjust: set factor to 0.39
ElecMinimize: Iter: 119  F: -1894.906039867875506  |grad|_K:  1.109e-06  alpha:  2.205e-01  linmin: -5.293e-05  t[s]:   6376.68
	FillingsUpdate:  mu: +0.126420613  nElectrons: 340.000000  magneticMoment: [ Abs: 39.99061  Tot: -0.00000 ]
	SubspaceRotationAdjust: set factor to 0.322
ElecMinimize: Iter: 120  F: -1894.906096668534246  |grad|_K:  1.323e-06  alpha:  2.621e-01  linmin: -1.101e-05  t[s]:   6422.33
	FillingsUpdate:  mu: +0.126633429  nElectrons: 340.000000  magneticMoment: [ Abs: 40.00648  Tot: +0.00000 ]
	SubspaceRotationAdjust: set factor to 0.29
ElecMinimize: Iter: 121  F: -1894.906133020501102  |grad|_K:  1.151e-06  alpha:  1.168e-01  linmin: -4.279e-05  t[s]:   6467.23
	FillingsUpdate:  mu: +0.126434073  nElectrons: 340.000000  magneticMoment: [ Abs: 40.02291  Tot: -0.00000 ]
	SubspaceRotationAdjust: set factor to 0.405
ElecMinimize: Iter: 122  F: -1894.906194411911656  |grad|_K:  1.092e-06  alpha:  2.620e-01  linmin: -2.801e-05  t[s]:   6511.84
	FillingsUpdate:  mu: +0.126232213  nElectrons: 340.000000  magneticMoment: [ Abs: 40.02745  Tot: +0.00000 ]
	SubspaceRotationAdjust: set factor to 0.316
ElecMinimize: Iter: 123  F: -1894.906231725818316  |grad|_K:  1.344e-06  alpha:  1.792e-01  linmin: -6.007e-07  t[s]:   6556.66
	FillingsUpdate:  mu: +0.126428792  nElectrons: 340.000000  magneticMoment: [ Abs: 40.05075  Tot: -0.00000 ]
	SubspaceRotationAdjust: set factor to 0.353
ElecMinimize: Iter: 124  F: -1894.906281198126408  |grad|_K:  1.010e-06  alpha:  1.571e-01  linmin:  6.381e-06  t[s]:   6601.40
	FillingsUpdate:  mu: +0.126555709  nElectrons: 340.000000  magneticMoment: [ Abs: 40.07472  Tot: +0.00000 ]
	SubspaceRotationAdjust: set factor to 0.426
ElecMinimize: Iter: 125  F: -1894.906341676207376  |grad|_K:  1.122e-06  alpha:  3.412e-01  linmin:  2.784e-06  t[s]:   6646.58
	FillingsUpdate:  mu: +0.126250952  nElectrons: 340.000000  magneticMoment: [ Abs: 40.08155  Tot: -0.00000 ]
	SubspaceRotationAdjust: set factor to 0.331
ElecMinimize: Iter: 126  F: -1894.906380237096300  |grad|_K:  1.396e-06  alpha:  1.782e-01  linmin:  1.371e-05  t[s]:   6691.43
	FillingsUpdate:  mu: +0.126336115  nElectrons: 340.000000  magneticMoment: [ Abs: 40.10845  Tot: -0.00000 ]
	SubspaceRotationAdjust: set factor to 0.355
ElecMinimize: Iter: 127  F: -1894.906434292351378  |grad|_K:  1.067e-06  alpha:  1.602e-01  linmin: -1.703e-07  t[s]:   6736.26
	FillingsUpdate:  mu: +0.126354747  nElectrons: 340.000000  magneticMoment: [ Abs: 40.13287  Tot: +0.00000 ]
	SubspaceRotationAdjust: set factor to 0.458
ElecMinimize: Iter: 128  F: -1894.906502656588600  |grad|_K:  1.090e-06  alpha:  3.438e-01  linmin: -1.897e-05  t[s]:   6781.02
	FillingsUpdate:  mu: +0.126112192  nElectrons: 340.000000  magneticMoment: [ Abs: 40.14287  Tot: -0.00000 ]
	SubspaceRotationAdjust: set factor to 0.348
ElecMinimize: Iter: 129  F: -1894.906558654767650  |grad|_K:  1.487e-06  alpha:  2.685e-01  linmin:  1.137e-06  t[s]:   6826.33
	FillingsUpdate:  mu: +0.126372128  nElectrons: 340.000000  magneticMoment: [ Abs: 40.16330  Tot: -0.00000 ]
	SubspaceRotationAdjust: set factor to 0.303
ElecMinimize: Iter: 130  F: -1894.906602323298102  |grad|_K:  1.205e-06  alpha:  1.144e-01  linmin:  1.790e-05  t[s]:   6871.14
	FillingsUpdate:  mu: +0.126267012  nElectrons: 340.000000  magneticMoment: [ Abs: 40.18026  Tot: +0.00000 ]
	SubspaceRotationAdjust: set factor to 0.409
ElecMinimize: Iter: 131  F: -1894.906677659095067  |grad|_K:  1.133e-06  alpha:  2.992e-01  linmin: -1.134e-05  t[s]:   6916.44
	FillingsUpdate:  mu: +0.125994384  nElectrons: 340.000000  magneticMoment: [ Abs: 40.18256  Tot: -0.00000 ]
	SubspaceRotationAdjust: set factor to 0.317
ElecMinimize: Iter: 132  F: -1894.906731724115843  |grad|_K:  1.464e-06  alpha:  2.406e-01  linmin:  6.885e-06  t[s]:   6961.80
	FillingsUpdate:  mu: +0.126034411  nElectrons: 340.000000  magneticMoment: [ Abs: 40.19659  Tot: +0.00000 ]
	SubspaceRotationAdjust: set factor to 0.297
ElecMinimize: Iter: 133  F: -1894.906778782478796  |grad|_K:  1.102e-06  alpha:  1.271e-01  linmin:  4.522e-06  t[s]:   7007.37
	FillingsUpdate:  mu: +0.126090080  nElectrons: 340.000000  magneticMoment: [ Abs: 40.20053  Tot: -0.00000 ]
	SubspaceRotationAdjust: set factor to 0.398
ElecMinimize: Iter: 134  F: -1894.906844939351458  |grad|_K:  1.079e-06  alpha:  3.131e-01  linmin: -4.913e-06  t[s]:   7053.26
	FillingsUpdate:  mu: +0.125888611  nElectrons: 340.000000  magneticMoment: [ Abs: 40.19174  Tot: +0.00000 ]
	SubspaceRotationAdjust: set factor to 0.318
ElecMinimize: Iter: 135  F: -1894.906885883447330  |grad|_K:  1.294e-06  alpha:  2.011e-01  linmin: -1.162e-06  t[s]:   7098.82
	FillingsUpdate:  mu: +0.125845111  nElectrons: 340.000000  magneticMoment: [ Abs: 40.19393  Tot: +0.00000 ]
	SubspaceRotationAdjust: set factor to 0.329
ElecMinimize: Iter: 136  F: -1894.906929265106101  |grad|_K:  9.673e-07  alpha:  1.486e-01  linmin:  1.457e-06  t[s]:   7144.18
	FillingsUpdate:  mu: +0.125836871  nElectrons: 340.000000  magneticMoment: [ Abs: 40.18463  Tot: +0.00000 ]
	SubspaceRotationAdjust: set factor to 0.437
ElecMinimize: Iter: 137  F: -1894.906980941906340  |grad|_K:  9.416e-07  alpha:  3.174e-01  linmin:  1.142e-06  t[s]:   7189.25
	FillingsUpdate:  mu: +0.125707946  nElectrons: 340.000000  magneticMoment: [ Abs: 40.16806  Tot: -0.00000 ]
	SubspaceRotationAdjust: set factor to 0.331
ElecMinimize: Iter: 138  F: -1894.907015484456224  |grad|_K:  1.213e-06  alpha:  2.239e-01  linmin: -3.599e-09  t[s]:   7234.06
	FillingsUpdate:  mu: +0.125698646  nElectrons: 340.000000  magneticMoment: [ Abs: 40.16323  Tot: +0.00000 ]
	SubspaceRotationAdjust: set factor to 0.309
ElecMinimize: Iter: 139  F: -1894.907046764954202  |grad|_K:  9.024e-07  alpha:  1.206e-01  linmin: -1.575e-05  t[s]:   7278.85
	FillingsUpdate:  mu: +0.125690008  nElectrons: 340.000000  magneticMoment: [ Abs: 40.14452  Tot: -0.00000 ]
	SubspaceRotationAdjust: set factor to 0.427
ElecMinimize: Iter: 140  F: -1894.907089239837205  |grad|_K:  8.639e-07  alpha:  2.984e-01  linmin:  8.592e-06  t[s]:   7323.49
	FillingsUpdate:  mu: +0.125553976  nElectrons: 340.000000  magneticMoment: [ Abs: 40.12467  Tot: -0.00000 ]
	SubspaceRotationAdjust: set factor to 0.323
ElecMinimize: Iter: 141  F: -1894.907117072543315  |grad|_K:  1.093e-06  alpha:  2.153e-01  linmin: -4.367e-06  t[s]:   7368.34
	FillingsUpdate:  mu: +0.125452332  nElectrons: 340.000000  magneticMoment: [ Abs: 40.11630  Tot: +0.00000 ]
	SubspaceRotationAdjust: set factor to 0.311
ElecMinimize: Iter: 142  F: -1894.907143424838296  |grad|_K:  8.327e-07  alpha:  1.253e-01  linmin: -1.179e-05  t[s]:   7413.22
	FillingsUpdate:  mu: +0.125451743  nElectrons: 340.000000  magneticMoment: [ Abs: 40.09489  Tot: -0.00000 ]
	SubspaceRotationAdjust: set factor to 0.422
ElecMinimize: Iter: 143  F: -1894.907180628572632  |grad|_K:  8.192e-07  alpha:  3.070e-01  linmin: -4.716e-06  t[s]:   7458.27
	FillingsUpdate:  mu: +0.125420166  nElectrons: 340.000000  magneticMoment: [ Abs: 40.07300  Tot: +0.00000 ]
	SubspaceRotationAdjust: set factor to 0.322
ElecMinimize: Iter: 144  F: -1894.907207420076020  |grad|_K:  1.065e-06  alpha:  2.294e-01  linmin: -5.031e-06  t[s]:   7503.46
	FillingsUpdate:  mu: +0.125303755  nElectrons: 340.000000  magneticMoment: [ Abs: 40.06352  Tot: -0.00000 ]
	SubspaceRotationAdjust: set factor to 0.302
ElecMinimize: Iter: 145  F: -1894.907231492132496  |grad|_K:  8.214e-07  alpha:  1.211e-01  linmin: -8.310e-06  t[s]:   7549.04
	FillingsUpdate:  mu: +0.125350092  nElectrons: 340.000000  magneticMoment: [ Abs: 40.04347  Tot: +0.00000 ]
	SubspaceRotationAdjust: set factor to 0.411
ElecMinimize: Iter: 146  F: -1894.907265884779690  |grad|_K:  7.933e-07  alpha:  2.917e-01  linmin: -3.753e-06  t[s]:   7594.25
	FillingsUpdate:  mu: +0.125343231  nElectrons: 340.000000  magneticMoment: [ Abs: 40.02590  Tot: +0.00000 ]
	SubspaceRotationAdjust: set factor to 0.318
ElecMinimize: Iter: 147  F: -1894.907288586361574  |grad|_K:  9.824e-07  alpha:  2.072e-01  linmin: -1.946e-06  t[s]:   7639.02
	FillingsUpdate:  mu: +0.125169495  nElectrons: 340.000000  magneticMoment: [ Abs: 40.01961  Tot: -0.00000 ]
	SubspaceRotationAdjust: set factor to 0.317
ElecMinimize: Iter: 148  F: -1894.907310535370243  |grad|_K:  7.437e-07  alpha:  1.307e-01  linmin:  1.563e-07  t[s]:   7684.47
	FillingsUpdate:  mu: +0.125242017  nElectrons: 340.000000  magneticMoment: [ Abs: 40.00829  Tot: +0.00000 ]
	SubspaceRotationAdjust: set factor to 0.429
ElecMinimize: Iter: 149  F: -1894.907339282157636  |grad|_K:  7.217e-07  alpha:  2.985e-01  linmin:  5.773e-07  t[s]:   7729.61
	FillingsUpdate:  mu: +0.125296268  nElectrons: 340.000000  magneticMoment: [ Abs: 39.99768  Tot: -0.00000 ]
	SubspaceRotationAdjust: set factor to 0.323
ElecMinimize: Iter: 150  F: -1894.907359080352990  |grad|_K:  9.281e-07  alpha:  2.184e-01  linmin: -4.320e-07  t[s]:   7774.87
	FillingsUpdate:  mu: +0.125128577  nElectrons: 340.000000  magneticMoment: [ Abs: 39.99798  Tot: -0.00000 ]
	SubspaceRotationAdjust: set factor to 0.319
ElecMinimize: Iter: 151  F: -1894.907377857119627  |grad|_K:  7.150e-07  alpha:  1.255e-01  linmin:  2.361e-06  t[s]:   7819.92
	FillingsUpdate:  mu: +0.125128198  nElectrons: 340.000000  magneticMoment: [ Abs: 39.99557  Tot: +0.00000 ]
	SubspaceRotationAdjust: set factor to 0.439
ElecMinimize: Iter: 152  F: -1894.907404251313665  |grad|_K:  6.958e-07  alpha:  2.968e-01  linmin:  3.133e-07  t[s]:   7865.19
	FillingsUpdate:  mu: +0.125210699  nElectrons: 340.000000  magneticMoment: [ Abs: 39.99160  Tot: -0.00000 ]
	SubspaceRotationAdjust: set factor to 0.326
ElecMinimize: Iter: 153  F: -1894.907422307291426  |grad|_K:  9.041e-07  alpha:  2.142e-01  linmin:  1.882e-07  t[s]:   7910.19
	FillingsUpdate:  mu: +0.125068168  nElectrons: 340.000000  magneticMoment: [ Abs: 39.99806  Tot: +0.00000 ]
	SubspaceRotationAdjust: set factor to 0.329
ElecMinimize: Iter: 154  F: -1894.907439988911619  |grad|_K:  6.834e-07  alpha:  1.242e-01  linmin:  1.731e-07  t[s]:   7955.41
	FillingsUpdate:  mu: +0.125062679  nElectrons: 340.000000  magneticMoment: [ Abs: 40.00403  Tot: +0.00000 ]
	SubspaceRotationAdjust: set factor to 0.452
ElecMinimize: Iter: 155  F: -1894.907464657636865  |grad|_K:  6.794e-07  alpha:  3.035e-01  linmin:  3.205e-06  t[s]:   8000.25
	FillingsUpdate:  mu: +0.125193734  nElectrons: 340.000000  magneticMoment: [ Abs: 40.00578  Tot: -0.00000 ]
	SubspaceRotationAdjust: set factor to 0.334
ElecMinimize: Iter: 156  F: -1894.907481472351265  |grad|_K:  8.925e-07  alpha:  2.092e-01  linmin: -1.263e-07  t[s]:   8045.15
	FillingsUpdate:  mu: +0.125087768  nElectrons: 340.000000  magneticMoment: [ Abs: 40.01705  Tot: -0.00000 ]
	SubspaceRotationAdjust: set factor to 0.334
ElecMinimize: Iter: 157  F: -1894.907498617562169  |grad|_K:  6.789e-07  alpha:  1.235e-01  linmin: -8.426e-07  t[s]:   8089.91
	FillingsUpdate:  mu: +0.125006559  nElectrons: 340.000000  magneticMoment: [ Abs: 40.02794  Tot: -0.00000 ]
	SubspaceRotationAdjust: set factor to 0.453
ElecMinimize: Iter: 158  F: -1894.907522843989000  |grad|_K:  6.702e-07  alpha:  3.020e-01  linmin:  2.311e-06  t[s]:   8135.01
	FillingsUpdate:  mu: +0.125149738  nElectrons: 340.000000  magneticMoment: [ Abs: 40.03270  Tot: -0.00000 ]
	SubspaceRotationAdjust: set factor to 0.336
ElecMinimize: Iter: 159  F: -1894.907540402080713  |grad|_K:  8.946e-07  alpha:  2.241e-01  linmin:  2.584e-06  t[s]:   8179.74
	FillingsUpdate:  mu: +0.125064680  nElectrons: 340.000000  magneticMoment: [ Abs: 40.04498  Tot: -0.00000 ]
	SubspaceRotationAdjust: set factor to 0.323
ElecMinimize: Iter: 160  F: -1894.907556428600628  |grad|_K:  6.859e-07  alpha:  1.154e-01  linmin:  1.817e-06  t[s]:   8224.73
	FillingsUpdate:  mu: +0.124934606  nElectrons: 340.000000  magneticMoment: [ Abs: 40.05536  Tot: +0.00000 ]
	SubspaceRotationAdjust: set factor to 0.435
ElecMinimize: Iter: 161  F: -1894.907580107855438  |grad|_K:  6.765e-07  alpha:  2.901e-01  linmin:  1.329e-05  t[s]:   8269.96
	FillingsUpdate:  mu: +0.125101164  nElectrons: 340.000000  magneticMoment: [ Abs: 40.05908  Tot: +0.00000 ]
	SubspaceRotationAdjust: set factor to 0.325
ElecMinimize: Iter: 162  F: -1894.907597678559569  |grad|_K:  8.927e-07  alpha:  2.208e-01  linmin:  6.635e-06  t[s]:   8314.82
	FillingsUpdate:  mu: +0.125075769  nElectrons: 340.000000  magneticMoment: [ Abs: 40.06995  Tot: -0.00000 ]
	SubspaceRotationAdjust: set factor to 0.321
ElecMinimize: Iter: 163  F: -1894.907614273882245  |grad|_K:  6.983e-07  alpha:  1.205e-01  linmin:  7.131e-06  t[s]:   8359.78
	FillingsUpdate:  mu: +0.124927800  nElectrons: 340.000000  magneticMoment: [ Abs: 40.07672  Tot: +0.00000 ]
	SubspaceRotationAdjust: set factor to 0.424
ElecMinimize: Iter: 164  F: -1894.907639148873159  |grad|_K:  7.064e-07  alpha:  2.948e-01  linmin:  2.238e-05  t[s]:   8404.88
	FillingsUpdate:  mu: +0.125081628  nElectrons: 340.000000  magneticMoment: [ Abs: 40.07704  Tot: +0.00000 ]
	SubspaceRotationAdjust: set factor to 0.318
ElecMinimize: Iter: 165  F: -1894.907658364939152  |grad|_K:  9.375e-07  alpha:  2.217e-01  linmin:  8.863e-06  t[s]:   8450.06
	FillingsUpdate:  mu: +0.125091844  nElectrons: 340.000000  magneticMoment: [ Abs: 40.08507  Tot: +0.00000 ]
	SubspaceRotationAdjust: set factor to 0.316
ElecMinimize: Iter: 166  F: -1894.907677195278438  |grad|_K:  7.403e-07  alpha:  1.245e-01  linmin:  1.044e-05  t[s]:   8494.53
	FillingsUpdate:  mu: +0.124957722  nElectrons: 340.000000  magneticMoment: [ Abs: 40.08693  Tot: +0.00000 ]
	SubspaceRotationAdjust: set factor to 0.414
ElecMinimize: Iter: 167  F: -1894.907705513843666  |grad|_K:  7.455e-07  alpha:  2.986e-01  linmin:  1.559e-05  t[s]:   8540.17
	FillingsUpdate:  mu: +0.125090190  nElectrons: 340.000000  magneticMoment: [ Abs: 40.08251  Tot: -0.00000 ]
	SubspaceRotationAdjust: set factor to 0.316
ElecMinimize: Iter: 168  F: -1894.907726509847407  |grad|_K:  9.743e-07  alpha:  2.172e-01  linmin:  3.863e-06  t[s]:   8585.76
	FillingsUpdate:  mu: +0.125129779  nElectrons: 340.000000  magneticMoment: [ Abs: 40.08605  Tot: -0.00000 ]
	SubspaceRotationAdjust: set factor to 0.312
ElecMinimize: Iter: 169  F: -1894.907747109069987  |grad|_K:  7.457e-07  alpha:  1.260e-01  linmin:  6.021e-06  t[s]:   8631.44
	FillingsUpdate:  mu: +0.125061122  nElectrons: 340.000000  magneticMoment: [ Abs: 40.08126  Tot: -0.00000 ]
	SubspaceRotationAdjust: set factor to 0.414
ElecMinimize: Iter: 170  F: -1894.907776097290480  |grad|_K:  7.360e-07  alpha:  3.005e-01  linmin:  6.038e-06  t[s]:   8677.02
	FillingsUpdate:  mu: +0.125124900  nElectrons: 340.000000  magneticMoment: [ Abs: 40.07203  Tot: +0.00000 ]
	SubspaceRotationAdjust: set factor to 0.32
ElecMinimize: Iter: 171  F: -1894.907795733176954  |grad|_K:  9.349e-07  alpha:  2.081e-01  linmin:  3.153e-07  t[s]:   8721.97
	FillingsUpdate:  mu: +0.125146608  nElectrons: 340.000000  magneticMoment: [ Abs: 40.07079  Tot: -0.00000 ]
	SubspaceRotationAdjust: set factor to 0.318
ElecMinimize: Iter: 172  F: -1894.907815277982536  |grad|_K:  7.048e-07  alpha:  1.291e-01  linmin:  1.231e-06  t[s]:   8767.43
	FillingsUpdate:  mu: +0.125143516  nElectrons: 340.000000  magneticMoment: [ Abs: 40.06118  Tot: +0.00000 ]
	SubspaceRotationAdjust: set factor to 0.43
ElecMinimize: Iter: 173  F: -1894.907841093830939  |grad|_K:  6.715e-07  alpha:  2.985e-01  linmin: -2.668e-06  t[s]:   8812.58
	FillingsUpdate:  mu: +0.125176202  nElectrons: 340.000000  magneticMoment: [ Abs: 40.04966  Tot: +0.00000 ]
	SubspaceRotationAdjust: set factor to 0.324
ElecMinimize: Iter: 174  F: -1894.907858652981304  |grad|_K:  8.661e-07  alpha:  2.234e-01  linmin:  3.383e-07  t[s]:   8857.77
	FillingsUpdate:  mu: +0.125186224  nElectrons: 340.000000  magneticMoment: [ Abs: 40.04684  Tot: -0.00000 ]
	SubspaceRotationAdjust: set factor to 0.308
ElecMinimize: Iter: 175  F: -1894.907873963165002  |grad|_K:  6.520e-07  alpha:  1.175e-01  linmin:  2.471e-06  t[s]:   8902.68
	FillingsUpdate:  mu: +0.125239119  nElectrons: 340.000000  magneticMoment: [ Abs: 40.03615  Tot: -0.00000 ]
	SubspaceRotationAdjust: set factor to 0.427
ElecMinimize: Iter: 176  F: -1894.907895447665624  |grad|_K:  6.185e-07  alpha:  2.904e-01  linmin: -1.922e-06  t[s]:   8947.73
	FillingsUpdate:  mu: +0.125233801  nElectrons: 340.000000  magneticMoment: [ Abs: 40.02506  Tot: -0.00000 ]
	SubspaceRotationAdjust: set factor to 0.325
ElecMinimize: Iter: 177  F: -1894.907909829946902  |grad|_K:  7.808e-07  alpha:  2.159e-01  linmin: -3.272e-07  t[s]:   8992.96
	FillingsUpdate:  mu: +0.125217124  nElectrons: 340.000000  magneticMoment: [ Abs: 40.02217  Tot: +0.00000 ]
	SubspaceRotationAdjust: set factor to 0.316
ElecMinimize: Iter: 178  F: -1894.907922559632425  |grad|_K:  5.875e-07  alpha:  1.200e-01  linmin:  1.583e-06  t[s]:   9038.91
	FillingsUpdate:  mu: +0.125324630  nElectrons: 340.000000  magneticMoment: [ Abs: 40.01338  Tot: -0.00000 ]
	SubspaceRotationAdjust: set factor to 0.434
ElecMinimize: Iter: 179  F: -1894.907939700203769  |grad|_K:  5.545e-07  alpha:  2.852e-01  linmin: -2.058e-06  t[s]:   9084.77
	FillingsUpdate:  mu: +0.125317821  nElectrons: 340.000000  magneticMoment: [ Abs: 40.00422  Tot: -0.00000 ]
	SubspaceRotationAdjust: set factor to 0.331
ElecMinimize: Iter: 180  F: -1894.907950991453390  |grad|_K:  6.932e-07  alpha:  2.109e-01  linmin: -3.664e-07  t[s]:   9130.32
	FillingsUpdate:  mu: +0.125275085  nElectrons: 340.000000  magneticMoment: [ Abs: 40.00241  Tot: -0.00000 ]
	SubspaceRotationAdjust: set factor to 0.322
ElecMinimize: Iter: 181  F: -1894.907960937758844  |grad|_K:  5.229e-07  alpha:  1.191e-01  linmin:  2.189e-06  t[s]:   9175.67
	FillingsUpdate:  mu: +0.125380074  nElectrons: 340.000000  magneticMoment: [ Abs: 39.99677  Tot: +0.00000 ]
	SubspaceRotationAdjust: set factor to 0.441
ElecMinimize: Iter: 182  F: -1894.907974034571907  |grad|_K:  4.847e-07  alpha:  2.753e-01  linmin: -9.232e-07  t[s]:   9220.68
	FillingsUpdate:  mu: +0.125405994  nElectrons: 340.000000  magneticMoment: [ Abs: 39.99073  Tot: +0.00000 ]
	SubspaceRotationAdjust: set factor to 0.334
ElecMinimize: Iter: 183  F: -1894.907982526550086  |grad|_K:  6.059e-07  alpha:  2.074e-01  linmin:  2.862e-07  t[s]:   9265.85
	FillingsUpdate:  mu: +0.125361645  nElectrons: 340.000000  magneticMoment: [ Abs: 39.99108  Tot: +0.00000 ]
	SubspaceRotationAdjust: set factor to 0.328
ElecMinimize: Iter: 184  F: -1894.907989938989203  |grad|_K:  4.447e-07  alpha:  1.164e-01  linmin:  3.156e-06  t[s]:   9310.87
	FillingsUpdate:  mu: +0.125436756  nElectrons: 340.000000  magneticMoment: [ Abs: 39.98918  Tot: -0.00000 ]
	SubspaceRotationAdjust: set factor to 0.454
ElecMinimize: Iter: 185  F: -1894.907999438729121  |grad|_K:  4.131e-07  alpha:  2.761e-01  linmin: -6.030e-07  t[s]:   9355.77
	FillingsUpdate:  mu: +0.125477460  nElectrons: 340.000000  magneticMoment: [ Abs: 39.98595  Tot: +0.00000 ]
	SubspaceRotationAdjust: set factor to 0.339
ElecMinimize: Iter: 186  F: -1894.908005324493161  |grad|_K:  5.157e-07  alpha:  1.979e-01  linmin:  3.343e-07  t[s]:   9400.92
	FillingsUpdate:  mu: +0.125442866  nElectrons: 340.000000  magneticMoment: [ Abs: 39.98771  Tot: -0.00000 ]
	SubspaceRotationAdjust: set factor to 0.344
ElecMinimize: Iter: 187  F: -1894.908010759412264  |grad|_K:  3.734e-07  alpha:  1.178e-01  linmin:  2.388e-06  t[s]:   9446.40
	FillingsUpdate:  mu: +0.125496642  nElectrons: 340.000000  magneticMoment: [ Abs: 39.98757  Tot: +0.00000 ]
	SubspaceRotationAdjust: set factor to 0.477
ElecMinimize: Iter: 188  F: -1894.908017621261024  |grad|_K:  3.487e-07  alpha:  2.830e-01  linmin:  3.357e-07  t[s]:   9491.88
	FillingsUpdate:  mu: +0.125557059  nElectrons: 340.000000  magneticMoment: [ Abs: 39.98574  Tot: +0.00000 ]
	SubspaceRotationAdjust: set factor to 0.348
ElecMinimize: Iter: 189  F: -1894.908022017077656  |grad|_K:  4.515e-07  alpha:  2.074e-01  linmin:  9.369e-07  t[s]:   9537.29
	FillingsUpdate:  mu: +0.125539965  nElectrons: 340.000000  magneticMoment: [ Abs: 39.98802  Tot: -0.00000 ]
	SubspaceRotationAdjust: set factor to 0.343
ElecMinimize: Iter: 190  F: -1894.908025904244823  |grad|_K:  3.277e-07  alpha:  1.100e-01  linmin:  5.170e-06  t[s]:   9582.61
	FillingsUpdate:  mu: +0.125560411  nElectrons: 340.000000  magneticMoment: [ Abs: 39.98845  Tot: -0.00000 ]
	SubspaceRotationAdjust: set factor to 0.481
ElecMinimize: Iter: 191  F: -1894.908031167205991  |grad|_K:  3.088e-07  alpha:  2.819e-01  linmin: -2.087e-06  t[s]:   9628.06
	FillingsUpdate:  mu: +0.125622654  nElectrons: 340.000000  magneticMoment: [ Abs: 39.98701  Tot: +0.00000 ]
	SubspaceRotationAdjust: set factor to 0.35
ElecMinimize: Iter: 192  F: -1894.908034579367495  |grad|_K:  4.030e-07  alpha:  2.051e-01  linmin:  9.459e-07  t[s]:   9673.23
	FillingsUpdate:  mu: +0.125612650  nElectrons: 340.000000  magneticMoment: [ Abs: 39.98918  Tot: -0.00000 ]
	SubspaceRotationAdjust: set factor to 0.35
ElecMinimize: Iter: 193  F: -1894.908037721204664  |grad|_K:  2.932e-07  alpha:  1.116e-01  linmin:  4.074e-06  t[s]:   9718.46
[...]
	SubspaceRotationAdjust: set factor to 0.209
ElecMinimize: Iter:  17  F: -1895.064558676210936  |grad|_K:  6.278e-08  alpha:  3.330e-01  linmin: -4.391e-05  t[s]: 213524.62
	FillingsUpdate:  mu: +0.126422658  nElectrons: 340.000000  magneticMoment: [ Abs: 38.45567  Tot: -0.00000 ]
	SubspaceRotationAdjust: set factor to 0.249
ElecMinimize: Iter:  18  F: -1895.064558924739686  |grad|_K:  6.166e-08  alpha:  3.617e-01  linmin:  2.353e-05  t[s]: 213570.15
	FillingsUpdate:  mu: +0.126469530  nElectrons: 340.000000  magneticMoment: [ Abs: 38.45611  Tot: -0.00000 ]
	SubspaceRotationAdjust: set factor to 0.263
ElecMinimize: Iter:  19  F: -1895.064559154683820  |grad|_K:  6.747e-08  alpha:  3.476e-01  linmin: -7.437e-08  t[s]: 213615.36
ElecMinimize: Converged (|Delta F|<1.000000e-06 for 5 iters).
Setting wave functions to eigenvectors of Hamiltonian

# Ionic positions in lattice coordinates:
ion Ni  -0.017181451331737  -0.202748317794164   0.189266931893447 1
ion Ni   0.480904129289994  -0.007838641423850   0.167948699507274 1
ion Ni  -0.023257340043949   0.214849069356653   0.180327845570961 1
ion Ni   0.000000000000000   0.500000000000000  -0.050000000000000 0
ion Co   0.478277476811526   0.495340933460768   0.180874853829766 1
ion Co   0.228504493031225   0.751965154914280   0.070160460183604 1
ion Cr   0.244919993240086   0.243431401930766   0.060755576364811 1
ion Cr  -0.253089727037078   0.245297005703793   0.066831124796158 1
ion V  -0.258280306184515   0.746625573949175   0.065817218428852 1
ion V   0.000000000000000   0.000000000000000  -0.050000000000000 0
ion V   0.500000000000000   0.000000000000000  -0.050000000000000 0
ion V   0.500000000000000   0.500000000000000  -0.050000000000000 0
ion V   0.250000000000000   0.250000000000000  -0.150000000000000 0
ion V   0.250000000000000   0.750000000000000  -0.150000000000000 0
ion V  -0.250000000000000   0.250000000000000  -0.150000000000000 0
ion V  -0.250000000000000   0.750000000000000  -0.150000000000000 0
ion O   0.268900456585591   0.228595079155767   0.153674432390643 1
ion O   0.277126667323979   0.752549478874985   0.164820054721150 1
ion O  -0.321106850409840   0.231043674411378   0.173686680503718 1
ion O  -0.309532686392433   0.756513999155814   0.164461602579953 1
ion O  -0.003719373096173   0.012081431902519   0.050349597577918 1
ion O   0.476366773289361  -0.002256107210051   0.046766506525745 1
ion O   0.011121760618235   0.489651059510892   0.048451290423309 1
ion O   0.492700008124716   0.475206836398905   0.052180829788342 1
ion O   0.250000000000000   0.250000000000000  -0.050000000000000 0
ion O   0.250000000000000   0.750000000000000  -0.050000000000000 0
ion O  -0.250000000000000   0.250000000000000  -0.050000000000000 0
ion O  -0.250000000000000   0.750000000000000  -0.050000000000000 0
ion O   0.000000000000000   0.000000000000000  -0.150000000000000 0
ion O   0.500000000000000   0.000000000000000  -0.150000000000000 0
ion O   0.000000000000000   0.500000000000000  -0.150000000000000 0
ion O   0.500000000000000   0.500000000000000  -0.150000000000000 0
ion O   0.007017226455192   0.022882722350629   0.241020594091708 1

# Forces in Lattice coordinates:
force Ni  -0.001957831265635   0.005322672365714  -0.025947079449455 1
force Ni   0.000670542013208   0.003783850205834   0.007632132975485 1
force Ni  -0.007612427332331   0.005789410221000  -0.007432944287144 1
force Ni   0.017955093910669   0.016782164239660   0.439016839634432 0
force Co   0.001291719908945   0.002078615311311  -0.006224602278151 1
force Co   0.003815034592971   0.000241847635271  -0.044911379279894 1
force Cr   0.001145538445603  -0.001476963917212  -0.012074525429662 1
force Cr   0.001260510461346  -0.004062735332733   0.011713962027720 1
force V  -0.000484408066442  -0.001396068717408  -0.002396482587862 1
force V  -0.049601560006214   0.004812565105017   0.777651508941833 0
force V  -0.081502924657592  -0.018461787225032   0.630140778115476 0
force V  -0.057267479479227  -0.010620537831073   0.919304320261486 0
force V  -0.015781928509817   0.037457066275255  -0.312501447903031 0
force V  -0.014995156066368  -0.035702452461336  -0.212440060395367 0
force V   0.074511128315428   0.012265441169920  -0.283627110372777 0
force V   0.075976886242762  -0.013751351636859  -0.324767768493940 0
force O   0.000591040083715   0.000342266567225   0.001653553503866 1
force O   0.004930664122521  -0.003238502362803  -0.014064185362855 1
force O   0.005347037231653  -0.005208376103649   0.014249365082310 1
force O   0.004975519088935   0.002481920383183  -0.008081377441485 1
force O  -0.000919138068191   0.000404526131154  -0.003624208497249 1
force O  -0.000353698870444   0.003013058169965  -0.000727011655843 1
force O  -0.002871096996470  -0.001527729124814  -0.013072474377605 1
force O   0.001726000720486   0.003415671262821  -0.000720121832265 1
force O  -0.023472612820912   0.083958093666416   0.227615624834423 0
force O  -0.032902772120557  -0.092877436048824  -0.262242951209424 0
force O  -0.018989083407536   0.089735475377572  -0.603295324652658 0
force O  -0.021221260783634  -0.091542014827644   0.040124539628291 0
force O   0.000903865543858  -0.000820594063766  -0.452149366113185 0
force O   0.057989703348784   0.003920704466689  -0.334630850577977 0
force O  -0.003892770971961  -0.003712920635707   0.027762928029999 0
force O   0.065856367219912   0.001526385239397  -0.230482889510768 0
force O   0.006208633534512   0.000140790744430   0.003779927458126 1

# Energy components:
   Eewald =     4647.5246784420160111
       EH =     6356.4766612005432762
     Eloc =   -13074.4492626211886090
      Enl =     -464.3724111392045870
   Epulay =       -0.0004828466650297
      Exc =     -236.6459864983960415
       KE =      875.1074659564787908
        U =        1.2954698346417346
-------------------------------------
     Etot =    -1895.0638676717733233
       TS =        0.0006914829104855
-------------------------------------
        F =    -1895.0645591546838205

IonicMinimize: Iter:  71  F: -1895.064559154683820  |grad|_K:  3.178e-04  alpha:  1.000e+00  linmin: -1.376e-02  t[s]: 213630.98

#--- Lowdin population analysis ---
# oxidation-state Ni +3.450 +3.415 +3.387 +3.591
# magnetic-moments Ni +0.593 -0.066 -0.027 +0.954
# oxidation-state Co +1.285 +1.286
# magnetic-moments Co -2.760 +2.778
# oxidation-state Cr +3.011 +2.930
# magnetic-moments Cr +1.070 -3.905
# oxidation-state V +1.067 +0.985 +1.074 +1.079 +1.059 +1.046 +1.075 +1.082
# magnetic-moments V -2.936 -2.861 +2.666 +2.680 -2.930 -2.932 +2.864 +2.874
# oxidation-state O -0.630 -0.780 -0.679 -0.727 -0.889 -0.906 -0.850 -0.903 -0.853 -0.873 -0.866 -0.872 -0.960 -0.959 -0.913 -0.956 -0.366
# magnetic-moments O -0.103 +0.121 +0.011 +0.109 +0.103 +0.002 +0.170 +0.053 +0.072 +0.102 +0.041 +0.056 -0.001 -0.009 +0.104 -0.014 +0.730


-------- Electronic minimization -----------
	FillingsUpdate:  mu: +0.130252998  nElectrons: 340.000000  magneticMoment: [ Abs: 38.45473  Tot: -0.00000 ]
ElecMinimize: Iter:   0  F: -1894.928822109998691  |grad|_K:  6.046e-05  alpha:  1.000e+00
	FillingsUpdate:  mu: +0.136610435  nElectrons: 340.000000  magneticMoment: [ Abs: 38.48788  Tot: -0.00000 ]
	SubspaceRotationAdjust: set factor to 0.181
ElecMinimize: Iter:   1  F: -1895.050355543692831  |grad|_K:  1.988e-05  alpha:  1.985e-01  linmin:  1.028e-02  t[s]: 213708.74
	FillingsUpdate:  mu: +0.129901173  nElectrons: 340.000000  magneticMoment: [ Abs: 38.45233  Tot: +0.00000 ]
	SubspaceRotationAdjust: set factor to 0.0878
ElecMinimize: Iter:   2  F: -1895.057412317893522  |grad|_K:  8.345e-06  alpha:  1.047e-01  linmin:  3.891e-03  t[s]: 213753.85
	FillingsUpdate:  mu: +0.128309024  nElectrons: 340.000000  magneticMoment: [ Abs: 38.45362  Tot: +0.00000 ]
	SubspaceRotationAdjust: set factor to 0.16
ElecMinimize: Iter:   3  F: -1895.060383571429384  |grad|_K:  4.211e-06  alpha:  2.628e-01  linmin: -3.991e-06  t[s]: 213798.67
	FillingsUpdate:  mu: +0.129705029  nElectrons: 340.000000  magneticMoment: [ Abs: 38.46035  Tot: +0.00000 ]
	SubspaceRotationAdjust: set factor to 0.138
ElecMinimize: Iter:   4  F: -1895.061305807283816  |grad|_K:  3.050e-06  alpha:  2.988e-01  linmin:  1.041e-04  t[s]: 213843.41
	FillingsUpdate:  mu: +0.126674906  nElectrons: 340.000000  magneticMoment: [ Abs: 38.45497  Tot: -0.00000 ]
	SubspaceRotationAdjust: set factor to 0.148
ElecMinimize: Iter:   5  F: -1895.061978140469137  |grad|_K:  2.972e-06  alpha:  4.157e-01  linmin: -3.568e-05  t[s]: 213888.59
	FillingsUpdate:  mu: +0.126853230  nElectrons: 340.000000  magneticMoment: [ Abs: 38.45780  Tot: +0.00000 ]
	SubspaceRotationAdjust: set factor to 0.168
ElecMinimize: Iter:   6  F: -1895.062743203932996  |grad|_K:  2.973e-06  alpha:  4.963e-01  linmin:  7.983e-06  t[s]: 213933.94
	FillingsUpdate:  mu: +0.127262134  nElectrons: 340.000000  magneticMoment: [ Abs: 38.45824  Tot: -0.00000 ]
	SubspaceRotationAdjust: set factor to 0.194
ElecMinimize: Iter:   7  F: -1895.063582979609919  |grad|_K:  2.581e-06  alpha:  5.464e-01  linmin:  1.553e-06  t[s]: 213979.24
	FillingsUpdate:  mu: +0.126897667  nElectrons: 340.000000  magneticMoment: [ Abs: 38.45452  Tot: -0.00000 ]
	SubspaceRotationAdjust: set factor to 0.175
ElecMinimize: Iter:   8  F: -1895.064069692848761  |grad|_K:  2.496e-06  alpha:  4.205e-01  linmin: -9.199e-06  t[s]: 214024.44
	FillingsUpdate:  mu: +0.127866444  nElectrons: 340.000000  magneticMoment: [ Abs: 38.45934  Tot: +0.00000 ]
	SubspaceRotationAdjust: set factor to 0.112
ElecMinimize: Iter:   9  F: -1895.064306887598605  |grad|_K:  1.677e-06  alpha:  2.168e-01  linmin: -2.404e-05  t[s]: 214069.28
	FillingsUpdate:  mu: +0.126325013  nElectrons: 340.000000  magneticMoment: [ Abs: 38.45827  Tot: -0.00000 ]
	SubspaceRotationAdjust: set factor to 0.114
ElecMinimize: Iter:  10  F: -1895.064464897906873  |grad|_K:  1.037e-06  alpha:  3.216e-01  linmin: -7.602e-06  t[s]: 214114.37
	FillingsUpdate:  mu: +0.126046192  nElectrons: 340.000000  magneticMoment: [ Abs: 38.45799  Tot: +0.00000 ]
	SubspaceRotationAdjust: set factor to 0.117
ElecMinimize: Iter:  11  F: -1895.064531061499338  |grad|_K:  7.387e-07  alpha:  3.534e-01  linmin: -2.242e-06  t[s]: 214159.72
	FillingsUpdate:  mu: +0.126578451  nElectrons: 340.000000  magneticMoment: [ Abs: 38.45910  Tot: -0.00000 ]
	SubspaceRotationAdjust: set factor to 0.102
ElecMinimize: Iter:  12  F: -1895.064559439369987  |grad|_K:  4.660e-07  alpha:  2.986e-01  linmin:  4.768e-06  t[s]: 214205.39
	FillingsUpdate:  mu: +0.126366944  nElectrons: 340.000000  magneticMoment: [ Abs: 38.45897  Tot: -0.00000 ]
	SubspaceRotationAdjust: set factor to 0.108
ElecMinimize: Iter:  13  F: -1895.064573828283756  |grad|_K:  3.149e-07  alpha:  3.806e-01  linmin: -1.806e-08  t[s]: 214250.88
	FillingsUpdate:  mu: +0.126303482  nElectrons: 340.000000  magneticMoment: [ Abs: 38.45894  Tot: -0.00000 ]
	SubspaceRotationAdjust: set factor to 0.118
ElecMinimize: Iter:  14  F: -1895.064579792522636  |grad|_K:  2.286e-07  alpha:  3.454e-01  linmin: -5.423e-07  t[s]: 214296.49
	FillingsUpdate:  mu: +0.126439418  nElectrons: 340.000000  magneticMoment: [ Abs: 38.45921  Tot: -0.00000 ]
	SubspaceRotationAdjust: set factor to 0.127
ElecMinimize: Iter:  15  F: -1895.064583076063855  |grad|_K:  1.680e-07  alpha:  3.607e-01  linmin:  1.400e-07  t[s]: 214342.20
	FillingsUpdate:  mu: +0.126379630  nElectrons: 340.000000  magneticMoment: [ Abs: 38.45922  Tot: +0.00000 ]
	SubspaceRotationAdjust: set factor to 0.151
ElecMinimize: Iter:  16  F: -1895.064585001350906  |grad|_K:  1.373e-07  alpha:  3.917e-01  linmin: -3.916e-07  t[s]: 214388.21
	FillingsUpdate:  mu: +0.126371908  nElectrons: 340.000000  magneticMoment: [ Abs: 38.45933  Tot: -0.00000 ]
	SubspaceRotationAdjust: set factor to 0.183
ElecMinimize: Iter:  17  F: -1895.064586435813681  |grad|_K:  1.239e-07  alpha:  4.367e-01  linmin: -4.223e-07  t[s]: 214433.56
	FillingsUpdate:  mu: +0.126444163  nElectrons: 340.000000  magneticMoment: [ Abs: 38.45960  Tot: +0.00000 ]
	SubspaceRotationAdjust: set factor to 0.207
ElecMinimize: Iter:  18  F: -1895.064587584629862  |grad|_K:  1.186e-07  alpha:  4.300e-01  linmin: -8.145e-07  t[s]: 214478.64
	FillingsUpdate:  mu: +0.126335562  nElectrons: 340.000000  magneticMoment: [ Abs: 38.45962  Tot: -0.00000 ]
	SubspaceRotationAdjust: set factor to 0.196
ElecMinimize: Iter:  19  F: -1895.064588496313945  |grad|_K:  1.188e-07  alpha:  3.721e-01  linmin:  1.846e-08  t[s]: 214523.58
	FillingsUpdate:  mu: +0.126447228  nElectrons: 340.000000  magneticMoment: [ Abs: 38.46002  Tot: -0.00000 ]
	SubspaceRotationAdjust: set factor to 0.16
ElecMinimize: Iter:  20  F: -1895.064589203882406  |grad|_K:  1.015e-07  alpha:  2.882e-01  linmin:  3.901e-07  t[s]: 214568.88
	FillingsUpdate:  mu: +0.126373221  nElectrons: 340.000000  magneticMoment: [ Abs: 38.46013  Tot: +0.00000 ]
	SubspaceRotationAdjust: set factor to 0.152
ElecMinimize: Iter:  21  F: -1895.064589797144436  |grad|_K:  8.252e-08  alpha:  3.308e-01  linmin:  2.947e-06  t[s]: 214614.30
	FillingsUpdate:  mu: +0.126392910  nElectrons: 340.000000  magneticMoment: [ Abs: 38.46040  Tot: +0.00000 ]
	SubspaceRotationAdjust: set factor to 0.169
ElecMinimize: Iter:  22  F: -1895.064590255611847  |grad|_K:  6.621e-08  alpha:  3.871e-01  linmin:  1.836e-06  t[s]: 214659.83
	FillingsUpdate:  mu: +0.126414873  nElectrons: 340.000000  magneticMoment: [ Abs: 38.46065  Tot: -0.00000 ]
	SubspaceRotationAdjust: set factor to 0.188
ElecMinimize: Iter:  23  F: -1895.064590568469384  |grad|_K:  5.938e-08  alpha:  4.098e-01  linmin: -1.323e-06  t[s]: 214705.15
ElecMinimize: Converged (|Delta F|<1.000000e-06 for 5 iters).
Setting wave functions to eigenvectors of Hamiltonian

# Ionic positions in lattice coordinates:
ion Ni  -0.016713677724600  -0.202531951640460   0.188967327147360 1
ion Ni   0.481041961863341  -0.007456335974062   0.167902641716521 1
ion Ni  -0.023375262602456   0.214809421225729   0.180334060947766 1
ion Ni   0.000000000000000   0.500000000000000  -0.050000000000000 0
ion Co   0.478149758041638   0.495600819719933   0.180733652522521 1
ion Co   0.228566493332398   0.751453837989484   0.069659849922752 1
ion Cr   0.244929804316540   0.243061719165502   0.060743956890069 1
ion Cr  -0.253191665390488   0.244681946405351   0.066768820956905 1
ion V  -0.258005380928423   0.746129955833495   0.065872106412487 1
ion V   0.000000000000000   0.000000000000000  -0.050000000000000 0
ion V   0.500000000000000   0.000000000000000  -0.050000000000000 0
ion V   0.500000000000000   0.500000000000000  -0.050000000000000 0
ion V   0.250000000000000   0.250000000000000  -0.150000000000000 0
ion V   0.250000000000000   0.750000000000000  -0.150000000000000 0
ion V  -0.250000000000000   0.250000000000000  -0.150000000000000 0
ion V  -0.250000000000000   0.750000000000000  -0.150000000000000 0
ion O   0.268817155697232   0.228713919666599   0.153625096642268 1
ion O   0.277358710910775   0.752571683983920   0.164288532268397 1
ion O  -0.321051681577803   0.231216845823734   0.173861760351568 1
ion O  -0.309373479459515   0.756752487747423   0.164607277546674 1
ion O  -0.003875679767634   0.011624062241626   0.050315621979838 1
ion O   0.476563390698378  -0.002207403394830   0.046702132875886 1
ion O   0.010723234602032   0.489210289408376   0.048376975964990 1
ion O   0.492751285443507   0.475012028872612   0.052061107562787 1
ion O   0.250000000000000   0.250000000000000  -0.050000000000000 0
ion O   0.250000000000000   0.750000000000000  -0.050000000000000 0
ion O  -0.250000000000000   0.250000000000000  -0.050000000000000 0
ion O  -0.250000000000000   0.750000000000000  -0.050000000000000 0
ion O   0.000000000000000   0.000000000000000  -0.150000000000000 0
ion O   0.500000000000000   0.000000000000000  -0.150000000000000 0
ion O   0.000000000000000   0.500000000000000  -0.150000000000000 0
ion O   0.500000000000000   0.500000000000000  -0.150000000000000 0
ion O   0.007970766914662   0.022521407310304   0.240953119408354 1

# Forces in Lattice coordinates:
force Ni  -0.003282527824992   0.007078380616646  -0.020148747032014 1
force Ni  -0.000337566715555  -0.002749331309882  -0.002630005296333 1
force Ni  -0.003956147380054   0.005521183953842  -0.002703146368416 1
force Ni   0.016394512831375   0.015162634583272   0.437613975787841 0
force Co   0.001817252987953   0.000151385160920  -0.012002211306902 1
force Co   0.005116592015171   0.000379303229438  -0.043579163837048 1
force Cr  -0.000302733869792   0.003315107317712  -0.016648724295981 1
force Cr   0.000589716419198   0.000695712777480   0.010111252835569 1
force V  -0.007784207871230   0.011109490652986  -0.013407717769439 1
force V  -0.051393397586310   0.005076038835820   0.775032155908230 0
force V  -0.079741709903686  -0.017417053582082   0.623688218256444 0
force V  -0.055878199168773  -0.012385426597480   0.915331517535023 0
force V  -0.015651122626015   0.037372125436920  -0.310547212383566 0
force V  -0.014859719546465  -0.035663981235935  -0.213654848764699 0
force V   0.074447651767249   0.012223878584591  -0.281408549919226 0
force V   0.075950523734806  -0.013734997775748  -0.322313036035807 0
force O   0.000662724196839  -0.001394263046817   0.000625926656420 1
force O   0.001933455915316   0.002229994452900   0.036141115624655 1
force O   0.001953474129001  -0.003612211545794  -0.001189036646577 1
force O   0.003130056852205   0.001873298745969  -0.035396615390139 1
force O   0.001643644794737   0.001604777143410  -0.002072325277944 1
force O  -0.001591109872647   0.001612658042228   0.010259390270384 1
force O  -0.001038656082736   0.000020143844798  -0.007917513680799 1
force O  -0.000183169050041   0.003217782219366   0.012393754095380 1
force O  -0.023844178433809   0.083433076948397   0.224921117575616 0
force O  -0.032914544159864  -0.092994264339981  -0.249639161394666 0
force O  -0.018761425007666   0.089383183376906  -0.608694093950131 0
force O  -0.020865057187483  -0.092215696016587   0.038611807832043 0
force O   0.001425751252283  -0.000849181846069  -0.454074495686974 0
force O   0.057550626994666   0.003709268677485  -0.337985325630663 0
force O  -0.003360587958259  -0.003456767058133   0.025049571441217 0
force O   0.065419385316600   0.001788121951351  -0.233683177857475 0
force O  -0.001496486632502   0.000929497524589  -0.004692141473804 1

# Energy components:
   Eewald =     4650.9526205225074591
       EH =     6359.8888726392669923
     Eloc =   -13081.2916100727597950
      Enl =     -464.3733249911116445
   Epulay =       -0.0004828466650297
      Exc =     -236.6473093500477773
       KE =      875.1118930644079228
        U =        1.2954428588833167
-------------------------------------
     Etot =    -1895.0638981755191708
       TS =        0.0006923929503128
-------------------------------------
        F =    -1895.0645905684693844

IonicMinimize: Iter:  72  F: -1895.064590568469384  |grad|_K:  3.610e-04  alpha:  1.000e+00  linmin:  4.943e-03  t[s]: 214720.92
IonicMinimize: Converged (|Delta F|<1.000000e-04 for 3 iters).

#--- Lowdin population analysis ---
# oxidation-state Ni +3.449 +3.415 +3.387 +3.590
# magnetic-moments Ni +0.593 -0.066 -0.029 +0.954
# oxidation-state Co +1.285 +1.286
# magnetic-moments Co -2.760 +2.778
# oxidation-state Cr +3.011 +2.930
# magnetic-moments Cr +1.071 -3.905
# oxidation-state V +1.067 +0.985 +1.074 +1.079 +1.059 +1.046 +1.075 +1.082
# magnetic-moments V -2.935 -2.861 +2.666 +2.680 -2.930 -2.932 +2.864 +2.874
# oxidation-state O -0.629 -0.780 -0.679 -0.726 -0.889 -0.905 -0.850 -0.904 -0.853 -0.874 -0.866 -0.872 -0.960 -0.959 -0.913 -0.956 -0.365
# magnetic-moments O -0.104 +0.120 +0.010 +0.110 +0.103 +0.002 +0.170 +0.053 +0.072 +0.101 +0.041 +0.057 -0.001 -0.009 +0.104 -0.014 +0.732


Dumping 'run.ionpos' ... done
Dumping 'run.lattice' ... done
Dumping 'run.Ecomponents' ... done
End date and time: Fri May  9 06:27:54 2025  (Duration: 2-11:38:44.94)
Done!
