
*************** JDFTx 1.7.0  ***************

Start date and time: Thu May  1 14:27:15 2025
Executable /data2/jt577/jdftx_eat_withLibXC/build/jdftx with command-line: -i /data2/jt577/March_2025/pure_RSO/ionic_relax_noMagnetism/pure_NiO/runs/calc_20250501-142714/O/O.in
Running on hosts (process indices):  node3225 (0-8)
Divided in process groups (process indices):  0 (0)  1 (1)  2 (2)  3 (3)  4 (4)  5 (5)  6 (6)  7 (7)  8 (8)
Resource initialization completed at t[s]:      0.00
Run totals: 9 processes, 36 threads, 0 GPUs


Input parsed successfully to the following command list (including defaults):

add-mix 
basis kpoint-dependent
coords-type Lattice
core-overlap-check vector
coulomb-interaction Periodic
davidson-band-ratio 1.1
dump End IonicPositions Lattice Ecomponents
dump-name O.$VAR
elec-cutoff 30
elec-eigen-algo Davidson
elec-ex-corr gga-x-rpbe gga-c-pbe
elec-smearing Fermi 0.001
electronic-minimize  \
	dirUpdateScheme      FletcherReeves \
	linminMethod         DirUpdateRecommended \
	nIterations          1000 \
	history              15 \
	knormThreshold       0 \
	energyDiffThreshold  1e-06 \
	nEnergyDiff          5 \
	alphaTstart          1 \
	alphaTmin            1e-10 \
	updateTestStepSize   yes \
	alphaTreduceFactor   0.1 \
	alphaTincreaseFactor 3 \
	nAlphaAdjustMax      3 \
	wolfeEnergy          0.0001 \
	wolfeGradient        0.9 \
	fdTest               no
exchange-regularization WignerSeitzTruncated
fluid None
fluid-ex-corr (null) lda-PZ
fluid-gummel-loop 10 1.000000e-05
fluid-minimize  \
	dirUpdateScheme      PolakRibiere \
	linminMethod         DirUpdateRecommended \
	nIterations          100 \
	history              15 \
	knormThreshold       0 \
	energyDiffThreshold  0 \
	nEnergyDiff          2 \
	alphaTstart          1 \
	alphaTmin            1e-10 \
	updateTestStepSize   yes \
	alphaTreduceFactor   0.1 \
	alphaTincreaseFactor 3 \
	nAlphaAdjustMax      3 \
	wolfeEnergy          0.0001 \
	wolfeGradient        0.9 \
	fdTest               no
fluid-solvent H2O 55.338 ScalarEOS \
	epsBulk 78.4 \
	pMol 0.92466 \
	epsInf 1.77 \
	Pvap 1.06736e-10 \
	sigmaBulk 4.62e-05 \
	Rvdw 2.61727 \
	Res 1.42 \
	tauNuc 343133 \
	poleEl 15 7 1
forces-output-coords Positions
initial-state O.$VAR
ion Ni  0.000000000000000   0.000000000000000   0.150000000000000 1
ion Ni  0.500000000000000   0.000000000000000   0.150000000000000 1
ion Ni  0.000000000000000   0.500000000000000   0.150000000000000 1
ion Ni  0.500000000000000   0.500000000000000   0.150000000000000 1
ion Ni  0.250000000000000   0.250000000000000   0.050000000000000 1
ion Ni  0.250000000000000   0.750000000000000   0.050000000000000 1
ion Ni -0.250000000000000   0.250000000000000   0.050000000000000 1
ion Ni -0.250000000000000   0.750000000000000   0.050000000000000 1
ion Ni  0.000000000000000   0.000000000000000  -0.050000000000000 0
ion Ni  0.500000000000000   0.000000000000000  -0.050000000000000 0
ion Ni  0.000000000000000   0.500000000000000  -0.050000000000000 0
ion Ni  0.500000000000000   0.500000000000000  -0.050000000000000 0
ion Ni  0.250000000000000   0.250000000000000  -0.150000000000000 0
ion Ni  0.250000000000000   0.750000000000000  -0.150000000000000 0
ion Ni -0.250000000000000   0.250000000000000  -0.150000000000000 0
ion Ni -0.250000000000000   0.750000000000000  -0.150000000000000 0
ion O  0.250000000000000   0.250000000000000   0.150000000000000 1
ion O  0.250000000000000   0.750000000000000   0.150000000000000 1
ion O -0.250000000000000   0.250000000000000   0.150000000000000 1
ion O -0.250000000000000   0.750000000000000   0.150000000000000 1
ion O  0.000000000000000   0.000000000000000   0.050000000000000 1
ion O  0.500000000000000   0.000000000000000   0.050000000000000 1
ion O  0.000000000000000   0.500000000000000   0.050000000000000 1
ion O  0.500000000000000   0.500000000000000   0.050000000000000 1
ion O  0.250000000000000   0.250000000000000  -0.050000000000000 0
ion O  0.250000000000000   0.750000000000000  -0.050000000000000 0
ion O -0.250000000000000   0.250000000000000  -0.050000000000000 0
ion O -0.250000000000000   0.750000000000000  -0.050000000000000 0
ion O  0.000000000000000   0.000000000000000  -0.150000000000000 0
ion O  0.500000000000000   0.000000000000000  -0.150000000000000 0
ion O  0.000000000000000   0.500000000000000  -0.150000000000000 0
ion O  0.500000000000000   0.500000000000000  -0.150000000000000 0
ion O  0.000000000000000   0.000000000000000   0.230000000000000 1
ion-species SG15/$ID_ONCV_PBE.upf
ion-width 0
ionic-minimize  \
	dirUpdateScheme      L-BFGS \
	linminMethod         DirUpdateRecommended \
	nIterations          1000 \
	history              15 \
	knormThreshold       0.0001 \
	energyDiffThreshold  0.0001 \
	nEnergyDiff          3 \
	alphaTstart          1 \
	alphaTmin            1e-10 \
	updateTestStepSize   yes \
	alphaTreduceFactor   0.1 \
	alphaTincreaseFactor 3 \
	nAlphaAdjustMax      3 \
	wolfeEnergy          0.0001 \
	wolfeGradient        0.9 \
	fdTest               no
kpoint   0.500000000000   0.500000000000   0.500000000000  1.00000000000000
kpoint-folding 3 3 1 
latt-move-scale 1 1 1
latt-scale 1 1 1 
lattice  \
	   7.880000000000000    7.880000000000000    0.000000000000000  \
	   7.880000000000000   -7.880000000000000    0.000000000000000  \
	   0.000000000000000    0.000000000000000   39.399999999999999 
lattice-minimize  \
	dirUpdateScheme      L-BFGS \
	linminMethod         DirUpdateRecommended \
	nIterations          0 \
	history              15 \
	knormThreshold       0 \
	energyDiffThreshold  1e-06 \
	nEnergyDiff          2 \
	alphaTstart          1 \
	alphaTmin            1e-10 \
	updateTestStepSize   yes \
	alphaTreduceFactor   0.1 \
	alphaTincreaseFactor 3 \
	nAlphaAdjustMax      3 \
	wolfeEnergy          0.0001 \
	wolfeGradient        0.9 \
	fdTest               no
lcao-params -1 1e-06 0.001
pcm-variant GLSSA13
spintype no-spin
subspace-rotation-factor 1 yes
symmetries none
symmetry-threshold 0.0001


Applied RMS atom displacement 0 bohrs to make symmetries exact.

---------- Initializing the Grid ----------
R = 
[         7.88         7.88            0  ]
[         7.88        -7.88            0  ]
[            0            0         39.4  ]
unit cell volume = 4893.04
G =
[   0.398679   0.398679         -0  ]
[   0.398679  -0.398679         -0  ]
[         -0         -0   0.159472  ]
Minimum fftbox size, Smin = [  56  56  196  ]
Chosen fftbox size, S = [  56  56  196  ]

---------- Exchange Correlation functional ----------
Initialized LibXC exchange functional 'Hammer, Hansen, and Norskov'
Initialized LibXC correlation functional 'Perdew, Burke & Ernzerhof'

---------- Setting up pseudopotentials ----------
Width of ionic core gaussian charges (only for fluid interactions / plotting) set to 0

Reading pseudopotential file '/data2/jt577/jdftx_eat_withLibXC/build/pseudopotentials/SG15/Ni_ONCV_PBE.upf':
  'Ni' pseudopotential, 'PBE' functional
  Generated using ONCVPSP code by D. R. Hamann
  Author: Martin Schlipf and Francois Gygi  Date: 150915.
  18 valence electrons, 4 orbitals, 6 projectors, 1292 radial grid points, with lMax = 2
  Transforming local potential to a uniform radial grid of dG=0.02 with 1368 points.
  Transforming nonlocal projectors to a uniform radial grid of dG=0.02 with 528 points.
    3S    l: 0   occupation:  2.0   eigenvalue: -4.081355
    3P    l: 1   occupation:  6.0   eigenvalue: -2.623460
    4S    l: 0   occupation:  2.0   eigenvalue: -0.207378
    3D    l: 2   occupation:  8.0   eigenvalue: -0.326118
  Transforming atomic orbitals to a uniform radial grid of dG=0.02 with 528 points.
  WARNING: large normalization error in atomic orbital 1s (integral: 0.000006).
  Core radius for overlap checks: 1.99 bohrs.
  Reading pulay file /data2/jt577/jdftx_eat_withLibXC/build/pseudopotentials/SG15/Ni_ONCV_PBE.pulay ... using dE_dnG = -7.250568e-04 computed for Ecut = 30.

Reading pseudopotential file '/data2/jt577/jdftx_eat_withLibXC/build/pseudopotentials/SG15/O_ONCV_PBE.upf':
  'O' pseudopotential, 'PBE' functional
  Generated using ONCVPSP code by D. R. Hamann
  Author: Martin Schlipf and Francois Gygi  Date: 150915.
  6 valence electrons, 2 orbitals, 4 projectors, 936 radial grid points, with lMax = 1
  Transforming local potential to a uniform radial grid of dG=0.02 with 1368 points.
  Transforming nonlocal projectors to a uniform radial grid of dG=0.02 with 528 points.
    2S    l: 0   occupation:  2.0   eigenvalue: -0.880572
    2P    l: 1   occupation:  4.0   eigenvalue: -0.331869
  Transforming atomic orbitals to a uniform radial grid of dG=0.02 with 528 points.
  Core radius for overlap checks: 1.29 bohrs.
  Reading pulay file /data2/jt577/jdftx_eat_withLibXC/build/pseudopotentials/SG15/O_ONCV_PBE.pulay ... using dE_dnG = -8.209514e-03 computed for Ecut = 30.

Initialized 2 species with 33 total atoms.

Folded 1 k-points by 3x3x1 to 9 k-points.

---------- Setting up k-points, bands, fillings ----------
No reducable k-points. 
Computing the number of bands and number of electrons
Calculating initial fillings.
nElectrons: 390.000000   nBands: 228   nStates: 9

----- Setting up reduced wavefunction bases (one per k-point) -----
average nbasis = 38425.778 , ideal nbasis = 38402.061

---------- Setting up ewald sum ----------
Optimum gaussian width for ewald sums = 3.781673 bohr.
Real space sum over 605 unit cells with max indices [  5  5  2  ]
Reciprocal space sum over 5915 terms with max indices [  6  6  17  ]

---------- Allocating electronic variables ----------
Initializing wave functions:  linear combination of atomic orbitals
Ni pseudo-atom occupations:   s ( 2 0 )  p ( 6 )  d ( 10 )
O pseudo-atom occupations:   s ( 2 )  p ( 4 )
	FillingsUpdate:  mu: +1.786575990  nElectrons: 390.000000
LCAOMinimize: Iter:   0  F: -2504.2596983758858187  |grad|_K:  3.366e-02  alpha:  1.000e+00
LCAOMinimize: 	Step increased F by 4.518683e+01, reducing alpha to 4.534675e-02.
LCAOMinimize: 	Step increased F by 4.950136e+00, reducing alpha to 4.534675e-03.
	FillingsUpdate:  mu: +1.627542432  nElectrons: 390.000000
LCAOMinimize: Iter:   1  F: -2507.5986171822810320  |grad|_K:  3.534e-02  alpha:  4.535e-03  linmin: -1.296e-01  cgtest:  7.962e-01  t[s]:     64.03
LCAOMinimize: 	Wrong curvature in test step, increasing alphaT to 1.360402e-02.
	FillingsUpdate:  mu: +1.305063209  nElectrons: 390.000000
LCAOMinimize: Iter:   2  F: -2511.7089318835642189  |grad|_K:  3.030e-02  alpha: -1.273e-02  linmin: -1.991e-01  cgtest:  9.036e-01  t[s]:     77.03
LCAOMinimize: Encountered beta<0, resetting CG.
LCAOMinimize: 	Step increased F by 4.003391e+01, reducing alpha to 4.482943e-02.
LCAOMinimize: 	Step increased F by 4.587525e+00, reducing alpha to 4.482943e-03.
	FillingsUpdate:  mu: +1.105137549  nElectrons: 390.000000
LCAOMinimize: Iter:   3  F: -2513.5766098144199532  |grad|_K:  2.782e-02  alpha:  4.483e-03  linmin: -1.868e-01  cgtest:  9.044e-01  t[s]:    111.93
LCAOMinimize: 	Wrong curvature in test step, increasing alphaT to 1.344883e-02.
	FillingsUpdate:  mu: +0.846729809  nElectrons: 390.000000
LCAOMinimize: Iter:   4  F: -2515.4043092717915897  |grad|_K:  2.667e-02  alpha: -2.239e-02  linmin: -1.766e-01  cgtest:  8.152e-01  t[s]:    125.05
LCAOMinimize: 	Step increased F by 4.140899e+01, reducing alpha to 4.401000e-02.
LCAOMinimize: 	Step increased F by 6.184672e+00, reducing alpha to 4.401000e-03.
	FillingsUpdate:  mu: +0.554741015  nElectrons: 390.000000
LCAOMinimize: Iter:   5  F: -2516.9275429068943595  |grad|_K:  1.882e-02  alpha:  4.401e-03  linmin: -1.990e-01  cgtest:  9.289e-01  t[s]:    159.62
LCAOMinimize: Encountered beta<0, resetting CG.
LCAOMinimize: 	Predicted alpha/alphaT>3.000000, increasing alphaT to 1.320300e-02.
	FillingsUpdate:  mu: -0.141268110  nElectrons: 390.000000
LCAOMinimize: Iter:   6  F: -2519.3857930569947712  |grad|_K:  1.026e-02  alpha:  2.764e-02  linmin: -1.337e-02  cgtest: -4.136e-01  t[s]:    177.86
	FillingsUpdate:  mu: -0.051469472  nElectrons: 390.000000
LCAOMinimize: Iter:   7  F: -2519.7001067485011845  |grad|_K:  7.769e-03  alpha:  8.610e-03  linmin: -2.510e-02  cgtest:  6.986e-01  t[s]:    192.16
LCAOMinimize: 	Predicted alpha/alphaT>3.000000, increasing alphaT to 2.583131e-02.
	FillingsUpdate:  mu: -0.095605107  nElectrons: 390.000000
LCAOMinimize: Iter:   8  F: -2520.0529806898839524  |grad|_K:  2.668e-03  alpha:  2.392e-02  linmin:  1.912e-02  cgtest: -5.821e-02  t[s]:    210.30
	FillingsUpdate:  mu: -0.110395926  nElectrons: 390.000000
LCAOMinimize: Iter:   9  F: -2520.0709492718656293  |grad|_K:  1.256e-03  alpha:  1.176e-02  linmin: -7.107e-04  cgtest:  4.727e-02  t[s]:    224.69
LCAOMinimize: 	Wrong curvature in test step, increasing alphaT to 3.529345e-02.
	FillingsUpdate:  mu: -0.111584482  nElectrons: 390.000000
LCAOMinimize: Iter:  10  F: -2520.0798791280813020  |grad|_K:  1.247e-03  alpha: -9.485e-01  linmin: -9.657e-03  cgtest:  9.482e-01  t[s]:    237.71
	FillingsUpdate:  mu: -0.114106695  nElectrons: 390.000000
LCAOMinimize: Iter:  11  F: -2520.0955016829771012  |grad|_K:  1.608e-03  alpha:  2.744e-02  linmin: -3.410e-03  cgtest:  2.760e-01  t[s]:    252.23
LCAOMinimize: 	Predicted alpha/alphaT>3.000000, increasing alphaT to 8.230929e-02.
	FillingsUpdate:  mu: -0.109057995  nElectrons: 390.000000
LCAOMinimize: Iter:  12  F: -2520.1654602106327729  |grad|_K:  3.777e-03  alpha:  8.842e-02  linmin:  1.013e-03  cgtest: -4.121e-01  t[s]:    270.71
	FillingsUpdate:  mu: -0.101302058  nElectrons: 390.000000
LCAOMinimize: Iter:  13  F: -2520.1868625666870685  |grad|_K:  3.762e-03  alpha:  1.017e-02  linmin: -1.726e-04  cgtest:  7.495e-01  t[s]:    285.07
	FillingsUpdate:  mu: -0.076223034  nElectrons: 390.000000
LCAOMinimize: Iter:  14  F: -2520.2604217399530171  |grad|_K:  1.350e-03  alpha:  2.090e-02  linmin: -2.223e-03  cgtest: -7.306e-02  t[s]:    299.95
	FillingsUpdate:  mu: -0.084341718  nElectrons: 390.000000
LCAOMinimize: Iter:  15  F: -2520.2758670406437886  |grad|_K:  8.432e-04  alpha:  3.379e-02  linmin:  1.497e-03  cgtest: -4.904e-01  t[s]:    314.91
	FillingsUpdate:  mu: -0.088792711  nElectrons: 390.000000
LCAOMinimize: Iter:  16  F: -2520.2806867556846555  |grad|_K:  1.541e-03  alpha:  3.304e-02  linmin:  1.426e-04  cgtest:  3.190e-01  t[s]:    329.41
	FillingsUpdate:  mu: -0.071441631  nElectrons: 390.000000
LCAOMinimize: Iter:  17  F: -2520.2960872932994789  |grad|_K:  1.118e-03  alpha:  2.729e-02  linmin:  3.255e-04  cgtest: -6.799e-02  t[s]:    343.83
	FillingsUpdate:  mu: -0.063451072  nElectrons: 390.000000
LCAOMinimize: Iter:  18  F: -2520.3037312629367079  |grad|_K:  1.196e-03  alpha:  2.736e-02  linmin: -1.607e-04  cgtest:  2.002e-01  t[s]:    358.14
	FillingsUpdate:  mu: -0.067783200  nElectrons: 390.000000
LCAOMinimize: Iter:  19  F: -2520.3111667292237144  |grad|_K:  9.529e-04  alpha:  2.153e-02  linmin: -3.594e-05  cgtest: -1.959e-01  t[s]:    372.20
	FillingsUpdate:  mu: -0.069608182  nElectrons: 390.000000
LCAOMinimize: Iter:  20  F: -2520.3137130679888287  |grad|_K:  4.513e-04  alpha:  1.170e-02  linmin: -4.334e-05  cgtest:  1.225e-01  t[s]:    386.39
	FillingsUpdate:  mu: -0.065631658  nElectrons: 390.000000
LCAOMinimize: Iter:  21  F: -2520.3152586094961407  |grad|_K:  2.259e-04  alpha:  3.188e-02  linmin: -2.130e-04  cgtest:  2.051e-02  t[s]:    401.14
	FillingsUpdate:  mu: -0.066772206  nElectrons: 390.000000
LCAOMinimize: Iter:  22  F: -2520.3154563332964244  |grad|_K:  2.527e-04  alpha:  1.628e-02  linmin:  6.859e-06  cgtest: -1.464e-02  t[s]:    415.47
LCAOMinimize: 	Predicted alpha/alphaT>3.000000, increasing alphaT to 4.884417e-02.
	FillingsUpdate:  mu: -0.067030599  nElectrons: 390.000000
LCAOMinimize: Iter:  23  F: -2520.3162085139979354  |grad|_K:  2.212e-04  alpha:  4.998e-02  linmin:  3.880e-05  cgtest:  3.597e-02  t[s]:    433.65
	FillingsUpdate:  mu: -0.065126100  nElectrons: 390.000000
LCAOMinimize: Iter:  24  F: -2520.3169852415499008  |grad|_K:  4.440e-04  alpha:  6.773e-02  linmin:  1.507e-05  cgtest:  8.553e-03  t[s]:    447.83
	FillingsUpdate:  mu: -0.066574807  nElectrons: 390.000000
LCAOMinimize: Iter:  25  F: -2520.3176472312811711  |grad|_K:  2.837e-04  alpha:  1.350e-02  linmin: -2.584e-04  cgtest:  9.834e-02  t[s]:    462.31
	FillingsUpdate:  mu: -0.067917124  nElectrons: 390.000000
LCAOMinimize: Iter:  26  F: -2520.3180921763150764  |grad|_K:  1.302e-04  alpha:  2.242e-02  linmin: -4.956e-05  cgtest: -1.391e-01  t[s]:    476.84
	FillingsUpdate:  mu: -0.067139154  nElectrons: 390.000000
LCAOMinimize: Iter:  27  F: -2520.3182291771713608  |grad|_K:  1.354e-04  alpha:  3.409e-02  linmin: -5.049e-06  cgtest:  1.330e-02  t[s]:    491.21
	FillingsUpdate:  mu: -0.067371419  nElectrons: 390.000000
LCAOMinimize: Iter:  28  F: -2520.3182705104136403  |grad|_K:  5.726e-05  alpha:  9.535e-03  linmin: -2.069e-05  cgtest:  5.502e-03  t[s]:    505.59
LCAOMinimize: 	Predicted alpha/alphaT>3.000000, increasing alphaT to 2.860420e-02.
	FillingsUpdate:  mu: -0.067780411  nElectrons: 390.000000
LCAOMinimize: Iter:  29  F: -2520.3183033626000906  |grad|_K:  3.989e-05  alpha:  4.241e-02  linmin: -2.306e-06  cgtest: -2.078e-03  t[s]:    523.87
	FillingsUpdate:  mu: -0.067835796  nElectrons: 390.000000
LCAOMinimize: Iter:  30  F: -2520.3183151839507445  |grad|_K:  6.701e-05  alpha:  3.147e-02  linmin:  8.401e-07  cgtest:  1.169e-04  t[s]:    538.11
LCAOMinimize: None of the convergence criteria satisfied after 30 iterations.


---- Citations for features of the code used in this run ----

   Software package:
      R. Sundararaman, K. Letchworth-Weaver, K.A. Schwarz, D. Gunceler, Y. Ozhabes and T.A. Arias, 'JDFTx: software for joint density-functional theory', SoftwareX 6, 278 (2017)

   LibXC library of exchange-correlation functions:
      M. A. L. Marques, M. J. T. Oliveira and T. Burnus, Comput. Phys. Commun. 183, 2272 (2012)

   Hammer, Hansen, and Norskov exchange functional:
      B. Hammer, L. B. Hansen, and J. K. Nørskov, Phys. Rev. B 59, 7413 (1999)

   Perdew, Burke & Ernzerhof correlation functional:
      J. P. Perdew, K. Burke, and M. Ernzerhof, Phys. Rev. Lett. 77, 3865 (1996)

   Pseudopotentials:
      M Schlipf and F Gygi, Comput. Phys. Commun. 196, 36 (2015)

   Total energy minimization with Auxiliary Hamiltonian:
      C. Freysoldt, S. Boeck, and J. Neugebauer, Phys. Rev. B 79, 241103(R) (2009)

This list may not be complete. Please suggest additional citations or
report any other bugs at https://github.com/shankar1729/jdftx/issues

Initialization completed successfully at t[s]:    543.50


-------- Electronic minimization -----------
	FillingsUpdate:  mu: -0.067835796  nElectrons: 390.000000
ElecMinimize: Iter:   0  F: -2520.318315183947561  |grad|_K:  2.472e-03  alpha:  1.000e+00
	FillingsUpdate:  mu: +1.017087450  nElectrons: 390.000000
	SubspaceRotationAdjust: set factor to 1
ElecMinimize: Iter:   1  F: -2641.751130693496634  |grad|_K:  3.137e-03  alpha:  4.776e-01  linmin:  1.160e-01  t[s]:    589.78
ElecMinimize: 	Step increased F by 1.956784e+01, reducing alpha to 1.918651e-02.
	FillingsUpdate:  mu: +0.927346955  nElectrons: 390.000000
	SubspaceRotationAdjust: set factor to 0.977
ElecMinimize: Iter:   2  F: -2649.286806152178997  |grad|_K:  1.975e-03  alpha:  1.919e-02  linmin: -2.514e-03  t[s]:    642.15
ElecMinimize: 	Predicted alpha/alphaT>3.000000, increasing alphaT to 5.755953e-02.
	FillingsUpdate:  mu: +1.646145394  nElectrons: 390.000000
	SubspaceRotationAdjust: set factor to 0.575
ElecMinimize: Iter:   3  F: -2683.890149203058172  |grad|_K:  3.210e-03  alpha:  9.070e-02  linmin: -1.438e-03  t[s]:    683.21
	FillingsUpdate:  mu: +1.857622230  nElectrons: 390.000000
	SubspaceRotationAdjust: set factor to 0.28
ElecMinimize: Iter:   4  F: -2691.838356766064408  |grad|_K:  2.625e-03  alpha:  3.017e-02  linmin:  2.295e-03  t[s]:    714.94
	FillingsUpdate:  mu: +1.257770788  nElectrons: 390.000000
	SubspaceRotationAdjust: set factor to 0.377
ElecMinimize: Iter:   5  F: -2697.047620881960938  |grad|_K:  1.904e-03  alpha:  2.362e-02  linmin: -2.913e-04  t[s]:    746.15
	FillingsUpdate:  mu: +0.185027480  nElectrons: 390.000000
	SubspaceRotationAdjust: set factor to 0.366
ElecMinimize: Iter:   6  F: -2705.024602087486073  |grad|_K:  1.406e-03  alpha:  2.532e-02  linmin: -3.250e-04  t[s]:    777.33
	FillingsUpdate:  mu: +0.798135031  nElectrons: 390.000000
	SubspaceRotationAdjust: set factor to 0.381
ElecMinimize: Iter:   7  F: -2716.477512034452047  |grad|_K:  1.106e-03  alpha:  5.670e-02  linmin: -1.243e-03  t[s]:    808.82
	FillingsUpdate:  mu: +0.385982432  nElectrons: 390.000000
	SubspaceRotationAdjust: set factor to 0.493
ElecMinimize: Iter:   8  F: -2725.069551698099076  |grad|_K:  7.291e-04  alpha:  7.214e-02  linmin:  4.827e-04  t[s]:    840.47
	FillingsUpdate:  mu: +0.514862940  nElectrons: 390.000000
	SubspaceRotationAdjust: set factor to 0.456
ElecMinimize: Iter:   9  F: -2726.713327725733961  |grad|_K:  7.919e-04  alpha:  5.013e-02  linmin:  7.521e-05  t[s]:    872.01
	FillingsUpdate:  mu: +0.210273966  nElectrons: 390.000000
	SubspaceRotationAdjust: set factor to 0.662
ElecMinimize: Iter:  10  F: -2729.747080736727639  |grad|_K:  5.818e-04  alpha:  6.881e-02  linmin:  7.851e-04  t[s]:    903.31
	FillingsUpdate:  mu: +0.315432520  nElectrons: 390.000000
	SubspaceRotationAdjust: set factor to 0.703
ElecMinimize: Iter:  11  F: -2730.707064685973364  |grad|_K:  5.337e-04  alpha:  5.144e-02  linmin: -1.534e-04  t[s]:    934.80
	FillingsUpdate:  mu: +0.338723292  nElectrons: 390.000000
	SubspaceRotationAdjust: set factor to 0.475
ElecMinimize: Iter:  12  F: -2732.221371164096581  |grad|_K:  5.406e-04  alpha:  7.953e-02  linmin:  8.127e-04  t[s]:    966.04
	FillingsUpdate:  mu: +0.319027578  nElectrons: 390.000000
	SubspaceRotationAdjust: set factor to 0.675
ElecMinimize: Iter:  13  F: -2732.528596170212495  |grad|_K:  4.505e-04  alpha:  2.070e-02  linmin: -1.458e-04  t[s]:    997.25
	FillingsUpdate:  mu: +0.410454371  nElectrons: 390.000000
	SubspaceRotationAdjust: set factor to 0.405
ElecMinimize: Iter:  14  F: -2733.216354306934136  |grad|_K:  8.180e-04  alpha:  5.153e-02  linmin:  6.401e-04  t[s]:   1028.65
	FillingsUpdate:  mu: +0.398764307  nElectrons: 390.000000
	SubspaceRotationAdjust: set factor to 0.262
ElecMinimize: Iter:  15  F: -2733.405889650898644  |grad|_K:  6.982e-04  alpha:  8.534e-03  linmin:  7.976e-05  t[s]:   1060.49
	FillingsUpdate:  mu: +0.323469195  nElectrons: 390.000000
	SubspaceRotationAdjust: set factor to 0.255
ElecMinimize: Iter:  16  F: -2733.784415755569626  |grad|_K:  4.748e-04  alpha:  1.056e-02  linmin:  1.335e-05  t[s]:   1091.63
	FillingsUpdate:  mu: +0.160758296  nElectrons: 390.000000
	SubspaceRotationAdjust: set factor to 0.303
ElecMinimize: Iter:  17  F: -2734.097088802320286  |grad|_K:  4.178e-04  alpha:  1.763e-02  linmin: -8.572e-06  t[s]:   1122.72
	FillingsUpdate:  mu: +0.319332280  nElectrons: 390.000000
	SubspaceRotationAdjust: set factor to 0.222
ElecMinimize: Iter:  18  F: -2734.386186242231815  |grad|_K:  5.133e-04  alpha:  2.095e-02  linmin:  3.819e-05  t[s]:   1153.84
	FillingsUpdate:  mu: +0.393627891  nElectrons: 390.000000
	SubspaceRotationAdjust: set factor to 0.141
ElecMinimize: Iter:  19  F: -2734.841729800696612  |grad|_K:  5.741e-04  alpha:  2.270e-02  linmin:  1.047e-04  t[s]:   1185.21
	FillingsUpdate:  mu: +0.354205590  nElectrons: 390.000000
	SubspaceRotationAdjust: set factor to 0.117
	SubspaceRotationAdjust: resetting CG because factor has changed by 0.116971
ElecMinimize: 	State modified externally: resetting search direction.
ElecMinimize: Iter:  20  F: -2735.150925116405688  |grad|_K:  4.189e-04  alpha:  1.263e-02
ElecMinimize: 	Predicted alpha/alphaT>3.000000, increasing alphaT to 3.789171e-02.
	FillingsUpdate:  mu: +0.211268670  nElectrons: 390.000000
	SubspaceRotationAdjust: set factor to 0.0488
ElecMinimize: Iter:  21  F: -2736.175343030391105  |grad|_K:  2.047e-04  alpha:  7.125e-02  linmin: -9.286e-03  t[s]:   1271.11
	FillingsUpdate:  mu: +0.108071323  nElectrons: 390.000000
	SubspaceRotationAdjust: set factor to 0.0524
ElecMinimize: Iter:  22  F: -2736.650981921520724  |grad|_K:  6.987e-05  alpha:  1.312e-01  linmin: -1.883e-03  t[s]:   1302.92
	FillingsUpdate:  mu: +0.115820750  nElectrons: 390.000000
	SubspaceRotationAdjust: set factor to 0.0608
ElecMinimize: Iter:  23  F: -2736.762949211781688  |grad|_K:  5.250e-05  alpha:  2.821e-01  linmin: -5.181e-05  t[s]:   1334.38
	FillingsUpdate:  mu: +0.121878214  nElectrons: 390.000000
	SubspaceRotationAdjust: set factor to 0.0597
ElecMinimize: Iter:  24  F: -2736.830735948119127  |grad|_K:  4.773e-05  alpha:  3.106e-01  linmin:  1.395e-05  t[s]:   1365.55
	FillingsUpdate:  mu: +0.117021566  nElectrons: 390.000000
	SubspaceRotationAdjust: set factor to 0.06
ElecMinimize: Iter:  25  F: -2736.894587001146192  |grad|_K:  5.052e-05  alpha:  3.548e-01  linmin: -1.106e-04  t[s]:   1396.93
	FillingsUpdate:  mu: +0.108140592  nElectrons: 390.000000
	SubspaceRotationAdjust: set factor to 0.0684
ElecMinimize: Iter:  26  F: -2736.975567669782322  |grad|_K:  5.048e-05  alpha:  3.933e-01  linmin: -1.567e-04  t[s]:   1428.24
	FillingsUpdate:  mu: +0.104391984  nElectrons: 390.000000
	SubspaceRotationAdjust: set factor to 0.0766
ElecMinimize: Iter:  27  F: -2737.066014320826980  |grad|_K:  5.449e-05  alpha:  4.330e-01  linmin: -4.406e-05  t[s]:   1459.84
	FillingsUpdate:  mu: +0.099333890  nElectrons: 390.000000
	SubspaceRotationAdjust: set factor to 0.0818
ElecMinimize: Iter:  28  F: -2737.161119926360698  |grad|_K:  5.598e-05  alpha:  4.006e-01  linmin: -1.176e-04  t[s]:   1491.24
	FillingsUpdate:  mu: +0.119465355  nElectrons: 390.000000
	SubspaceRotationAdjust: set factor to 0.0726
ElecMinimize: Iter:  29  F: -2737.240361639824187  |grad|_K:  6.807e-05  alpha:  2.656e-01  linmin: -1.676e-04  t[s]:   1522.81
	FillingsUpdate:  mu: +0.147316965  nElectrons: 390.000000
	SubspaceRotationAdjust: set factor to 0.0738
ElecMinimize: Iter:  30  F: -2737.359086477050369  |grad|_K:  9.803e-05  alpha:  3.099e-01  linmin:  1.314e-04  t[s]:   1553.93
	FillingsUpdate:  mu: +0.146659359  nElectrons: 390.000000
	SubspaceRotationAdjust: set factor to 0.0838
ElecMinimize: Iter:  31  F: -2737.380179729412703  |grad|_K:  9.620e-05  alpha:  4.251e-02  linmin: -1.086e-03  t[s]:   1585.82
ElecMinimize: 	Predicted alpha/alphaT>3.000000, increasing alphaT to 1.275257e-01.
	FillingsUpdate:  mu: +0.258059256  nElectrons: 390.000000
	SubspaceRotationAdjust: set factor to 0.0717
ElecMinimize: Iter:  32  F: -2737.508780616672539  |grad|_K:  1.315e-04  alpha:  1.791e-01  linmin:  3.386e-03  t[s]:   1625.72
ElecMinimize: 	Bad step direction: g.d > 0.
ElecMinimize: 	Undoing step.
ElecMinimize: 	Step failed: resetting search direction.
	FillingsUpdate:  mu: +0.258059256  nElectrons: 390.000000
	SubspaceRotationAdjust: set factor to 0.0657
ElecMinimize: Iter:  33  F: -2737.508780616672084  |grad|_K:  1.258e-04  alpha:  0.000e+00
	FillingsUpdate:  mu: +0.170343533  nElectrons: 390.000000
	SubspaceRotationAdjust: set factor to 0.0482
ElecMinimize: Iter:  34  F: -2737.694796537208276  |grad|_K:  7.661e-05  alpha:  1.494e-01  linmin: -2.147e-03  t[s]:   1679.88
	FillingsUpdate:  mu: +0.096194292  nElectrons: 390.000000
	SubspaceRotationAdjust: set factor to 0.0361
ElecMinimize: Iter:  35  F: -2737.788696235712450  |grad|_K:  4.978e-05  alpha:  1.963e-01  linmin: -1.029e-02  t[s]:   1711.10
	FillingsUpdate:  mu: +0.119039285  nElectrons: 390.000000
	SubspaceRotationAdjust: set factor to 0.0398
ElecMinimize: Iter:  36  F: -2737.865645773625147  |grad|_K:  4.544e-05  alpha:  3.703e-01  linmin:  1.724e-04  t[s]:   1742.27
	FillingsUpdate:  mu: +0.123688503  nElectrons: 390.000000
	SubspaceRotationAdjust: set factor to 0.0358
ElecMinimize: Iter:  37  F: -2737.916301865344394  |grad|_K:  3.737e-05  alpha:  3.098e-01  linmin:  1.075e-03  t[s]:   1773.56
	FillingsUpdate:  mu: +0.112544628  nElectrons: 390.000000
	SubspaceRotationAdjust: set factor to 0.0366
ElecMinimize: Iter:  38  F: -2737.951535449392395  |grad|_K:  2.934e-05  alpha:  3.209e-01  linmin:  8.360e-04  t[s]:   1804.47
	FillingsUpdate:  mu: +0.110227062  nElectrons: 390.000000
	SubspaceRotationAdjust: set factor to 0.0382
ElecMinimize: Iter:  39  F: -2737.973021668822184  |grad|_K:  2.173e-05  alpha:  3.176e-01  linmin:  7.757e-04  t[s]:   1836.09
	FillingsUpdate:  mu: +0.114823204  nElectrons: 390.000000
	SubspaceRotationAdjust: set factor to 0.0373
ElecMinimize: Iter:  40  F: -2737.983212798792465  |grad|_K:  1.597e-05  alpha:  2.743e-01  linmin:  7.603e-04  t[s]:   1867.41
	FillingsUpdate:  mu: +0.112639847  nElectrons: 390.000000
	SubspaceRotationAdjust: set factor to 0.0418
ElecMinimize: Iter:  41  F: -2737.989477513630391  |grad|_K:  1.172e-05  alpha:  3.128e-01  linmin:  2.096e-04  t[s]:   1898.37
	FillingsUpdate:  mu: +0.113663524  nElectrons: 390.000000
	SubspaceRotationAdjust: set factor to 0.0464
ElecMinimize: Iter:  42  F: -2737.993222827424688  |grad|_K:  1.062e-05  alpha:  3.455e-01  linmin: -1.090e-04  t[s]:   1929.82
	FillingsUpdate:  mu: +0.115650098  nElectrons: 390.000000
	SubspaceRotationAdjust: set factor to 0.0483
ElecMinimize: Iter:  43  F: -2737.996264704858731  |grad|_K:  1.084e-05  alpha:  3.401e-01  linmin: -2.235e-04  t[s]:   1961.39
	FillingsUpdate:  mu: +0.114799155  nElectrons: 390.000000
	SubspaceRotationAdjust: set factor to 0.0538
ElecMinimize: Iter:  44  F: -2738.000104956738141  |grad|_K:  1.016e-05  alpha:  4.107e-01  linmin: -5.386e-04  t[s]:   1992.68
	FillingsUpdate:  mu: +0.114617435  nElectrons: 390.000000
	SubspaceRotationAdjust: set factor to 0.0612
ElecMinimize: Iter:  45  F: -2738.002943334116026  |grad|_K:  9.430e-06  alpha:  3.407e-01  linmin: -4.407e-04  t[s]:   2023.72
	FillingsUpdate:  mu: +0.115736176  nElectrons: 390.000000
	SubspaceRotationAdjust: set factor to 0.066
ElecMinimize: Iter:  46  F: -2738.005368769403958  |grad|_K:  9.296e-06  alpha:  3.379e-01  linmin: -3.871e-04  t[s]:   2054.98
	FillingsUpdate:  mu: +0.113590355  nElectrons: 390.000000
	SubspaceRotationAdjust: set factor to 0.0602
ElecMinimize: Iter:  47  F: -2738.007683919382998  |grad|_K:  1.055e-05  alpha:  3.316e-01  linmin: -3.514e-04  t[s]:   2086.10
	FillingsUpdate:  mu: +0.113605877  nElectrons: 390.000000
	SubspaceRotationAdjust: set factor to 0.0516
ElecMinimize: Iter:  48  F: -2738.010118058275566  |grad|_K:  1.011e-05  alpha:  2.690e-01  linmin: -2.177e-04  t[s]:   2117.34
	FillingsUpdate:  mu: +0.112773475  nElectrons: 390.000000
	SubspaceRotationAdjust: set factor to 0.0512
ElecMinimize: Iter:  49  F: -2738.013026691751747  |grad|_K:  9.637e-06  alpha:  3.520e-01  linmin: -2.149e-04  t[s]:   2148.44
	FillingsUpdate:  mu: +0.112651950  nElectrons: 390.000000
	SubspaceRotationAdjust: set factor to 0.0541
ElecMinimize: Iter:  50  F: -2738.015761125448535  |grad|_K:  8.984e-06  alpha:  3.640e-01  linmin: -8.258e-05  t[s]:   2179.47
	FillingsUpdate:  mu: +0.112239806  nElectrons: 390.000000
	SubspaceRotationAdjust: set factor to 0.0538
ElecMinimize: Iter:  51  F: -2738.018009330694895  |grad|_K:  8.630e-06  alpha:  3.491e-01  linmin:  2.909e-05  t[s]:   2210.59
	FillingsUpdate:  mu: +0.112343502  nElectrons: 390.000000
	SubspaceRotationAdjust: set factor to 0.0471
ElecMinimize: Iter:  52  F: -2738.019580091319312  |grad|_K:  7.131e-06  alpha:  2.673e-01  linmin:  3.392e-05  t[s]:   2241.99
	FillingsUpdate:  mu: +0.112605829  nElectrons: 390.000000
	SubspaceRotationAdjust: set factor to 0.0434
ElecMinimize: Iter:  53  F: -2738.020575620133968  |grad|_K:  5.539e-06  alpha:  2.482e-01  linmin:  6.836e-05  t[s]:   2273.02
	FillingsUpdate:  mu: +0.112851581  nElectrons: 390.000000
	SubspaceRotationAdjust: set factor to 0.0481
ElecMinimize: Iter:  54  F: -2738.021305130090241  |grad|_K:  4.521e-06  alpha:  3.023e-01  linmin:  6.854e-05  t[s]:   2304.03
	FillingsUpdate:  mu: +0.113127222  nElectrons: 390.000000
	SubspaceRotationAdjust: set factor to 0.05
ElecMinimize: Iter:  55  F: -2738.021801847038205  |grad|_K:  4.076e-06  alpha:  3.086e-01  linmin:  5.873e-05  t[s]:   2335.10
	FillingsUpdate:  mu: +0.112939568  nElectrons: 390.000000
	SubspaceRotationAdjust: set factor to 0.0493
ElecMinimize: Iter:  56  F: -2738.022146536339733  |grad|_K:  3.275e-06  alpha:  2.632e-01  linmin:  7.813e-05  t[s]:   2366.27
	FillingsUpdate:  mu: +0.112816865  nElectrons: 390.000000
	SubspaceRotationAdjust: set factor to 0.0561
ElecMinimize: Iter:  57  F: -2738.022388169714759  |grad|_K:  2.690e-06  alpha:  2.859e-01  linmin:  7.139e-05  t[s]:   2397.65
	FillingsUpdate:  mu: +0.112761252  nElectrons: 390.000000
	SubspaceRotationAdjust: set factor to 0.0675
ElecMinimize: Iter:  58  F: -2738.022564017547211  |grad|_K:  2.464e-06  alpha:  3.083e-01  linmin:  8.275e-05  t[s]:   2428.49
	FillingsUpdate:  mu: +0.112804148  nElectrons: 390.000000
	SubspaceRotationAdjust: set factor to 0.0758
ElecMinimize: Iter:  59  F: -2738.022718628707480  |grad|_K:  2.476e-06  alpha:  3.235e-01  linmin:  9.177e-05  t[s]:   2459.28
	FillingsUpdate:  mu: +0.112931343  nElectrons: 390.000000
	SubspaceRotationAdjust: set factor to 0.0727
ElecMinimize: Iter:  60  F: -2738.022839725037102  |grad|_K:  2.535e-06  alpha:  2.514e-01  linmin:  4.420e-05  t[s]:   2490.43
	FillingsUpdate:  mu: +0.112922051  nElectrons: 390.000000
	SubspaceRotationAdjust: set factor to 0.0673
ElecMinimize: Iter:  61  F: -2738.022951094477776  |grad|_K:  2.243e-06  alpha:  2.197e-01  linmin:  4.866e-05  t[s]:   2521.58
	FillingsUpdate:  mu: +0.113028168  nElectrons: 390.000000
	SubspaceRotationAdjust: set factor to 0.0707
ElecMinimize: Iter:  62  F: -2738.023064507002800  |grad|_K:  2.038e-06  alpha:  2.860e-01  linmin:  8.834e-06  t[s]:   2552.78
	FillingsUpdate:  mu: +0.113173244  nElectrons: 390.000000
	SubspaceRotationAdjust: set factor to 0.0768
ElecMinimize: Iter:  63  F: -2738.023171449582605  |grad|_K:  1.860e-06  alpha:  3.260e-01  linmin:  9.964e-06  t[s]:   2583.59
	FillingsUpdate:  mu: +0.113318761  nElectrons: 390.000000
	SubspaceRotationAdjust: set factor to 0.0848
ElecMinimize: Iter:  64  F: -2738.023254420633293  |grad|_K:  1.611e-06  alpha:  3.035e-01  linmin: -1.404e-05  t[s]:   2614.34
	FillingsUpdate:  mu: +0.113471201  nElectrons: 390.000000
	SubspaceRotationAdjust: set factor to 0.0961
ElecMinimize: Iter:  65  F: -2738.023314617661072  |grad|_K:  1.393e-06  alpha:  2.930e-01  linmin: -2.404e-05  t[s]:   2645.58
	FillingsUpdate:  mu: +0.113511796  nElectrons: 390.000000
	SubspaceRotationAdjust: set factor to 0.111
ElecMinimize: Iter:  66  F: -2738.023365521285541  |grad|_K:  1.332e-06  alpha:  3.311e-01  linmin: -2.739e-05  t[s]:   2676.89
	FillingsUpdate:  mu: +0.113498679  nElectrons: 390.000000
	SubspaceRotationAdjust: set factor to 0.118
ElecMinimize: Iter:  67  F: -2738.023406190578498  |grad|_K:  1.407e-06  alpha:  2.891e-01  linmin: -2.348e-05  t[s]:   2708.51
	FillingsUpdate:  mu: +0.113515604  nElectrons: 390.000000
	SubspaceRotationAdjust: set factor to 0.0991
ElecMinimize: Iter:  68  F: -2738.023429290698004  |grad|_K:  1.496e-06  alpha:  1.471e-01  linmin: -1.040e-05  t[s]:   2739.88
	FillingsUpdate:  mu: +0.113501447  nElectrons: 390.000000
	SubspaceRotationAdjust: set factor to 0.0947
ElecMinimize: Iter:  69  F: -2738.023457647329451  |grad|_K:  1.129e-06  alpha:  1.599e-01  linmin: -1.196e-05  t[s]:   2771.02
	FillingsUpdate:  mu: +0.113483366  nElectrons: 390.000000
	SubspaceRotationAdjust: set factor to 0.109
ElecMinimize: Iter:  70  F: -2738.023486665785640  |grad|_K:  1.012e-06  alpha:  2.874e-01  linmin: -4.453e-06  t[s]:   2802.19
	FillingsUpdate:  mu: +0.113525473  nElectrons: 390.000000
	SubspaceRotationAdjust: set factor to 0.123
ElecMinimize: Iter:  71  F: -2738.023512240127275  |grad|_K:  9.844e-07  alpha:  3.157e-01  linmin: -6.981e-07  t[s]:   2833.14
	FillingsUpdate:  mu: +0.113544650  nElectrons: 390.000000
	SubspaceRotationAdjust: set factor to 0.108
ElecMinimize: Iter:  72  F: -2738.023531152525265  |grad|_K:  1.191e-06  alpha:  2.467e-01  linmin:  4.747e-06  t[s]:   2864.35
	FillingsUpdate:  mu: +0.113493282  nElectrons: 390.000000
	SubspaceRotationAdjust: set factor to 0.0804
ElecMinimize: Iter:  73  F: -2738.023543270072878  |grad|_K:  9.721e-07  alpha:  1.082e-01  linmin:  4.377e-06  t[s]:   2896.22
	FillingsUpdate:  mu: +0.113384537  nElectrons: 390.000000
	SubspaceRotationAdjust: set factor to 0.0899
ElecMinimize: Iter:  74  F: -2738.023560990799524  |grad|_K:  7.956e-07  alpha:  2.374e-01  linmin:  7.423e-06  t[s]:   2927.44
	FillingsUpdate:  mu: +0.113383348  nElectrons: 390.000000
	SubspaceRotationAdjust: set factor to 0.0966
ElecMinimize: Iter:  75  F: -2738.023575379185786  |grad|_K:  7.788e-07  alpha:  2.879e-01  linmin:  3.454e-06  t[s]:   2958.42
	FillingsUpdate:  mu: +0.113390999  nElectrons: 390.000000
	SubspaceRotationAdjust: set factor to 0.0792
ElecMinimize: Iter:  76  F: -2738.023583969496030  |grad|_K:  8.254e-07  alpha:  1.793e-01  linmin:  8.912e-07  t[s]:   2989.81
	FillingsUpdate:  mu: +0.113341844  nElectrons: 390.000000
	SubspaceRotationAdjust: set factor to 0.0703
ElecMinimize: Iter:  77  F: -2738.023592769732659  |grad|_K:  5.971e-07  alpha:  1.634e-01  linmin:  1.508e-06  t[s]:   3021.14
	FillingsUpdate:  mu: +0.113341489  nElectrons: 390.000000
	SubspaceRotationAdjust: set factor to 0.0822
ElecMinimize: Iter:  78  F: -2738.023600822248682  |grad|_K:  5.129e-07  alpha:  2.856e-01  linmin: -2.414e-06  t[s]:   3052.09
	FillingsUpdate:  mu: +0.113372098  nElectrons: 390.000000
	SubspaceRotationAdjust: set factor to 0.0809
ElecMinimize: Iter:  79  F: -2738.023606066181401  |grad|_K:  5.092e-07  alpha:  2.520e-01  linmin: -2.243e-06  t[s]:   3083.08
	FillingsUpdate:  mu: +0.113369107  nElectrons: 390.000000
	SubspaceRotationAdjust: set factor to 0.0669
ElecMinimize: Iter:  80  F: -2738.023609503937678  |grad|_K:  4.420e-07  alpha:  1.676e-01  linmin: -7.584e-07  t[s]:   3114.47
	FillingsUpdate:  mu: +0.113356170  nElectrons: 390.000000
	SubspaceRotationAdjust: set factor to 0.0739
ElecMinimize: Iter:  81  F: -2738.023613020894572  |grad|_K:  3.443e-07  alpha:  2.275e-01  linmin: -1.962e-06  t[s]:   3145.70
	FillingsUpdate:  mu: +0.113356537  nElectrons: 390.000000
	SubspaceRotationAdjust: set factor to 0.0875
ElecMinimize: Iter:  82  F: -2738.023615629313554  |grad|_K:  3.002e-07  alpha:  2.781e-01  linmin:  2.142e-07  t[s]:   3176.94
	FillingsUpdate:  mu: +0.113360066  nElectrons: 390.000000
	SubspaceRotationAdjust: set factor to 0.0845
ElecMinimize: Iter:  83  F: -2738.023617304839718  |grad|_K:  3.136e-07  alpha:  2.352e-01  linmin:  1.844e-07  t[s]:   3208.20
	FillingsUpdate:  mu: +0.113357960  nElectrons: 390.000000
	SubspaceRotationAdjust: set factor to 0.0751
ElecMinimize: Iter:  84  F: -2738.023618551044365  |grad|_K:  2.587e-07  alpha:  1.602e-01  linmin: -1.046e-06  t[s]:   3239.12
	FillingsUpdate:  mu: +0.113346898  nElectrons: 390.000000
	SubspaceRotationAdjust: set factor to 0.088
ElecMinimize: Iter:  85  F: -2738.023619950053217  |grad|_K:  2.209e-07  alpha:  2.640e-01  linmin: -5.950e-06  t[s]:   3270.29
	FillingsUpdate:  mu: +0.113349618  nElectrons: 390.000000
	SubspaceRotationAdjust: set factor to 0.105
ElecMinimize: Iter:  86  F: -2738.023621139570878  |grad|_K:  2.095e-07  alpha:  3.078e-01  linmin:  1.583e-06  t[s]:   3301.57
	FillingsUpdate:  mu: +0.113353567  nElectrons: 390.000000
	SubspaceRotationAdjust: set factor to 0.103
ElecMinimize: Iter:  87  F: -2738.023622047953722  |grad|_K:  2.376e-07  alpha:  2.619e-01  linmin: -5.159e-07  t[s]:   3333.34
	FillingsUpdate:  mu: +0.113351809  nElectrons: 390.000000
	SubspaceRotationAdjust: set factor to 0.0852
ElecMinimize: Iter:  88  F: -2738.023622669286397  |grad|_K:  2.238e-07  alpha:  1.392e-01  linmin:  6.318e-07  t[s]:   3364.66
	FillingsUpdate:  mu: +0.113356527  nElectrons: 390.000000
	SubspaceRotationAdjust: set factor to 0.0924
ElecMinimize: Iter:  89  F: -2738.023623562135526  |grad|_K:  1.895e-07  alpha:  2.255e-01  linmin:  3.709e-07  t[s]:   3395.76
	FillingsUpdate:  mu: +0.113371094  nElectrons: 390.000000
	SubspaceRotationAdjust: set factor to 0.108
ElecMinimize: Iter:  90  F: -2738.023624484192624  |grad|_K:  1.840e-07  alpha:  3.247e-01  linmin: -2.805e-06  t[s]:   3426.98
	FillingsUpdate:  mu: +0.113373274  nElectrons: 390.000000
	SubspaceRotationAdjust: set factor to 0.114
ElecMinimize: Iter:  91  F: -2738.023625250865280  |grad|_K:  2.001e-07  alpha:  2.858e-01  linmin: -8.233e-07  t[s]:   3457.79
ElecMinimize: Converged (|Delta F|<1.000000e-06 for 5 iters).
Setting wave functions to eigenvectors of Hamiltonian

# Ionic positions in lattice coordinates:
ion Ni   0.000000000000000   0.000000000000000   0.150000000000000 1
ion Ni   0.500000000000000   0.000000000000000   0.150000000000000 1
ion Ni   0.000000000000000   0.500000000000000   0.150000000000000 1
ion Ni   0.500000000000000   0.500000000000000   0.150000000000000 1
ion Ni   0.250000000000000   0.250000000000000   0.050000000000000 1
ion Ni   0.250000000000000   0.750000000000000   0.050000000000000 1
ion Ni  -0.250000000000000   0.250000000000000   0.050000000000000 1
ion Ni  -0.250000000000000   0.750000000000000   0.050000000000000 1
ion Ni   0.000000000000000   0.000000000000000  -0.050000000000000 0
ion Ni   0.500000000000000   0.000000000000000  -0.050000000000000 0
ion Ni   0.000000000000000   0.500000000000000  -0.050000000000000 0
ion Ni   0.500000000000000   0.500000000000000  -0.050000000000000 0
ion Ni   0.250000000000000   0.250000000000000  -0.150000000000000 0
ion Ni   0.250000000000000   0.750000000000000  -0.150000000000000 0
ion Ni  -0.250000000000000   0.250000000000000  -0.150000000000000 0
ion Ni  -0.250000000000000   0.750000000000000  -0.150000000000000 0
ion O   0.250000000000000   0.250000000000000   0.150000000000000 1
ion O   0.250000000000000   0.750000000000000   0.150000000000000 1
ion O  -0.250000000000000   0.250000000000000   0.150000000000000 1
ion O  -0.250000000000000   0.750000000000000   0.150000000000000 1
ion O   0.000000000000000   0.000000000000000   0.050000000000000 1
ion O   0.500000000000000   0.000000000000000   0.050000000000000 1
ion O   0.000000000000000   0.500000000000000   0.050000000000000 1
ion O   0.500000000000000   0.500000000000000   0.050000000000000 1
ion O   0.250000000000000   0.250000000000000  -0.050000000000000 0
ion O   0.250000000000000   0.750000000000000  -0.050000000000000 0
ion O  -0.250000000000000   0.250000000000000  -0.050000000000000 0
ion O  -0.250000000000000   0.750000000000000  -0.050000000000000 0
ion O   0.000000000000000   0.000000000000000  -0.150000000000000 0
ion O   0.500000000000000   0.000000000000000  -0.150000000000000 0
ion O   0.000000000000000   0.500000000000000  -0.150000000000000 0
ion O   0.500000000000000   0.500000000000000  -0.150000000000000 0
ion O   0.000000000000000   0.000000000000000   0.230000000000000 1

# Forces in Lattice coordinates:
force Ni  -0.000001137974256   0.000000599282853   0.555300341140956 1
force Ni   0.000005823266153  -0.000000524219813   0.641488289688469 1
force Ni   0.000001786515103  -0.000014033484796   0.641548312699575 1
force Ni   0.000033037662354  -0.000014305107609   0.447918986284764 1
force Ni   0.011163476564626   0.011093945825878   0.290326340342051 1
force Ni   0.011154220855238  -0.011117341890342   0.290235523855492 1
force Ni  -0.011133355449515   0.011123564073015   0.290330510774832 1
force Ni  -0.011130708690287  -0.011127226127517   0.290445838409292 1
force Ni   0.000000412755210  -0.000005107164531  -0.690457588239263 0
force Ni  -0.000029652639797   0.000008985597408  -0.398962684923811 0
force Ni  -0.000006721269944   0.000023324467116  -0.399037038556168 0
force Ni   0.000011378847079   0.000005490481101  -0.287433317197158 0
force Ni  -0.003921981492908  -0.003954594802287  -0.534246323266836 0
force Ni  -0.003945104558340   0.003941627806359  -0.534346745925495 0
force Ni   0.003901550200948  -0.003939467684230  -0.534611431589981 0
force Ni   0.003933160555743   0.003916043067656  -0.534598366309857 0
force O   0.114025829238144   0.114135157556250  -0.625146658504306 1
force O   0.114278773972832  -0.114329331045186  -0.623899477260210 1
force O  -0.114233534192173   0.114116609494751  -0.623606530309736 1
force O  -0.114040545362527  -0.114008431797599  -0.624609395634124 1
force O   0.000011466725314   0.000084418978262   0.114019796354839 1
force O   0.000033152547687   0.000180938725955  -0.596167170660887 1
force O   0.000137902743469  -0.000229635669150  -0.596688640123925 1
force O   0.000004775732158   0.000078058059306  -0.535094369348139 1
force O   0.004989029788446   0.005125957201802   0.640123895918569 0
force O   0.005261754849657  -0.005460988268469   0.638478172234673 0
force O  -0.005340451518789   0.005485150858996   0.638221449456725 0
force O  -0.005083312632931  -0.005105446312731   0.639954179036736 0
force O  -0.000107212850922  -0.000111653308031   0.337240500767653 0
force O   0.000308661462608  -0.000241078922125   0.267023994732122 0
force O  -0.000109995296516  -0.000029823826054   0.268076074901678 0
force O  -0.000085967265082   0.000114372518181   0.272296530588392 0
force O   0.000040745561110   0.000011190794887   0.488860806563537 1

# Energy components:
   Eewald =     7284.5530789474723861
       EH =     9766.5100961135976831
     Eloc =   -19866.5342276950286760
      Enl =     -856.1125542658264749
   Epulay =        0.0007326944676329
      Exc =     -302.3658918616070537
       KE =     1235.9308043158384862
-------------------------------------
     Etot =    -2738.0179617510857497
       TS =        0.0056634997794410
-------------------------------------
        F =    -2738.0236252508652797

IonicMinimize: Iter:   0  F: -2738.023625250865280  |grad|_K:  8.554e-03  t[s]:   3466.66

#--- Lowdin population analysis ---
# oxidation-state Ni +3.793 +3.783 +3.783 +3.751 +3.463 +3.463 +3.463 +3.463 +3.467 +3.470 +3.470 +3.465 +3.731 +3.731 +3.731 +3.731
# oxidation-state O -0.558 -0.558 -0.558 -0.558 -0.592 -0.575 -0.576 -0.565 -0.574 -0.574 -0.574 -0.574 -0.563 -0.578 -0.578 -0.580 -0.421


-------- Electronic minimization -----------
	FillingsUpdate:  mu: +0.131951734  nElectrons: 390.000000
ElecMinimize: Iter:   0  F: -2737.772395058803795  |grad|_K:  1.340e-04  alpha:  1.000e+00
	FillingsUpdate:  mu: +0.111610940  nElectrons: 390.000000
	SubspaceRotationAdjust: set factor to 0.0966
ElecMinimize: Iter:   1  F: -2738.005637314744945  |grad|_K:  3.063e-05  alpha:  1.660e-01  linmin:  9.113e-03  t[s]:   3520.05
	FillingsUpdate:  mu: +0.120220449  nElectrons: 390.000000
	SubspaceRotationAdjust: set factor to 0.0597
ElecMinimize: Iter:   2  F: -2738.017837511170455  |grad|_K:  1.741e-05  alpha:  1.661e-01  linmin: -1.371e-03  t[s]:   3551.05
	FillingsUpdate:  mu: +0.118105867  nElectrons: 390.000000
	SubspaceRotationAdjust: set factor to 0.0447
ElecMinimize: Iter:   3  F: -2738.021108438811552  |grad|_K:  1.067e-05  alpha:  1.354e-01  linmin:  9.903e-05  t[s]:   3581.94
	FillingsUpdate:  mu: +0.113090538  nElectrons: 390.000000
	SubspaceRotationAdjust: set factor to 0.0366
ElecMinimize: Iter:   4  F: -2738.022635659219759  |grad|_K:  5.678e-06  alpha:  1.693e-01  linmin: -7.641e-04  t[s]:   3612.98
	FillingsUpdate:  mu: +0.113663832  nElectrons: 390.000000
	SubspaceRotationAdjust: set factor to 0.0457
ElecMinimize: Iter:   5  F: -2738.023362405871922  |grad|_K:  4.354e-06  alpha:  2.825e-01  linmin: -1.966e-05  t[s]:   3644.42
	FillingsUpdate:  mu: +0.114367734  nElectrons: 390.000000
	SubspaceRotationAdjust: set factor to 0.0431
ElecMinimize: Iter:   6  F: -2738.023742887156914  |grad|_K:  3.348e-06  alpha:  2.535e-01  linmin:  6.261e-05  t[s]:   3675.56
	FillingsUpdate:  mu: +0.113780179  nElectrons: 390.000000
	SubspaceRotationAdjust: set factor to 0.0525
ElecMinimize: Iter:   7  F: -2738.024055763353317  |grad|_K:  3.175e-06  alpha:  3.533e-01  linmin: -1.900e-05  t[s]:   3706.87
	FillingsUpdate:  mu: +0.113595326  nElectrons: 390.000000
	SubspaceRotationAdjust: set factor to 0.0612
ElecMinimize: Iter:   8  F: -2738.024336735811175  |grad|_K:  3.225e-06  alpha:  3.522e-01  linmin: -1.138e-05  t[s]:   3737.94
	FillingsUpdate:  mu: +0.113983435  nElectrons: 390.000000
	SubspaceRotationAdjust: set factor to 0.0613
ElecMinimize: Iter:   9  F: -2738.024655086261191  |grad|_K:  3.958e-06  alpha:  3.871e-01  linmin:  5.308e-05  t[s]:   3769.35
	FillingsUpdate:  mu: +0.113983766  nElectrons: 390.000000
	SubspaceRotationAdjust: set factor to 0.0559
ElecMinimize: Iter:  10  F: -2738.024988635371301  |grad|_K:  3.995e-06  alpha:  2.729e-01  linmin: -1.074e-05  t[s]:   3800.48
	FillingsUpdate:  mu: +0.113482856  nElectrons: 390.000000
	SubspaceRotationAdjust: set factor to 0.0558
ElecMinimize: Iter:  11  F: -2738.025497822531634  |grad|_K:  4.143e-06  alpha:  4.055e-01  linmin:  8.894e-05  t[s]:   3831.52
	FillingsUpdate:  mu: +0.113835861  nElectrons: 390.000000
	SubspaceRotationAdjust: set factor to 0.0592
ElecMinimize: Iter:  12  F: -2738.026003542391663  |grad|_K:  4.083e-06  alpha:  3.790e-01  linmin: -3.015e-06  t[s]:   3863.61
	FillingsUpdate:  mu: +0.113811662  nElectrons: 390.000000
	SubspaceRotationAdjust: set factor to 0.058
ElecMinimize: Iter:  13  F: -2738.026452078147940  |grad|_K:  3.581e-06  alpha:  3.406e-01  linmin: -3.912e-05  t[s]:   3895.05
	FillingsUpdate:  mu: +0.113596470  nElectrons: 390.000000
	SubspaceRotationAdjust: set factor to 0.0479
ElecMinimize: Iter:  14  F: -2738.026725392541721  |grad|_K:  3.185e-06  alpha:  2.659e-01  linmin:  3.008e-05  t[s]:   3925.63
	FillingsUpdate:  mu: +0.113403353  nElectrons: 390.000000
	SubspaceRotationAdjust: set factor to 0.0398
ElecMinimize: Iter:  15  F: -2738.026902778184649  |grad|_K:  2.355e-06  alpha:  2.227e-01  linmin: -2.771e-05  t[s]:   3957.61
	FillingsUpdate:  mu: +0.113685046  nElectrons: 390.000000
	SubspaceRotationAdjust: set factor to 0.0422
ElecMinimize: Iter:  16  F: -2738.027029985008539  |grad|_K:  1.699e-06  alpha:  2.891e-01  linmin:  1.391e-05  t[s]:   3988.64
	FillingsUpdate:  mu: +0.113611817  nElectrons: 390.000000
	SubspaceRotationAdjust: set factor to 0.0411
ElecMinimize: Iter:  17  F: -2738.027091790056147  |grad|_K:  1.322e-06  alpha:  2.712e-01  linmin:  1.130e-05  t[s]:   4020.45
	FillingsUpdate:  mu: +0.113374456  nElectrons: 390.000000
	SubspaceRotationAdjust: set factor to 0.0374
ElecMinimize: Iter:  18  F: -2738.027127474331337  |grad|_K:  9.665e-07  alpha:  2.586e-01  linmin: -1.116e-05  t[s]:   4051.55
	FillingsUpdate:  mu: +0.113420346  nElectrons: 390.000000
	SubspaceRotationAdjust: set factor to 0.0404
ElecMinimize: Iter:  19  F: -2738.027148606117862  |grad|_K:  7.484e-07  alpha:  2.859e-01  linmin:  5.943e-06  t[s]:   4082.73
	FillingsUpdate:  mu: +0.113486154  nElectrons: 390.000000
	SubspaceRotationAdjust: set factor to 0.0416
ElecMinimize: Iter:  20  F: -2738.027160997283318  |grad|_K:  5.628e-07  alpha:  2.798e-01  linmin:  9.860e-06  t[s]:   4113.70
	FillingsUpdate:  mu: +0.113417086  nElectrons: 390.000000
	SubspaceRotationAdjust: set factor to 0.0411
ElecMinimize: Iter:  21  F: -2738.027167960260613  |grad|_K:  4.500e-07  alpha:  2.781e-01  linmin: -2.864e-06  t[s]:   4145.05
	FillingsUpdate:  mu: +0.113373217  nElectrons: 390.000000
	SubspaceRotationAdjust: set factor to 0.0471
ElecMinimize: Iter:  22  F: -2738.027172489026270  |grad|_K:  3.455e-07  alpha:  2.827e-01  linmin:  1.059e-05  t[s]:   4176.10
	FillingsUpdate:  mu: +0.113393925  nElectrons: 390.000000
	SubspaceRotationAdjust: set factor to 0.0537
ElecMinimize: Iter:  23  F: -2738.027175513118436  |grad|_K:  3.032e-07  alpha:  3.205e-01  linmin:  6.286e-06  t[s]:   4207.41
	FillingsUpdate:  mu: +0.113393824  nElectrons: 390.000000
	SubspaceRotationAdjust: set factor to 0.0556
ElecMinimize: Iter:  24  F: -2738.027177623916032  |grad|_K:  2.864e-07  alpha:  2.904e-01  linmin:  2.351e-06  t[s]:   4238.87
	FillingsUpdate:  mu: +0.113379319  nElectrons: 390.000000
	SubspaceRotationAdjust: set factor to 0.0592
ElecMinimize: Iter:  25  F: -2738.027179584089481  |grad|_K:  2.659e-07  alpha:  3.023e-01  linmin:  3.729e-06  t[s]:   4269.83
	FillingsUpdate:  mu: +0.113389046  nElectrons: 390.000000
	SubspaceRotationAdjust: set factor to 0.0672
ElecMinimize: Iter:  26  F: -2738.027181567942080  |grad|_K:  2.573e-07  alpha:  3.549e-01  linmin: -1.881e-06  t[s]:   4300.92
	FillingsUpdate:  mu: +0.113403736  nElectrons: 390.000000
	SubspaceRotationAdjust: set factor to 0.0761
ElecMinimize: Iter:  27  F: -2738.027183477317521  |grad|_K:  2.510e-07  alpha:  3.646e-01  linmin:  5.495e-07  t[s]:   4331.80
	FillingsUpdate:  mu: +0.113408145  nElectrons: 390.000000
	SubspaceRotationAdjust: set factor to 0.0753
ElecMinimize: Iter:  28  F: -2738.027185106944671  |grad|_K:  2.625e-07  alpha:  3.270e-01  linmin:  2.609e-06  t[s]:   4363.01
	FillingsUpdate:  mu: +0.113427504  nElectrons: 390.000000
	SubspaceRotationAdjust: set factor to 0.06
ElecMinimize: Iter:  29  F: -2738.027186236761736  |grad|_K:  2.576e-07  alpha:  2.078e-01  linmin: -2.267e-07  t[s]:   4393.79
	FillingsUpdate:  mu: +0.113449325  nElectrons: 390.000000
	SubspaceRotationAdjust: set factor to 0.0532
ElecMinimize: Iter:  30  F: -2738.027187403986773  |grad|_K:  2.015e-07  alpha:  2.223e-01  linmin:  3.457e-07  t[s]:   4424.90
	FillingsUpdate:  mu: +0.113453218  nElectrons: 390.000000
	SubspaceRotationAdjust: set factor to 0.0587
ElecMinimize: Iter:  31  F: -2738.027188384554847  |grad|_K:  1.697e-07  alpha:  3.053e-01  linmin: -3.675e-06  t[s]:   4455.84
	FillingsUpdate:  mu: +0.113458898  nElectrons: 390.000000
	SubspaceRotationAdjust: set factor to 0.0582
ElecMinimize: Iter:  32  F: -2738.027189050747893  |grad|_K:  1.516e-07  alpha:  2.923e-01  linmin:  6.516e-07  t[s]:   4486.59
	FillingsUpdate:  mu: +0.113471541  nElectrons: 390.000000
	SubspaceRotationAdjust: set factor to 0.0502
ElecMinimize: Iter:  33  F: -2738.027189470091798  |grad|_K:  1.315e-07  alpha:  2.307e-01  linmin:  6.901e-07  t[s]:   4517.58
	FillingsUpdate:  mu: +0.113482678  nElectrons: 390.000000
	SubspaceRotationAdjust: set factor to 0.0533
ElecMinimize: Iter:  34  F: -2738.027189824077141  |grad|_K:  1.021e-07  alpha:  2.590e-01  linmin: -3.942e-06  t[s]:   4548.69
	FillingsUpdate:  mu: +0.113479719  nElectrons: 390.000000
	SubspaceRotationAdjust: set factor to 0.063
ElecMinimize: Iter:  35  F: -2738.027190082167181  |grad|_K:  8.888e-08  alpha:  3.129e-01  linmin:  5.165e-06  t[s]:   4579.91
ElecMinimize: Converged (|Delta F|<1.000000e-06 for 5 iters).
Setting wave functions to eigenvectors of Hamiltonian
IonicMinimize: 	Wolfe criterion not satisfied: alpha: 1  (E-E0)/|gdotd0|: -0.955204  gdotd/gdotd0: 0.938357 (taking cubic step)

-------- Electronic minimization -----------
	FillingsUpdate:  mu: +0.164341856  nElectrons: 390.000000
ElecMinimize: Iter:   0  F: -2737.011623276974206  |grad|_K:  2.690e-04  alpha:  1.000e+00
	FillingsUpdate:  mu: +0.133738998  nElectrons: 390.000000
	SubspaceRotationAdjust: set factor to 0.0515
ElecMinimize: Iter:   1  F: -2737.940997727657304  |grad|_K:  6.789e-05  alpha:  1.677e-01  linmin:  4.235e-02  t[s]:   4641.77
	FillingsUpdate:  mu: +0.134565132  nElectrons: 390.000000
	SubspaceRotationAdjust: set factor to 0.0272
ElecMinimize: Iter:   2  F: -2737.992160266421706  |grad|_K:  3.616e-05  alpha:  1.436e-01  linmin:  5.628e-03  t[s]:   4672.87
	FillingsUpdate:  mu: +0.118243994  nElectrons: 390.000000
	SubspaceRotationAdjust: set factor to 0.0318
ElecMinimize: Iter:   3  F: -2738.010355024021464  |grad|_K:  1.568e-05  alpha:  1.791e-01  linmin: -5.958e-04  t[s]:   4705.09
	FillingsUpdate:  mu: +0.117006349  nElectrons: 390.000000
	SubspaceRotationAdjust: set factor to 0.0342
ElecMinimize: Iter:   4  F: -2738.015404320442485  |grad|_K:  9.792e-06  alpha:  2.590e-01  linmin: -2.130e-04  t[s]:   4736.69
	FillingsUpdate:  mu: +0.114462769  nElectrons: 390.000000
	SubspaceRotationAdjust: set factor to 0.0315
ElecMinimize: Iter:   5  F: -2738.017643111919824  |grad|_K:  6.771e-06  alpha:  2.949e-01  linmin:  6.876e-05  t[s]:   4767.85
	FillingsUpdate:  mu: +0.114110721  nElectrons: 390.000000
	SubspaceRotationAdjust: set factor to 0.0374
ElecMinimize: Iter:   6  F: -2738.018949709294247  |grad|_K:  6.048e-06  alpha:  3.606e-01  linmin: -2.844e-05  t[s]:   4798.98
	FillingsUpdate:  mu: +0.114638114  nElectrons: 390.000000
	SubspaceRotationAdjust: set factor to 0.0455
ElecMinimize: Iter:   7  F: -2738.020023663531447  |grad|_K:  5.560e-06  alpha:  3.708e-01  linmin: -1.302e-05  t[s]:   4830.15
	FillingsUpdate:  mu: +0.114418247  nElectrons: 390.000000
	SubspaceRotationAdjust: set factor to 0.0492
ElecMinimize: Iter:   8  F: -2738.021166323642319  |grad|_K:  6.525e-06  alpha:  4.679e-01  linmin:  6.620e-05  t[s]:   4861.42
	FillingsUpdate:  mu: +0.114106920  nElectrons: 390.000000
	SubspaceRotationAdjust: set factor to 0.0483
ElecMinimize: Iter:   9  F: -2738.022427715165577  |grad|_K:  7.268e-06  alpha:  3.787e-01  linmin: -5.363e-05  t[s]:   4892.53
	FillingsUpdate:  mu: +0.115226619  nElectrons: 390.000000
	SubspaceRotationAdjust: set factor to 0.046
ElecMinimize: Iter:  10  F: -2738.024227977176906  |grad|_K:  8.056e-06  alpha:  4.304e-01  linmin:  1.729e-04  t[s]:   4923.58
	FillingsUpdate:  mu: +0.113309442  nElectrons: 390.000000
	SubspaceRotationAdjust: set factor to 0.0497
ElecMinimize: Iter:  11  F: -2738.026700938146860  |grad|_K:  8.314e-06  alpha:  4.942e-01  linmin: -8.467e-05  t[s]:   4954.67
	FillingsUpdate:  mu: +0.114432133  nElectrons: 390.000000
	SubspaceRotationAdjust: set factor to 0.0511
ElecMinimize: Iter:  12  F: -2738.029168719247537  |grad|_K:  8.025e-06  alpha:  4.447e-01  linmin: -4.139e-05  t[s]:   4985.34
	FillingsUpdate:  mu: +0.115825664  nElectrons: 390.000000
	SubspaceRotationAdjust: set factor to 0.0486
ElecMinimize: Iter:  13  F: -2738.030822046438061  |grad|_K:  7.200e-06  alpha:  3.134e-01  linmin:  1.922e-05  t[s]:   5016.75
	FillingsUpdate:  mu: +0.114161024  nElectrons: 390.000000
	SubspaceRotationAdjust: set factor to 0.0388
ElecMinimize: Iter:  14  F: -2738.031956755460669  |grad|_K:  5.885e-06  alpha:  2.795e-01  linmin: -1.270e-04  t[s]:   5048.65
	FillingsUpdate:  mu: +0.113606084  nElectrons: 390.000000
	SubspaceRotationAdjust: set factor to 0.035
ElecMinimize: Iter:  15  F: -2738.032665894219917  |grad|_K:  4.050e-06  alpha:  2.533e-01  linmin:  6.295e-05  t[s]:   5080.06
	FillingsUpdate:  mu: +0.114068171  nElectrons: 390.000000
	SubspaceRotationAdjust: set factor to 0.0385
ElecMinimize: Iter:  16  F: -2738.033106498353845  |grad|_K:  2.966e-06  alpha:  3.421e-01  linmin: -3.424e-06  t[s]:   5111.93
	FillingsUpdate:  mu: +0.113884069  nElectrons: 390.000000
	SubspaceRotationAdjust: set factor to 0.0366
ElecMinimize: Iter:  17  F: -2738.033325381817576  |grad|_K:  2.363e-06  alpha:  3.145e-01  linmin: -2.175e-05  t[s]:   5143.07
	FillingsUpdate:  mu: +0.113670546  nElectrons: 390.000000
	SubspaceRotationAdjust: set factor to 0.0343
ElecMinimize: Iter:  18  F: -2738.033453411243499  |grad|_K:  1.718e-06  alpha:  2.894e-01  linmin:  2.247e-05  t[s]:   5174.92
	FillingsUpdate:  mu: +0.113652696  nElectrons: 390.000000
	SubspaceRotationAdjust: set factor to 0.0378
ElecMinimize: Iter:  19  F: -2738.033529493856349  |grad|_K:  1.272e-06  alpha:  3.262e-01  linmin: -5.448e-06  t[s]:   5206.00
	FillingsUpdate:  mu: +0.113599322  nElectrons: 390.000000
	SubspaceRotationAdjust: set factor to 0.0412
ElecMinimize: Iter:  20  F: -2738.033570503682768  |grad|_K:  9.987e-07  alpha:  3.206e-01  linmin: -4.659e-06  t[s]:   5237.32
	FillingsUpdate:  mu: +0.113519944  nElectrons: 390.000000
	SubspaceRotationAdjust: set factor to 0.0441
ElecMinimize: Iter:  21  F: -2738.033594658626498  |grad|_K:  7.937e-07  alpha:  3.062e-01  linmin:  3.263e-05  t[s]:   5268.32
	FillingsUpdate:  mu: +0.113493910  nElectrons: 390.000000
	SubspaceRotationAdjust: set factor to 0.0494
ElecMinimize: Iter:  22  F: -2738.033611463022226  |grad|_K:  6.742e-07  alpha:  3.375e-01  linmin: -3.239e-05  t[s]:   5299.55
	FillingsUpdate:  mu: +0.113496840  nElectrons: 390.000000
	SubspaceRotationAdjust: set factor to 0.0579
ElecMinimize: Iter:  23  F: -2738.033624330395014  |grad|_K:  6.243e-07  alpha:  3.578e-01  linmin:  3.103e-05  t[s]:   5330.89
	FillingsUpdate:  mu: +0.113462595  nElectrons: 390.000000
	SubspaceRotationAdjust: set factor to 0.0685
ElecMinimize: Iter:  24  F: -2738.033636355321960  |grad|_K:  6.049e-07  alpha:  3.904e-01  linmin: -1.414e-05  t[s]:   5361.62
	FillingsUpdate:  mu: +0.113498102  nElectrons: 390.000000
	SubspaceRotationAdjust: set factor to 0.0798
ElecMinimize: Iter:  25  F: -2738.033648272505616  |grad|_K:  6.192e-07  alpha:  4.116e-01  linmin:  1.109e-05  t[s]:   5392.86
	FillingsUpdate:  mu: +0.113522789  nElectrons: 390.000000
	SubspaceRotationAdjust: set factor to 0.0903
ElecMinimize: Iter:  26  F: -2738.033660201138900  |grad|_K:  6.231e-07  alpha:  3.938e-01  linmin: -6.963e-06  t[s]:   5423.82
	FillingsUpdate:  mu: +0.113548486  nElectrons: 390.000000
	SubspaceRotationAdjust: set factor to 0.0941
ElecMinimize: Iter:  27  F: -2738.033671852868792  |grad|_K:  6.517e-07  alpha:  3.792e-01  linmin:  1.677e-05  t[s]:   5455.13
	FillingsUpdate:  mu: +0.113639395  nElectrons: 390.000000
	SubspaceRotationAdjust: set factor to 0.0753
ElecMinimize: Iter:  28  F: -2738.033678615787721  |grad|_K:  7.402e-07  alpha:  2.032e-01  linmin:  2.765e-05  t[s]:   5486.24
	FillingsUpdate:  mu: +0.113685448  nElectrons: 390.000000
	SubspaceRotationAdjust: set factor to 0.0565
ElecMinimize: Iter:  29  F: -2738.033685245481138  |grad|_K:  5.284e-07  alpha:  1.532e-01  linmin:  9.162e-06  t[s]:   5517.18
	FillingsUpdate:  mu: +0.113659102  nElectrons: 390.000000
	SubspaceRotationAdjust: set factor to 0.0624
ElecMinimize: Iter:  30  F: -2738.033691801736495  |grad|_K:  4.261e-07  alpha:  2.970e-01  linmin: -1.867e-05  t[s]:   5548.70
	FillingsUpdate:  mu: +0.113689803  nElectrons: 390.000000
	SubspaceRotationAdjust: set factor to 0.0628
ElecMinimize: Iter:  31  F: -2738.033696239006076  |grad|_K:  3.790e-07  alpha:  3.084e-01  linmin: -1.125e-05  t[s]:   5579.80
	FillingsUpdate:  mu: +0.113733262  nElectrons: 390.000000
	SubspaceRotationAdjust: set factor to 0.0514
ElecMinimize: Iter:  32  F: -2738.033698662690313  |grad|_K:  3.342e-07  alpha:  2.131e-01  linmin:  3.691e-08  t[s]:   5611.43
	FillingsUpdate:  mu: +0.113753119  nElectrons: 390.000000
	SubspaceRotationAdjust: set factor to 0.0506
ElecMinimize: Iter:  33  F: -2738.033700682971357  |grad|_K:  2.482e-07  alpha:  2.286e-01  linmin: -6.065e-06  t[s]:   5642.52
	FillingsUpdate:  mu: +0.113737640  nElectrons: 390.000000
	SubspaceRotationAdjust: set factor to 0.0628
ElecMinimize: Iter:  34  F: -2738.033702239571085  |grad|_K:  2.093e-07  alpha:  3.192e-01  linmin:  1.004e-07  t[s]:   5673.56
	FillingsUpdate:  mu: +0.113743086  nElectrons: 390.000000
	SubspaceRotationAdjust: set factor to 0.0642
ElecMinimize: Iter:  35  F: -2738.033703240339037  |grad|_K:  2.107e-07  alpha:  2.888e-01  linmin:  7.513e-07  t[s]:   5704.56
	FillingsUpdate:  mu: +0.113753773  nElectrons: 390.000000
	SubspaceRotationAdjust: set factor to 0.0605
ElecMinimize: Iter:  36  F: -2738.033704036450672  |grad|_K:  1.913e-07  alpha:  2.269e-01  linmin: -2.389e-06  t[s]:   5735.66
	FillingsUpdate:  mu: +0.113750739  nElectrons: 390.000000
	SubspaceRotationAdjust: set factor to 0.0708
ElecMinimize: Iter:  37  F: -2738.033704914470036  |grad|_K:  1.726e-07  alpha:  3.033e-01  linmin:  2.402e-06  t[s]:   5766.86
	FillingsUpdate:  mu: +0.113737131  nElectrons: 390.000000
	SubspaceRotationAdjust: set factor to 0.0838
ElecMinimize: Iter:  38  F: -2738.033705804986312  |grad|_K:  1.690e-07  alpha:  3.784e-01  linmin:  5.547e-06  t[s]:   5797.68
	FillingsUpdate:  mu: +0.113742775  nElectrons: 390.000000
	SubspaceRotationAdjust: set factor to 0.0862
ElecMinimize: Iter:  39  F: -2738.033706589300436  |grad|_K:  1.921e-07  alpha:  3.473e-01  linmin: -6.580e-07  t[s]:   5828.92
	FillingsUpdate:  mu: +0.113734413  nElectrons: 390.000000
	SubspaceRotationAdjust: set factor to 0.067
ElecMinimize: Iter:  40  F: -2738.033707100033098  |grad|_K:  1.914e-07  alpha:  1.746e-01  linmin: -8.214e-06  t[s]:   5860.22
ElecMinimize: Converged (|Delta F|<1.000000e-06 for 5 iters).
Setting wave functions to eigenvectors of Hamiltonian

# Ionic positions in lattice coordinates:
ion Ni  -0.000000027489780   0.000000014476737   0.151073140910242 1
ion Ni   0.500000140671288  -0.000000012663456   0.151239702690784 1
ion Ni   0.000000043156430   0.499999660996367   0.151239818687739 1
ion Ni   0.500000798083137   0.499999654434838   0.150865621994160 1
ion Ni   0.250269673510767   0.250267993872858   0.050561067678262 1
ion Ni   0.250269449922744   0.749731440953846   0.050560892171640 1
ion Ni  -0.250268945881984   0.250268709353976   0.050561075737796 1
ion Ni  -0.250268881944836   0.749731202182624   0.050561298613226 1
ion Ni   0.000000000000000   0.000000000000000  -0.050000000000000 0
ion Ni   0.500000000000000   0.000000000000000  -0.050000000000000 0
ion Ni   0.000000000000000   0.500000000000000  -0.050000000000000 0
ion Ni   0.500000000000000   0.500000000000000  -0.050000000000000 0
ion Ni   0.250000000000000   0.250000000000000  -0.150000000000000 0
ion Ni   0.250000000000000   0.750000000000000  -0.150000000000000 0
ion Ni  -0.250000000000000   0.250000000000000  -0.150000000000000 0
ion Ni  -0.250000000000000   0.750000000000000  -0.150000000000000 0
ion O   0.252754495475554   0.252757136494344   0.148791878188363 1
ion O   0.252760605802766   0.747238172901779   0.148794288417776 1
ion O  -0.252759512955891   0.252756688433130   0.148794854549892 1
ion O  -0.252754850969553   0.747245924790377   0.148792916471113 1
ion O   0.000000276999020   0.000002039289652   0.050220347979247 1
ion O   0.500000800858395   0.000004370894782   0.048847882248974 1
ion O   0.000003331284547   0.499994452744471   0.048846874487637 1
ion O   0.500000115366253   0.500001885630410   0.048965907967195 1
ion O   0.250000000000000   0.250000000000000  -0.050000000000000 0
ion O   0.250000000000000   0.750000000000000  -0.050000000000000 0
ion O  -0.250000000000000   0.250000000000000  -0.050000000000000 0
ion O  -0.250000000000000   0.750000000000000  -0.050000000000000 0
ion O   0.000000000000000   0.000000000000000  -0.150000000000000 0
ion O   0.500000000000000   0.000000000000000  -0.150000000000000 0
ion O   0.000000000000000   0.500000000000000  -0.150000000000000 0
ion O   0.500000000000000   0.500000000000000  -0.150000000000000 0
ion O   0.000000984281057   0.000000270333433   0.230944743757692 1

# Forces in Lattice coordinates:
force Ni   0.000011944322742  -0.000011928864697   0.362608365382940 1
force Ni  -0.000002160298284  -0.000003073224435   0.502048872146109 1
force Ni  -0.000005906286816   0.000022728728837   0.502013086724408 1
force Ni   0.000001657842258   0.000004278826479   0.383098340038887 1
force Ni   0.010161751051742   0.010176848241811   0.165022103590308 1
force Ni   0.010153365349171  -0.010163451860386   0.165176369142411 1
force Ni  -0.010155803951936   0.010176047331097   0.165167130167398 1
force Ni  -0.010144572972805  -0.010162234859268   0.165030465495841 1
force Ni   0.000000117118068   0.000000849065040  -0.644646170160639 0
force Ni   0.000001926774978  -0.000004255509837  -0.405319919294769 0
force Ni  -0.000001480145392  -0.000005131670642  -0.405352220433112 0
force Ni   0.000003426846027   0.000005015620367  -0.285622108100392 0
force Ni  -0.004799605973676  -0.004797607725312  -0.518296057619936 0
force Ni  -0.004798066992470   0.004798766076160  -0.518288647295854 0
force Ni   0.004800032935464  -0.004799148714251  -0.518274104983703 0
force Ni   0.004798375089258   0.004797838687601  -0.518288750745973 0
force O   0.112634014235711   0.112644058531171  -0.496412317865429 1
force O   0.112657019708373  -0.112643711528820  -0.496577972225685 1
force O  -0.112641328683453   0.112686388654251  -0.496565704719345 1
force O  -0.112643092253643  -0.112657590812988  -0.496462669304854 1
force O   0.000004724244063  -0.000045035063226   0.159011185969518 1
force O  -0.000004603790051   0.000001857600369  -0.493928753854879 1
force O  -0.000009085540289   0.000022475352802  -0.494147183974067 1
force O  -0.000012736627974   0.000016503452898  -0.548792767724320 1
force O   0.002075245671827   0.002052485776953   0.683387789488721 0
force O   0.002049035317153  -0.002060628372540   0.683428601478974 0
force O  -0.002072658322427   0.002054940938779   0.683304689428777 0
force O  -0.002040554423197  -0.002047731223361   0.683450863311236 0
force O   0.000000558042353  -0.000001345870787   0.358213771005058 0
force O   0.000000156181078  -0.000002686323025   0.285784043287473 0
force O  -0.000003949276923   0.000004403335221   0.285739162546095 0
force O  -0.000001400459859   0.000002806268970   0.298396409882773 0
force O   0.000022220932291   0.000017637542779   0.450020876744425 1

# Energy components:
   Eewald =     7263.2620997121775872
       EH =     9745.4044519415529066
     Eloc =   -19824.1379159737080045
      Enl =     -856.0929134155275051
   Epulay =        0.0007326944676329
      Exc =     -302.3596472141139202
       KE =     1235.8952490737869994
-------------------------------------
     Etot =    -2738.0279431813623887
       TS =        0.0057639186705886
-------------------------------------
        F =    -2738.0337071000330980

IonicMinimize: Iter:   1  F: -2738.033707100033098  |grad|_K:  7.261e-03  alpha:  3.000e+00  linmin: -7.008e-01  t[s]:   5869.02

#--- Lowdin population analysis ---
# oxidation-state Ni +3.792 +3.773 +3.773 +3.741 +3.474 +3.474 +3.474 +3.474 +3.474 +3.478 +3.478 +3.473 +3.732 +3.732 +3.732 +3.732
# oxidation-state O -0.554 -0.554 -0.554 -0.554 -0.594 -0.576 -0.576 -0.565 -0.576 -0.576 -0.576 -0.576 -0.561 -0.578 -0.578 -0.580 -0.440


-------- Electronic minimization -----------
	FillingsUpdate:  mu: +0.210418005  nElectrons: 390.000000
ElecMinimize: Iter:   0  F: -2734.882025944786164  |grad|_K:  4.651e-04  alpha:  1.000e+00
	FillingsUpdate:  mu: +0.198681977  nElectrons: 390.000000
	SubspaceRotationAdjust: set factor to 0.0588
ElecMinimize: Iter:   1  F: -2737.664709029770620  |grad|_K:  1.571e-04  alpha:  1.913e-01  linmin:  1.447e-01  t[s]:   5921.46
	FillingsUpdate:  mu: +0.166745937  nElectrons: 390.000000
	SubspaceRotationAdjust: set factor to 0.0347
ElecMinimize: Iter:   2  F: -2737.914497651743204  |grad|_K:  8.020e-05  alpha:  1.517e-01  linmin: -3.462e-03  t[s]:   5952.31
	FillingsUpdate:  mu: +0.122934725  nElectrons: 390.000000
	SubspaceRotationAdjust: set factor to 0.0246
ElecMinimize: Iter:   3  F: -2737.981701854911080  |grad|_K:  3.077e-05  alpha:  1.305e-01  linmin:  2.312e-03  t[s]:   5983.73
	FillingsUpdate:  mu: +0.122384705  nElectrons: 390.000000
	SubspaceRotationAdjust: set factor to 0.0306
ElecMinimize: Iter:   4  F: -2738.001883118829483  |grad|_K:  2.011e-05  alpha:  2.714e-01  linmin: -1.386e-05  t[s]:   6015.10
	FillingsUpdate:  mu: +0.114129901  nElectrons: 390.000000
	SubspaceRotationAdjust: set factor to 0.0286
ElecMinimize: Iter:   5  F: -2738.010737410468209  |grad|_K:  1.246e-05  alpha:  2.769e-01  linmin: -4.541e-04  t[s]:   6046.36
	FillingsUpdate:  mu: +0.114498845  nElectrons: 390.000000
	SubspaceRotationAdjust: set factor to 0.0328
ElecMinimize: Iter:   6  F: -2738.014871125234549  |grad|_K:  1.011e-05  alpha:  3.351e-01  linmin:  1.250e-06  t[s]:   6077.70
	FillingsUpdate:  mu: +0.115838941  nElectrons: 390.000000
	SubspaceRotationAdjust: set factor to 0.0384
ElecMinimize: Iter:   7  F: -2738.017517209826565  |grad|_K:  8.460e-06  alpha:  3.272e-01  linmin:  1.062e-05  t[s]:   6108.95
	FillingsUpdate:  mu: +0.113932502  nElectrons: 390.000000
	SubspaceRotationAdjust: set factor to 0.042
ElecMinimize: Iter:   8  F: -2738.019710155970188  |grad|_K:  7.853e-06  alpha:  3.871e-01  linmin: -1.077e-04  t[s]:   6140.18
	FillingsUpdate:  mu: +0.113796497  nElectrons: 390.000000
	SubspaceRotationAdjust: set factor to 0.0466
ElecMinimize: Iter:   9  F: -2738.021568008424765  |grad|_K:  8.424e-06  alpha:  3.790e-01  linmin:  4.420e-05  t[s]:   6171.26
	FillingsUpdate:  mu: +0.114741098  nElectrons: 390.000000
	SubspaceRotationAdjust: set factor to 0.0548
ElecMinimize: Iter:  10  F: -2738.024190174590331  |grad|_K:  8.645e-06  alpha:  4.682e-01  linmin: -5.416e-05  t[s]:   6202.90
	FillingsUpdate:  mu: +0.113715450  nElectrons: 390.000000
	SubspaceRotationAdjust: set factor to 0.0573
ElecMinimize: Iter:  11  F: -2738.027077997304787  |grad|_K:  1.097e-05  alpha:  4.850e-01  linmin: -1.499e-04  t[s]:   6234.11
	FillingsUpdate:  mu: +0.116554153  nElectrons: 390.000000
	SubspaceRotationAdjust: set factor to 0.0467
ElecMinimize: Iter:  12  F: -2738.029810471153269  |grad|_K:  1.154e-05  alpha:  2.564e-01  linmin: -2.741e-04  t[s]:   6265.06
	FillingsUpdate:  mu: +0.116103689  nElectrons: 390.000000
	SubspaceRotationAdjust: set factor to 0.0547
ElecMinimize: Iter:  13  F: -2738.033297931617653  |grad|_K:  1.055e-05  alpha:  3.138e-01  linmin: -1.382e-04  t[s]:   6296.24
	FillingsUpdate:  mu: +0.115149160  nElectrons: 390.000000
	SubspaceRotationAdjust: set factor to 0.0571
ElecMinimize: Iter:  14  F: -2738.036483562010744  |grad|_K:  1.035e-05  alpha:  3.497e-01  linmin: -1.637e-04  t[s]:   6327.26
	FillingsUpdate:  mu: +0.116456566  nElectrons: 390.000000
	SubspaceRotationAdjust: set factor to 0.0479
ElecMinimize: Iter:  15  F: -2738.038460276926799  |grad|_K:  9.719e-06  alpha:  2.140e-01  linmin: -8.382e-05  t[s]:   6358.04
	FillingsUpdate:  mu: +0.114180287  nElectrons: 390.000000
	SubspaceRotationAdjust: set factor to 0.0633
ElecMinimize: Iter:  16  F: -2738.040311021276466  |grad|_K:  7.549e-06  alpha:  2.429e-01  linmin: -1.577e-04  t[s]:   6389.10
	FillingsUpdate:  mu: +0.114208490  nElectrons: 390.000000
	SubspaceRotationAdjust: set factor to 0.0592
ElecMinimize: Iter:  17  F: -2738.041602594121287  |grad|_K:  6.781e-06  alpha:  2.772e-01  linmin: -1.881e-04  t[s]:   6420.44
	FillingsUpdate:  mu: +0.114777551  nElectrons: 390.000000
	SubspaceRotationAdjust: set factor to 0.0431
ElecMinimize: Iter:  18  F: -2738.042221123261243  |grad|_K:  5.498e-06  alpha:  1.633e-01  linmin: -3.936e-05  t[s]:   6452.03
	FillingsUpdate:  mu: +0.113233864  nElectrons: 390.000000
	SubspaceRotationAdjust: set factor to 0.0538
ElecMinimize: Iter:  19  F: -2738.042927812357902  |grad|_K:  4.105e-06  alpha:  2.932e-01  linmin: -6.367e-05  t[s]:   6483.72
	FillingsUpdate:  mu: +0.113664297  nElectrons: 390.000000
	SubspaceRotationAdjust: set factor to 0.0482
ElecMinimize: Iter:  20  F: -2738.043276739401790  |grad|_K:  3.552e-06  alpha:  2.603e-01  linmin: -3.656e-05  t[s]:   6514.87
	FillingsUpdate:  mu: +0.113905694  nElectrons: 390.000000
	SubspaceRotationAdjust: set factor to 0.037
ElecMinimize: Iter:  21  F: -2738.043479657967964  |grad|_K:  2.616e-06  alpha:  2.023e-01  linmin:  2.599e-05  t[s]:   6545.91
	FillingsUpdate:  mu: +0.113360362  nElectrons: 390.000000
	SubspaceRotationAdjust: set factor to 0.0429
ElecMinimize: Iter:  22  F: -2738.043628251305108  |grad|_K:  1.948e-06  alpha:  2.749e-01  linmin: -2.551e-05  t[s]:   6577.20
	FillingsUpdate:  mu: +0.113152742  nElectrons: 390.000000
	SubspaceRotationAdjust: set factor to 0.0423
ElecMinimize: Iter:  23  F: -2738.043707872807772  |grad|_K:  1.526e-06  alpha:  2.650e-01  linmin: -2.363e-05  t[s]:   6608.33
	FillingsUpdate:  mu: +0.113187976  nElectrons: 390.000000
	SubspaceRotationAdjust: set factor to 0.0372
ElecMinimize: Iter:  24  F: -2738.043755323204095  |grad|_K:  1.236e-06  alpha:  2.573e-01  linmin:  4.001e-05  t[s]:   6639.70
	FillingsUpdate:  mu: +0.113175541  nElectrons: 390.000000
	SubspaceRotationAdjust: set factor to 0.0434
ElecMinimize: Iter:  25  F: -2738.043790285535124  |grad|_K:  9.548e-07  alpha:  2.899e-01  linmin: -2.106e-05  t[s]:   6670.63
	FillingsUpdate:  mu: +0.113097809  nElectrons: 390.000000
	SubspaceRotationAdjust: set factor to 0.0478
ElecMinimize: Iter:  26  F: -2738.043811532750169  |grad|_K:  8.343e-07  alpha:  2.945e-01  linmin: -2.612e-05  t[s]:   6701.58
	FillingsUpdate:  mu: +0.113103158  nElectrons: 390.000000
	SubspaceRotationAdjust: set factor to 0.0474
ElecMinimize: Iter:  27  F: -2738.043827387136844  |grad|_K:  7.800e-07  alpha:  2.879e-01  linmin:  3.882e-05  t[s]:   6733.35
	FillingsUpdate:  mu: +0.113155968  nElectrons: 390.000000
	SubspaceRotationAdjust: set factor to 0.0534
ElecMinimize: Iter:  28  F: -2738.043842438065440  |grad|_K:  6.881e-07  alpha:  3.131e-01  linmin: -3.206e-05  t[s]:   6764.51
	FillingsUpdate:  mu: +0.113162317  nElectrons: 390.000000
	SubspaceRotationAdjust: set factor to 0.0617
ElecMinimize: Iter:  29  F: -2738.043855779493697  |grad|_K:  7.189e-07  alpha:  3.559e-01  linmin: -6.828e-06  t[s]:   6795.73
	FillingsUpdate:  mu: +0.113181486  nElectrons: 390.000000
	SubspaceRotationAdjust: set factor to 0.0634
ElecMinimize: Iter:  30  F: -2738.043869301242012  |grad|_K:  7.456e-07  alpha:  3.306e-01  linmin:  2.505e-05  t[s]:   6827.04
	FillingsUpdate:  mu: +0.113248160  nElectrons: 390.000000
	SubspaceRotationAdjust: set factor to 0.0539
ElecMinimize: Iter:  31  F: -2738.043880353489840  |grad|_K:  7.499e-07  alpha:  2.523e-01  linmin: -1.944e-05  t[s]:   6857.98
	FillingsUpdate:  mu: +0.113329119  nElectrons: 390.000000
	SubspaceRotationAdjust: set factor to 0.0484
ElecMinimize: Iter:  32  F: -2738.043891280047319  |grad|_K:  6.419e-07  alpha:  2.453e-01  linmin:  3.322e-05  t[s]:   6888.90
	FillingsUpdate:  mu: +0.113305279  nElectrons: 390.000000
	SubspaceRotationAdjust: set factor to 0.0513
ElecMinimize: Iter:  33  F: -2738.043902070117838  |grad|_K:  5.651e-07  alpha:  3.317e-01  linmin: -2.361e-05  t[s]:   6920.21
	FillingsUpdate:  mu: +0.113337307  nElectrons: 390.000000
	SubspaceRotationAdjust: set factor to 0.0518
ElecMinimize: Iter:  34  F: -2738.043909098174026  |grad|_K:  4.811e-07  alpha:  2.779e-01  linmin: -8.645e-06  t[s]:   6951.43
	FillingsUpdate:  mu: +0.113430379  nElectrons: 390.000000
	SubspaceRotationAdjust: set factor to 0.045
ElecMinimize: Iter:  35  F: -2738.043914031938129  |grad|_K:  4.141e-07  alpha:  2.693e-01  linmin:  1.431e-05  t[s]:   6982.47
	FillingsUpdate:  mu: +0.113443151  nElectrons: 390.000000
	SubspaceRotationAdjust: set factor to 0.042
ElecMinimize: Iter:  36  F: -2738.043917359424540  |grad|_K:  3.238e-07  alpha:  2.456e-01  linmin: -8.431e-06  t[s]:   7013.79
	FillingsUpdate:  mu: +0.113418427  nElectrons: 390.000000
	SubspaceRotationAdjust: set factor to 0.0476
ElecMinimize: Iter:  37  F: -2738.043919661873588  |grad|_K:  2.538e-07  alpha:  2.775e-01  linmin: -2.219e-06  t[s]:   7044.51
	FillingsUpdate:  mu: +0.113423774  nElectrons: 390.000000
	SubspaceRotationAdjust: set factor to 0.0502
ElecMinimize: Iter:  38  F: -2738.043921148222125  |grad|_K:  2.218e-07  alpha:  2.918e-01  linmin:  8.900e-06  t[s]:   7075.71
	FillingsUpdate:  mu: +0.113442620  nElectrons: 390.000000
	SubspaceRotationAdjust: set factor to 0.0492
ElecMinimize: Iter:  39  F: -2738.043922176998876  |grad|_K:  1.928e-07  alpha:  2.646e-01  linmin: -6.673e-06  t[s]:   7106.64
	FillingsUpdate:  mu: +0.113451798  nElectrons: 390.000000
	SubspaceRotationAdjust: set factor to 0.0566
ElecMinimize: Iter:  40  F: -2738.043923022160925  |grad|_K:  1.699e-07  alpha:  2.875e-01  linmin:  1.116e-06  t[s]:   7137.72
	FillingsUpdate:  mu: +0.113436771  nElectrons: 390.000000
	SubspaceRotationAdjust: set factor to 0.068
ElecMinimize: Iter:  41  F: -2738.043923842672484  |grad|_K:  1.688e-07  alpha:  3.597e-01  linmin:  3.483e-06  t[s]:   7169.07
	FillingsUpdate:  mu: +0.113438900  nElectrons: 390.000000
	SubspaceRotationAdjust: set factor to 0.0699
ElecMinimize: Iter:  42  F: -2738.043924554123805  |grad|_K:  1.873e-07  alpha:  3.160e-01  linmin:  7.249e-07  t[s]:   7200.11
	FillingsUpdate:  mu: +0.113451107  nElectrons: 390.000000
	SubspaceRotationAdjust: set factor to 0.0598
[...]
	FillingsUpdate:  mu: +0.114433552  nElectrons: 390.000000
	SubspaceRotationAdjust: set factor to 0.0188
ElecMinimize: Iter:   7  F: -2738.057685437206601  |grad|_K:  1.375e-07  alpha:  2.821e-01  linmin:  2.357e-05  t[s]:  29398.19
	FillingsUpdate:  mu: +0.114414679  nElectrons: 390.000000
	SubspaceRotationAdjust: set factor to 0.0227
ElecMinimize: Iter:   8  F: -2738.057685935226345  |grad|_K:  1.102e-07  alpha:  3.330e-01  linmin: -2.485e-05  t[s]:  29429.50
	FillingsUpdate:  mu: +0.114412136  nElectrons: 390.000000
	SubspaceRotationAdjust: set factor to 0.0274
ElecMinimize: Iter:   9  F: -2738.057686298807766  |grad|_K:  1.051e-07  alpha:  3.782e-01  linmin: -1.670e-05  t[s]:  29460.50
	FillingsUpdate:  mu: +0.114415848  nElectrons: 390.000000
	SubspaceRotationAdjust: set factor to 0.0328
ElecMinimize: Iter:  10  F: -2738.057686697197369  |grad|_K:  1.165e-07  alpha:  4.557e-01  linmin: -3.612e-06  t[s]:  29491.64
	FillingsUpdate:  mu: +0.114397537  nElectrons: 390.000000
	SubspaceRotationAdjust: set factor to 0.0372
ElecMinimize: Iter:  11  F: -2738.057687229689236  |grad|_K:  1.407e-07  alpha:  4.958e-01  linmin:  1.112e-06  t[s]:  29522.54
ElecMinimize: Converged (|Delta F|<1.000000e-06 for 5 iters).
Setting wave functions to eigenvectors of Hamiltonian

# Ionic positions in lattice coordinates:
ion Ni   0.000010900688530   0.000023505494480   0.158970833664856 1
ion Ni   0.500002407966495   0.000035696398264   0.160015455680764 1
ion Ni  -0.000004740039801   0.500000525638339   0.160014778564745 1
ion Ni   0.500014074181054   0.500073537112885   0.158676065112857 1
ion Ni   0.251994229513376   0.251998709845315   0.052052085782676 1
ion Ni   0.251951730652749   0.748045638412561   0.052028194263524 1
ion Ni  -0.251966106419568   0.251991612391541   0.052032258411455 1
ion Ni  -0.251971008572277   0.748062419881676   0.052015568063993 1
ion Ni   0.000000000000000   0.000000000000000  -0.050000000000000 0
ion Ni   0.500000000000000   0.000000000000000  -0.050000000000000 0
ion Ni   0.000000000000000   0.500000000000000  -0.050000000000000 0
ion Ni   0.500000000000000   0.500000000000000  -0.050000000000000 0
ion Ni   0.250000000000000   0.250000000000000  -0.150000000000000 0
ion Ni   0.250000000000000   0.750000000000000  -0.150000000000000 0
ion Ni  -0.250000000000000   0.250000000000000  -0.150000000000000 0
ion Ni  -0.250000000000000   0.750000000000000  -0.150000000000000 0
ion O   0.268254103266515   0.268130775787052   0.146950961250673 1
ion O   0.267910645699974   0.731923402236013   0.146929606995475 1
ion O  -0.267953282591831   0.268218687282024   0.146923443896214 1
ion O  -0.268202698114258   0.732075492342509   0.146910005782135 1
ion O   0.000310054395345   0.000426422407436   0.064073990397235 1
ion O   0.500137415247627  -0.000167058688304   0.043489656261931 1
ion O  -0.000134178695441   0.500216689586907   0.043485086389445 1
ion O   0.499857229345071   0.499835495029815   0.040711045212400 1
ion O   0.250000000000000   0.250000000000000  -0.050000000000000 0
ion O   0.250000000000000   0.750000000000000  -0.050000000000000 0
ion O  -0.250000000000000   0.250000000000000  -0.050000000000000 0
ion O  -0.250000000000000   0.750000000000000  -0.050000000000000 0
ion O   0.000000000000000   0.000000000000000  -0.150000000000000 0
ion O   0.500000000000000   0.000000000000000  -0.150000000000000 0
ion O   0.000000000000000   0.500000000000000  -0.150000000000000 0
ion O   0.500000000000000   0.500000000000000  -0.150000000000000 0
ion O  -0.000174090895921   0.000088630944866   0.238723545687694 1

# Forces in Lattice coordinates:
force Ni  -0.000014437072666   0.000108602701303  -0.032530868089674 1
force Ni   0.000064187271917   0.000106956860782  -0.007761737499681 1
force Ni   0.000008561906308   0.000068390459795  -0.007712030057152 1
force Ni   0.000072884441351   0.000277351695737  -0.007731662766490 1
force Ni  -0.002194655835170  -0.002177742514939   0.003141586256976 1
force Ni  -0.002310188401427   0.002293258672975   0.002274108600409 1
force Ni   0.002345006303639  -0.002236535851086   0.002424655747758 1
force Ni   0.002346890923718   0.002417554151995   0.001772900959196 1
force Ni  -0.000212657920317  -0.000285826648163  -0.528210329422723 0
force Ni   0.000016773952625   0.000028420060181  -0.673040419247180 0
force Ni  -0.000004194702138   0.000077560304238  -0.673421724456239 0
force Ni  -0.000164051487664  -0.000157302340131  -0.862256761418640 0
force Ni  -0.008851089203973  -0.008848111473086  -0.488569992633634 0
force Ni  -0.008847541400323   0.008876840839238  -0.488551217051912 0
force Ni   0.008865131617628  -0.008859078421425  -0.488648047494811 0
force Ni   0.008870400005323   0.008868149182395  -0.488515975535511 0
force O  -0.002592082414003  -0.003666719688061   0.023017757714674 1
force O  -0.004453748869065   0.003513950057994   0.022361674837795 1
force O   0.004453799986629  -0.002626380209540   0.022129302117185 1
force O   0.003146202196032   0.004829969807345   0.021987152922422 1
force O   0.001204496210024   0.001662241474221   0.010791264507319 1
force O   0.000253841243952  -0.000179872240506   0.023427278147518 1
force O  -0.000080887889463   0.000575798987559   0.024063472297946 1
force O  -0.000901124936617  -0.001148920523721   0.005366822620962 1
force O  -0.031356583421690  -0.031195136375465   0.742831437290640 0
force O  -0.031024421709792   0.031306577252911   0.742196904729657 0
force O   0.031138446526919  -0.031193973427312   0.742590536233969 0
force O   0.031160014754611   0.031019759541874   0.740853551398227 0
force O  -0.000011688623639  -0.000030914935142   0.112962920989279 0
force O  -0.000107815932812   0.000106728413766   0.341846810880474 0
force O   0.000081735812156  -0.000156471165494   0.341894882396781 0
force O   0.000087579316905   0.000120128955919   0.391786283339798 0
force O  -0.000849997039617   0.000384169000520   0.053978085841585 1

# Energy components:
   Eewald =     7051.5516667111060087
       EH =     9534.1115640068146604
     Eloc =   -19401.0774690406469745
      Enl =     -855.8875641120575892
   Epulay =        0.0007326944676329
      Exc =     -302.2716145048079852
       KE =     1235.5206189470729896
-------------------------------------
     Etot =    -2738.0520652980512750
       TS =        0.0056219316380616
-------------------------------------
        F =    -2738.0576872296892361

IonicMinimize: Iter:  19  F: -2738.057687229689236  |grad|_K:  3.460e-04  alpha:  1.000e+00  linmin:  8.694e-03  t[s]:  29531.36
IonicMinimize: Converged (|Delta F|<1.000000e-04 for 3 iters).

#--- Lowdin population analysis ---
# oxidation-state Ni +3.808 +3.751 +3.751 +3.698 +3.535 +3.535 +3.535 +3.535 +3.463 +3.493 +3.493 +3.503 +3.725 +3.725 +3.725 +3.725
# oxidation-state O -0.541 -0.542 -0.541 -0.542 -0.591 -0.563 -0.563 -0.546 -0.580 -0.580 -0.580 -0.580 -0.562 -0.582 -0.582 -0.578 -0.445


Dumping 'O.ionpos' ... done
Dumping 'O.lattice' ... done
Dumping 'O.Ecomponents' ... done
End date and time: Thu May  1 22:39:29 2025  (Duration: 0-8:12:14.18)
Done!

*************** JDFTx 1.7.0  ***************

Start date and time: Thu May  1 22:39:30 2025
Executable /data2/jt577/jdftx_eat_withLibXC/build/jdftx with command-line: -i /data2/jt577/March_2025/pure_RSO/ionic_relax_noMagnetism/pure_NiO/runs/calc_20250501-142714/OH/OH.in
Running on hosts (process indices):  node3225 (0-8)
Divided in process groups (process indices):  0 (0)  1 (1)  2 (2)  3 (3)  4 (4)  5 (5)  6 (6)  7 (7)  8 (8)
Resource initialization completed at t[s]:      0.00
Run totals: 9 processes, 36 threads, 0 GPUs


Input parsed successfully to the following command list (including defaults):

add-mix 
basis kpoint-dependent
coords-type Lattice
core-overlap-check vector
coulomb-interaction Periodic
davidson-band-ratio 1.1
dump End IonicPositions Lattice Ecomponents
dump-name OH.$VAR
elec-cutoff 30
elec-eigen-algo Davidson
elec-ex-corr gga-x-rpbe gga-c-pbe
elec-smearing Fermi 0.001
electronic-minimize  \
	dirUpdateScheme      FletcherReeves \
	linminMethod         DirUpdateRecommended \
	nIterations          1000 \
	history              15 \
	knormThreshold       0 \
	energyDiffThreshold  1e-06 \
	nEnergyDiff          5 \
	alphaTstart          1 \
	alphaTmin            1e-10 \
	updateTestStepSize   yes \
	alphaTreduceFactor   0.1 \
	alphaTincreaseFactor 3 \
	nAlphaAdjustMax      3 \
	wolfeEnergy          0.0001 \
	wolfeGradient        0.9 \
	fdTest               no
exchange-regularization WignerSeitzTruncated
fluid None
fluid-ex-corr (null) lda-PZ
fluid-gummel-loop 10 1.000000e-05
fluid-minimize  \
	dirUpdateScheme      PolakRibiere \
	linminMethod         DirUpdateRecommended \
	nIterations          100 \
	history              15 \
	knormThreshold       0 \
	energyDiffThreshold  0 \
	nEnergyDiff          2 \
	alphaTstart          1 \
	alphaTmin            1e-10 \
	updateTestStepSize   yes \
	alphaTreduceFactor   0.1 \
	alphaTincreaseFactor 3 \
	nAlphaAdjustMax      3 \
	wolfeEnergy          0.0001 \
	wolfeGradient        0.9 \
	fdTest               no
fluid-solvent H2O 55.338 ScalarEOS \
	epsBulk 78.4 \
	pMol 0.92466 \
	epsInf 1.77 \
	Pvap 1.06736e-10 \
	sigmaBulk 4.62e-05 \
	Rvdw 2.61727 \
	Res 1.42 \
	tauNuc 343133 \
	poleEl 15 7 1
forces-output-coords Positions
initial-state OH.$VAR
ion Ni  0.000000000000000   0.000000000000000   0.150000000000000 1
ion Ni  0.500000000000000   0.000000000000000   0.150000000000000 1
ion Ni  0.000000000000000   0.500000000000000   0.150000000000000 1
ion Ni  0.500000000000000   0.500000000000000   0.150000000000000 1
ion Ni  0.250000000000000   0.250000000000000   0.050000000000000 1
ion Ni  0.250000000000000   0.750000000000000   0.050000000000000 1
ion Ni -0.250000000000000   0.250000000000000   0.050000000000000 1
ion Ni -0.250000000000000   0.750000000000000   0.050000000000000 1
ion Ni  0.000000000000000   0.000000000000000  -0.050000000000000 0
ion Ni  0.500000000000000   0.000000000000000  -0.050000000000000 0
ion Ni  0.000000000000000   0.500000000000000  -0.050000000000000 0
ion Ni  0.500000000000000   0.500000000000000  -0.050000000000000 0
ion Ni  0.250000000000000   0.250000000000000  -0.150000000000000 0
ion Ni  0.250000000000000   0.750000000000000  -0.150000000000000 0
ion Ni -0.250000000000000   0.250000000000000  -0.150000000000000 0
ion Ni -0.250000000000000   0.750000000000000  -0.150000000000000 0
ion O  0.250000000000000   0.250000000000000   0.150000000000000 1
ion O  0.250000000000000   0.750000000000000   0.150000000000000 1
ion O -0.250000000000000   0.250000000000000   0.150000000000000 1
ion O -0.250000000000000   0.750000000000000   0.150000000000000 1
ion O  0.000000000000000   0.000000000000000   0.050000000000000 1
ion O  0.500000000000000   0.000000000000000   0.050000000000000 1
ion O  0.000000000000000   0.500000000000000   0.050000000000000 1
ion O  0.500000000000000   0.500000000000000   0.050000000000000 1
ion O  0.250000000000000   0.250000000000000  -0.050000000000000 0
ion O  0.250000000000000   0.750000000000000  -0.050000000000000 0
ion O -0.250000000000000   0.250000000000000  -0.050000000000000 0
ion O -0.250000000000000   0.750000000000000  -0.050000000000000 0
ion O  0.000000000000000   0.000000000000000  -0.150000000000000 0
ion O  0.500000000000000   0.000000000000000  -0.150000000000000 0
ion O  0.000000000000000   0.500000000000000  -0.150000000000000 0
ion O  0.500000000000000   0.500000000000000  -0.150000000000000 0
ion O  0.000000000000000   0.000000000000000   0.230000000000000 1
ion H  0.100000000000000   0.100000000000000   0.250000000000000 1
ion-species SG15/$ID_ONCV_PBE.upf
ion-width 0
ionic-minimize  \
	dirUpdateScheme      L-BFGS \
	linminMethod         DirUpdateRecommended \
	nIterations          1000 \
	history              15 \
	knormThreshold       0.0001 \
	energyDiffThreshold  0.0001 \
	nEnergyDiff          3 \
	alphaTstart          1 \
	alphaTmin            1e-10 \
	updateTestStepSize   yes \
	alphaTreduceFactor   0.1 \
	alphaTincreaseFactor 3 \
	nAlphaAdjustMax      3 \
	wolfeEnergy          0.0001 \
	wolfeGradient        0.9 \
	fdTest               no
kpoint   0.500000000000   0.500000000000   0.500000000000  1.00000000000000
kpoint-folding 3 3 1 
latt-move-scale 1 1 1
latt-scale 1 1 1 
lattice  \
	   7.880000000000000    7.880000000000000    0.000000000000000  \
	   7.880000000000000   -7.880000000000000    0.000000000000000  \
	   0.000000000000000    0.000000000000000   39.399999999999999 
lattice-minimize  \
	dirUpdateScheme      L-BFGS \
	linminMethod         DirUpdateRecommended \
	nIterations          0 \
	history              15 \
	knormThreshold       0 \
	energyDiffThreshold  1e-06 \
	nEnergyDiff          2 \
	alphaTstart          1 \
	alphaTmin            1e-10 \
	updateTestStepSize   yes \
	alphaTreduceFactor   0.1 \
	alphaTincreaseFactor 3 \
	nAlphaAdjustMax      3 \
	wolfeEnergy          0.0001 \
	wolfeGradient        0.9 \
	fdTest               no
lcao-params -1 1e-06 0.001
pcm-variant GLSSA13
spintype no-spin
subspace-rotation-factor 1 yes
symmetries none
symmetry-threshold 0.0001


Applied RMS atom displacement 0 bohrs to make symmetries exact.

---------- Initializing the Grid ----------
R = 
[         7.88         7.88            0  ]
[         7.88        -7.88            0  ]
[            0            0         39.4  ]
unit cell volume = 4893.04
G =
[   0.398679   0.398679         -0  ]
[   0.398679  -0.398679         -0  ]
[         -0         -0   0.159472  ]
Minimum fftbox size, Smin = [  56  56  196  ]
Chosen fftbox size, S = [  56  56  196  ]

---------- Exchange Correlation functional ----------
Initialized LibXC exchange functional 'Hammer, Hansen, and Norskov'
Initialized LibXC correlation functional 'Perdew, Burke & Ernzerhof'

---------- Setting up pseudopotentials ----------
Width of ionic core gaussian charges (only for fluid interactions / plotting) set to 0

Reading pseudopotential file '/data2/jt577/jdftx_eat_withLibXC/build/pseudopotentials/SG15/Ni_ONCV_PBE.upf':
  'Ni' pseudopotential, 'PBE' functional
  Generated using ONCVPSP code by D. R. Hamann
  Author: Martin Schlipf and Francois Gygi  Date: 150915.
  18 valence electrons, 4 orbitals, 6 projectors, 1292 radial grid points, with lMax = 2
  Transforming local potential to a uniform radial grid of dG=0.02 with 1368 points.
  Transforming nonlocal projectors to a uniform radial grid of dG=0.02 with 528 points.
    3S    l: 0   occupation:  2.0   eigenvalue: -4.081355
    3P    l: 1   occupation:  6.0   eigenvalue: -2.623460
    4S    l: 0   occupation:  2.0   eigenvalue: -0.207378
    3D    l: 2   occupation:  8.0   eigenvalue: -0.326118
  Transforming atomic orbitals to a uniform radial grid of dG=0.02 with 528 points.
  WARNING: large normalization error in atomic orbital 1s (integral: 0.000006).
  Core radius for overlap checks: 1.99 bohrs.
  Reading pulay file /data2/jt577/jdftx_eat_withLibXC/build/pseudopotentials/SG15/Ni_ONCV_PBE.pulay ... using dE_dnG = -7.250568e-04 computed for Ecut = 30.

Reading pseudopotential file '/data2/jt577/jdftx_eat_withLibXC/build/pseudopotentials/SG15/O_ONCV_PBE.upf':
  'O' pseudopotential, 'PBE' functional
  Generated using ONCVPSP code by D. R. Hamann
  Author: Martin Schlipf and Francois Gygi  Date: 150915.
  6 valence electrons, 2 orbitals, 4 projectors, 936 radial grid points, with lMax = 1
  Transforming local potential to a uniform radial grid of dG=0.02 with 1368 points.
  Transforming nonlocal projectors to a uniform radial grid of dG=0.02 with 528 points.
    2S    l: 0   occupation:  2.0   eigenvalue: -0.880572
    2P    l: 1   occupation:  4.0   eigenvalue: -0.331869
  Transforming atomic orbitals to a uniform radial grid of dG=0.02 with 528 points.
  Core radius for overlap checks: 1.29 bohrs.
  Reading pulay file /data2/jt577/jdftx_eat_withLibXC/build/pseudopotentials/SG15/O_ONCV_PBE.pulay ... using dE_dnG = -8.209514e-03 computed for Ecut = 30.

Reading pseudopotential file '/data2/jt577/jdftx_eat_withLibXC/build/pseudopotentials/SG15/H_ONCV_PBE.upf':
  'H' pseudopotential, 'PBE' functional
  Generated using ONCVPSP code by D. R. Hamann
  Author: Martin Schlipf and Francois Gygi  Date: 150915.
  1 valence electrons, 1 orbitals, 2 projectors, 1166 radial grid points, with lMax = 0
  Transforming local potential to a uniform radial grid of dG=0.02 with 1368 points.
  Transforming nonlocal projectors to a uniform radial grid of dG=0.02 with 528 points.
    1S    l: 0   occupation:  1.0   eigenvalue: -0.238602
  Transforming atomic orbitals to a uniform radial grid of dG=0.02 with 528 points.
  Core radius for overlap checks: 1.01 bohrs.
  Reading pulay file /data2/jt577/jdftx_eat_withLibXC/build/pseudopotentials/SG15/H_ONCV_PBE.pulay ... using dE_dnG = -8.245991e-05 computed for Ecut = 30.

Initialized 3 species with 34 total atoms.

Folded 1 k-points by 3x3x1 to 9 k-points.

---------- Setting up k-points, bands, fillings ----------
No reducable k-points. 
Computing the number of bands and number of electrons
Calculating initial fillings.
nElectrons: 391.000000   nBands: 229   nStates: 9

----- Setting up reduced wavefunction bases (one per k-point) -----
average nbasis = 38425.778 , ideal nbasis = 38402.061

---------- Setting up ewald sum ----------
Optimum gaussian width for ewald sums = 3.762904 bohr.
Real space sum over 605 unit cells with max indices [  5  5  2  ]
Reciprocal space sum over 5915 terms with max indices [  6  6  17  ]

---------- Allocating electronic variables ----------
Initializing wave functions:  linear combination of atomic orbitals
Ni pseudo-atom occupations:   s ( 2 0 )  p ( 6 )  d ( 10 )
O pseudo-atom occupations:   s ( 2 )  p ( 4 )
H pseudo-atom occupations:   s ( 1 )
	FillingsUpdate:  mu: +1.711816260  nElectrons: 391.000000
LCAOMinimize: Iter:   0  F: -2507.2905223978268623  |grad|_K:  3.495e-02  alpha:  1.000e+00
LCAOMinimize: 	Step increased F by 5.243106e+01, reducing alpha to 4.518391e-02.
LCAOMinimize: 	Step increased F by 4.834845e+00, reducing alpha to 4.518391e-03.
	FillingsUpdate:  mu: +1.486113014  nElectrons: 391.000000
LCAOMinimize: Iter:   1  F: -2511.4067921885884971  |grad|_K:  3.912e-02  alpha:  4.518e-03  linmin: -1.125e-01  cgtest:  7.165e-01  t[s]:     62.51
	FillingsUpdate:  mu: +0.540556054  nElectrons: 391.000000
LCAOMinimize: Iter:   2  F: -2518.8035863146733391  |grad|_K:  1.965e-02  alpha:  9.104e-03  linmin: -1.957e-01  cgtest:  7.195e-01  t[s]:     76.52
LCAOMinimize: Encountered beta<0, resetting CG.
	FillingsUpdate:  mu: +0.019342929  nElectrons: 391.000000
LCAOMinimize: Iter:   3  F: -2520.8144777446796070  |grad|_K:  7.132e-03  alpha:  2.053e-02  linmin: -2.596e-02  cgtest:  1.203e-01  t[s]:     90.53
	FillingsUpdate:  mu: -0.051980437  nElectrons: 391.000000
LCAOMinimize: Iter:   4  F: -2520.9775701603348352  |grad|_K:  2.385e-03  alpha:  1.092e-02  linmin: -3.369e-02  cgtest:  3.382e-01  t[s]:    104.46
LCAOMinimize: Encountered beta<0, resetting CG.
LCAOMinimize: 	Predicted alpha/alphaT>3.000000, increasing alphaT to 3.274827e-02.
	FillingsUpdate:  mu: -0.086049794  nElectrons: 391.000000
LCAOMinimize: Iter:   5  F: -2521.0230937697447189  |grad|_K:  2.140e-03  alpha:  3.423e-02  linmin:  4.956e-03  cgtest: -1.451e-01  t[s]:    122.47
	FillingsUpdate:  mu: -0.089916628  nElectrons: 391.000000
LCAOMinimize: Iter:   6  F: -2521.0332831277746664  |grad|_K:  1.591e-03  alpha:  1.373e-02  linmin:  6.089e-04  cgtest:  5.049e-01  t[s]:    136.53
LCAOMinimize: 	Predicted alpha/alphaT>3.000000, increasing alphaT to 4.120436e-02.
	FillingsUpdate:  mu: -0.056739508  nElectrons: 391.000000
LCAOMinimize: Iter:   7  F: -2521.0590639569104496  |grad|_K:  2.398e-03  alpha:  4.326e-02  linmin: -2.559e-04  cgtest: -4.858e-02  t[s]:    154.30
mpirun: Forwarding signal 18 to job
slurmstepd-node3225: error: *** JOB 43671 ON node3225 CANCELLED AT 2025-05-01T22:42:13 ***
