
*************** JDFTx 1.7.0  ***************

Start date and time: Sat Mar 29 12:41:17 2025
Executable /data2/jt577/jdftx_eat_withLibXC/build/jdftx with command-line: -i /data2/jt577/March_2025/pure_RSO/ionic_relax_magnetism/pure_NiO/runs/calc_20250329-124117/O/O.in
Running on hosts (process indices):  node3403 (0-8)
Divided in process groups (process indices):  0 (0)  1 (1)  2 (2)  3 (3)  4 (4)  5 (5)  6 (6)  7 (7)  8 (8)
Resource initialization completed at t[s]:      0.00
Run totals: 9 processes, 90 threads, 0 GPUs


Input parsed successfully to the following command list (including defaults):

add-mix 
add-U 	Ni d 0.22
basis kpoint-dependent
coords-type Lattice
core-overlap-check vector
coulomb-interaction Periodic
davidson-band-ratio 1.1
dump End IonicPositions Lattice Ecomponents
dump-name O.$VAR
elec-cutoff 30
elec-eigen-algo Davidson
elec-ex-corr gga-x-rpbe gga-c-pbe
elec-smearing Fermi 0.001
electronic-minimize  \
	dirUpdateScheme      FletcherReeves \
	linminMethod         DirUpdateRecommended \
	nIterations          1000 \
	history              15 \
	knormThreshold       0 \
	energyDiffThreshold  1e-06 \
	nEnergyDiff          5 \
	alphaTstart          1 \
	alphaTmin            1e-10 \
	updateTestStepSize   yes \
	alphaTreduceFactor   0.1 \
	alphaTincreaseFactor 3 \
	nAlphaAdjustMax      3 \
	wolfeEnergy          0.0001 \
	wolfeGradient        0.9 \
	fdTest               no
exchange-regularization WignerSeitzTruncated
fluid None
fluid-ex-corr (null) lda-PZ
fluid-gummel-loop 10 1.000000e-05
fluid-minimize  \
	dirUpdateScheme      PolakRibiere \
	linminMethod         DirUpdateRecommended \
	nIterations          100 \
	history              15 \
	knormThreshold       0 \
	energyDiffThreshold  0 \
	nEnergyDiff          2 \
	alphaTstart          1 \
	alphaTmin            1e-10 \
	updateTestStepSize   yes \
	alphaTreduceFactor   0.1 \
	alphaTincreaseFactor 3 \
	nAlphaAdjustMax      3 \
	wolfeEnergy          0.0001 \
	wolfeGradient        0.9 \
	fdTest               no
fluid-solvent H2O 55.338 ScalarEOS \
	epsBulk 78.4 \
	pMol 0.92466 \
	epsInf 1.77 \
	Pvap 1.06736e-10 \
	sigmaBulk 4.62e-05 \
	Rvdw 2.61727 \
	Res 1.42 \
	tauNuc 343133 \
	poleEl 15 7 1
forces-output-coords Positions
initial-magnetic-moments  \
	Ni 1 -1 1 -1 1 1 -1 -1 -1 1 -1 1 -1 -1 1 1
initial-state O.$VAR
ion Ni  0.000000000000000   0.000000000000000   0.150000000000000 1
ion Ni  0.500000000000000   0.000000000000000   0.150000000000000 1
ion Ni  0.000000000000000   0.500000000000000   0.150000000000000 1
ion Ni  0.500000000000000   0.500000000000000   0.150000000000000 1
ion Ni  0.250000000000000   0.250000000000000   0.050000000000000 1
ion Ni  0.250000000000000   0.750000000000000   0.050000000000000 1
ion Ni -0.250000000000000   0.250000000000000   0.050000000000000 1
ion Ni -0.250000000000000   0.750000000000000   0.050000000000000 1
ion Ni  0.000000000000000   0.000000000000000  -0.050000000000000 0
ion Ni  0.500000000000000   0.000000000000000  -0.050000000000000 0
ion Ni  0.000000000000000   0.500000000000000  -0.050000000000000 0
ion Ni  0.500000000000000   0.500000000000000  -0.050000000000000 0
ion Ni  0.250000000000000   0.250000000000000  -0.150000000000000 0
ion Ni  0.250000000000000   0.750000000000000  -0.150000000000000 0
ion Ni -0.250000000000000   0.250000000000000  -0.150000000000000 0
ion Ni -0.250000000000000   0.750000000000000  -0.150000000000000 0
ion O  0.250000000000000   0.250000000000000   0.150000000000000 1
ion O  0.250000000000000   0.750000000000000   0.150000000000000 1
ion O -0.250000000000000   0.250000000000000   0.150000000000000 1
ion O -0.250000000000000   0.750000000000000   0.150000000000000 1
ion O  0.000000000000000   0.000000000000000   0.050000000000000 1
ion O  0.500000000000000   0.000000000000000   0.050000000000000 1
ion O  0.000000000000000   0.500000000000000   0.050000000000000 1
ion O  0.500000000000000   0.500000000000000   0.050000000000000 1
ion O  0.250000000000000   0.250000000000000  -0.050000000000000 0
ion O  0.250000000000000   0.750000000000000  -0.050000000000000 0
ion O -0.250000000000000   0.250000000000000  -0.050000000000000 0
ion O -0.250000000000000   0.750000000000000  -0.050000000000000 0
ion O  0.000000000000000   0.000000000000000  -0.150000000000000 0
ion O  0.500000000000000   0.000000000000000  -0.150000000000000 0
ion O  0.000000000000000   0.500000000000000  -0.150000000000000 0
ion O  0.500000000000000   0.500000000000000  -0.150000000000000 0
ion O  0.000000000000000   0.000000000000000   0.230000000000000 1
ion-species SG15/$ID_ONCV_PBE.upf
ion-width 0
ionic-minimize  \
	dirUpdateScheme      L-BFGS \
	linminMethod         DirUpdateRecommended \
	nIterations          1000 \
	history              15 \
	knormThreshold       0.0001 \
	energyDiffThreshold  0.0001 \
	nEnergyDiff          3 \
	alphaTstart          1 \
	alphaTmin            1e-10 \
	updateTestStepSize   yes \
	alphaTreduceFactor   0.1 \
	alphaTincreaseFactor 3 \
	nAlphaAdjustMax      3 \
	wolfeEnergy          0.0001 \
	wolfeGradient        0.9 \
	fdTest               no
kpoint   0.500000000000   0.500000000000   0.500000000000  1.00000000000000
kpoint-folding 3 3 1 
latt-move-scale 1 1 1
latt-scale 1 1 1 
lattice  \
	   7.880000000000000    7.880000000000000    0.000000000000000  \
	   7.880000000000000   -7.880000000000000    0.000000000000000  \
	   0.000000000000000    0.000000000000000   39.399999999999999 
lattice-minimize  \
	dirUpdateScheme      L-BFGS \
	linminMethod         DirUpdateRecommended \
	nIterations          0 \
	history              15 \
	knormThreshold       0 \
	energyDiffThreshold  1e-06 \
	nEnergyDiff          2 \
	alphaTstart          1 \
	alphaTmin            1e-10 \
	updateTestStepSize   yes \
	alphaTreduceFactor   0.1 \
	alphaTincreaseFactor 3 \
	nAlphaAdjustMax      3 \
	wolfeEnergy          0.0001 \
	wolfeGradient        0.9 \
	fdTest               no
lcao-params -1 1e-06 0.001
pcm-variant GLSSA13
spintype z-spin
subspace-rotation-factor 1 yes
symmetries none
symmetry-threshold 0.0001


Applied RMS atom displacement 0 bohrs to make symmetries exact.

---------- Initializing the Grid ----------
R = 
[         7.88         7.88            0  ]
[         7.88        -7.88            0  ]
[            0            0         39.4  ]
unit cell volume = 4893.04
G =
[   0.398679   0.398679         -0  ]
[   0.398679  -0.398679         -0  ]
[         -0         -0   0.159472  ]
Minimum fftbox size, Smin = [  56  56  196  ]
Chosen fftbox size, S = [  56  56  196  ]

---------- Exchange Correlation functional ----------
Initialized LibXC exchange functional 'Hammer, Hansen, and Norskov'
Initialized LibXC correlation functional 'Perdew, Burke & Ernzerhof'

---------- Setting up pseudopotentials ----------
Width of ionic core gaussian charges (only for fluid interactions / plotting) set to 0

Reading pseudopotential file '/data2/jt577/jdftx_eat_withLibXC/build/pseudopotentials/SG15/Ni_ONCV_PBE.upf':
  'Ni' pseudopotential, 'PBE' functional
  Generated using ONCVPSP code by D. R. Hamann
  Author: Martin Schlipf and Francois Gygi  Date: 150915.
  18 valence electrons, 4 orbitals, 6 projectors, 1292 radial grid points, with lMax = 2
  Transforming local potential to a uniform radial grid of dG=0.02 with 1368 points.
  Transforming nonlocal projectors to a uniform radial grid of dG=0.02 with 528 points.
    3S    l: 0   occupation:  2.0   eigenvalue: -4.081355
    3P    l: 1   occupation:  6.0   eigenvalue: -2.623460
    4S    l: 0   occupation:  2.0   eigenvalue: -0.207378
    3D    l: 2   occupation:  8.0   eigenvalue: -0.326118
  Transforming atomic orbitals to a uniform radial grid of dG=0.02 with 528 points.
  WARNING: large normalization error in atomic orbital 1s (integral: 0.000006).
  Core radius for overlap checks: 1.99 bohrs.
  Reading pulay file /data2/jt577/jdftx_eat_withLibXC/build/pseudopotentials/SG15/Ni_ONCV_PBE.pulay ... using dE_dnG = -7.250568e-04 computed for Ecut = 30.

Reading pseudopotential file '/data2/jt577/jdftx_eat_withLibXC/build/pseudopotentials/SG15/O_ONCV_PBE.upf':
  'O' pseudopotential, 'PBE' functional
  Generated using ONCVPSP code by D. R. Hamann
  Author: Martin Schlipf and Francois Gygi  Date: 150915.
  6 valence electrons, 2 orbitals, 4 projectors, 936 radial grid points, with lMax = 1
  Transforming local potential to a uniform radial grid of dG=0.02 with 1368 points.
  Transforming nonlocal projectors to a uniform radial grid of dG=0.02 with 528 points.
    2S    l: 0   occupation:  2.0   eigenvalue: -0.880572
    2P    l: 1   occupation:  4.0   eigenvalue: -0.331869
  Transforming atomic orbitals to a uniform radial grid of dG=0.02 with 528 points.
  Core radius for overlap checks: 1.29 bohrs.
  Reading pulay file /data2/jt577/jdftx_eat_withLibXC/build/pseudopotentials/SG15/O_ONCV_PBE.pulay ... using dE_dnG = -8.209514e-03 computed for Ecut = 30.

Initialized 2 species with 33 total atoms.

Folded 1 k-points by 3x3x1 to 9 k-points.

---------- Setting up k-points, bands, fillings ----------
No reducable k-points. 
Computing the number of bands and number of electrons
Calculating initial fillings.
nElectrons: 390.000000   nBands: 228   nStates: 18

----- Setting up reduced wavefunction bases (one per k-point) -----
average nbasis = 38425.778 , ideal nbasis = 38402.061

---------- Setting up ewald sum ----------
Optimum gaussian width for ewald sums = 3.781673 bohr.
Real space sum over 605 unit cells with max indices [  5  5  2  ]
Reciprocal space sum over 5915 terms with max indices [  6  6  17  ]

---------- Allocating electronic variables ----------
Initializing wave functions:  linear combination of atomic orbitals
Ni (M=1) pseudo-atom majority spin occupations:   s ( 1 0.5 )  p ( 3 )  d ( 5 )
Ni (M=1) pseudo-atom minority spin occupations:   s ( 1 0 )  p ( 3 )  d ( 4.5 )
O pseudo-atom occupations:   s ( 2 )  p ( 4 )
	FillingsUpdate:  mu: +1.809234037  nElectrons: 390.000000  magneticMoment: [ Abs: 0.19800  Tot: -0.00000 ]
LCAOMinimize: Iter:   0  F: -2503.8302046141379833  |grad|_K:  2.340e-02  alpha:  1.000e+00
LCAOMinimize: 	Step increased F by 4.472881e+01, reducing alpha to 4.529139e-02.
LCAOMinimize: 	Step increased F by 2.071999e+00, reducing alpha to 4.529139e-03.
	FillingsUpdate:  mu: +1.669410386  nElectrons: 390.000000  magneticMoment: [ Abs: 0.20496  Tot: -0.00000 ]
LCAOMinimize: Iter:   1  F: -2506.8985821444935027  |grad|_K:  2.548e-02  alpha:  4.529e-03  linmin: -1.315e-01  cgtest:  7.767e-01  t[s]:     53.81
LCAOMinimize: 	Wrong curvature in test step, increasing alphaT to 1.358742e-02.
	FillingsUpdate:  mu: +1.330267155  nElectrons: 390.000000  magneticMoment: [ Abs: 0.23468  Tot: +0.00000 ]
LCAOMinimize: Iter:   2  F: -2511.2981092556128715  |grad|_K:  2.183e-02  alpha: -1.604e-02  linmin: -1.959e-01  cgtest:  8.910e-01  t[s]:     65.38
LCAOMinimize: Encountered beta<0, resetting CG.
LCAOMinimize: 	Step increased F by 4.020506e+01, reducing alpha to 4.505208e-02.
LCAOMinimize: 	Step increased F by 3.111624e+00, reducing alpha to 4.505208e-03.
	FillingsUpdate:  mu: +1.136137651  nElectrons: 390.000000  magneticMoment: [ Abs: 0.23883  Tot: +0.00000 ]
LCAOMinimize: Iter:   3  F: -2513.1402116755466523  |grad|_K:  1.943e-02  alpha:  4.505e-03  linmin: -1.823e-01  cgtest:  9.415e-01  t[s]:     95.72
LCAOMinimize: Encountered beta<0, resetting CG.
LCAOMinimize: 	Wrong curvature in test step, increasing alphaT to 1.351562e-02.
	FillingsUpdate:  mu: +0.906946912  nElectrons: 390.000000  magneticMoment: [ Abs: 0.25467  Tot: +0.00000 ]
LCAOMinimize: Iter:   4  F: -2514.8650895124724229  |grad|_K:  1.890e-02  alpha: -3.042e-02  linmin: -1.850e-01  cgtest:  8.347e-01  t[s]:    107.33
LCAOMinimize: 	Step increased F by 4.119612e+01, reducing alpha to 4.404810e-02.
LCAOMinimize: 	Step increased F by 6.167836e+00, reducing alpha to 4.404810e-03.
	FillingsUpdate:  mu: +0.606917810  nElectrons: 390.000000  magneticMoment: [ Abs: 0.27060  Tot: -0.00000 ]
LCAOMinimize: Iter:   5  F: -2516.5423763863445856  |grad|_K:  1.434e-02  alpha:  4.405e-03  linmin: -1.815e-01  cgtest:  8.901e-01  t[s]:    137.63
LCAOMinimize: Encountered beta<0, resetting CG.
LCAOMinimize: 	Predicted alpha/alphaT>3.000000, increasing alphaT to 1.321443e-02.
	FillingsUpdate:  mu: -0.013127948  nElectrons: 390.000000  magneticMoment: [ Abs: 0.29202  Tot: +0.00000 ]
LCAOMinimize: Iter:   6  F: -2519.0727248464409058  |grad|_K:  7.448e-03  alpha:  2.331e-02  linmin: -4.636e-02  cgtest: -1.856e-01  t[s]:    153.94
	FillingsUpdate:  mu: -0.078690600  nElectrons: 390.000000  magneticMoment: [ Abs: 0.34418  Tot: -0.00000 ]
LCAOMinimize: Iter:   7  F: -2519.6607353671524834  |grad|_K:  5.779e-03  alpha:  1.280e-02  linmin: -9.275e-03  cgtest:  2.099e-01  t[s]:    166.40
	FillingsUpdate:  mu: -0.144084248  nElectrons: 390.000000  magneticMoment: [ Abs: 0.36771  Tot: -0.00000 ]
LCAOMinimize: Iter:   8  F: -2519.8657408721496722  |grad|_K:  3.720e-03  alpha:  1.155e-02  linmin:  1.147e-02  cgtest:  6.909e-01  t[s]:    178.85
LCAOMinimize: Encountered beta<0, resetting CG.
	FillingsUpdate:  mu: -0.127254268  nElectrons: 390.000000  magneticMoment: [ Abs: 0.35399  Tot: -0.00000 ]
LCAOMinimize: Iter:   9  F: -2519.9827104462024181  |grad|_K:  9.034e-04  alpha:  1.714e-02  linmin: -2.835e-02  cgtest:  3.671e-01  t[s]:    191.26
LCAOMinimize: Encountered beta<0, resetting CG.
	FillingsUpdate:  mu: -0.108004107  nElectrons: 390.000000  magneticMoment: [ Abs: 0.37230  Tot: +0.00000 ]
LCAOMinimize: Iter:  10  F: -2519.9978801028919406  |grad|_K:  1.479e-03  alpha:  3.945e-02  linmin:  4.574e-05  cgtest: -8.722e-02  t[s]:    203.68
	FillingsUpdate:  mu: -0.068954701  nElectrons: 390.000000  magneticMoment: [ Abs: 0.49265  Tot: +0.00000 ]
LCAOMinimize: Iter:  11  F: -2520.0365559649294482  |grad|_K:  3.403e-03  alpha:  5.810e-02  linmin:  2.269e-03  cgtest: -2.329e-01  t[s]:    215.99
	FillingsUpdate:  mu: -0.068541731  nElectrons: 390.000000  magneticMoment: [ Abs: 0.49475  Tot: -0.00000 ]
LCAOMinimize: Iter:  12  F: -2520.0365655539703766  |grad|_K:  3.477e-03  alpha:  3.607e-04  linmin:  2.595e-05  cgtest:  9.973e-01  t[s]:    228.43
LCAOMinimize: 	Predicted alpha/alphaT>3.000000, increasing alphaT to 1.082052e-03.
LCAOMinimize: 	Predicted alpha/alphaT>3.000000, increasing alphaT to 3.246156e-03.
LCAOMinimize: 	Predicted alpha/alphaT>3.000000, increasing alphaT to 9.738468e-03.
	FillingsUpdate:  mu: -0.024590728  nElectrons: 390.000000  magneticMoment: [ Abs: 0.53734  Tot: +0.00000 ]
LCAOMinimize: Iter:  13  F: -2520.0403457212332796  |grad|_K:  6.594e-03  alpha:  2.221e-02  linmin:  2.178e-02  cgtest: -4.574e-01  t[s]:    248.08
LCAOMinimize: 	Bad step direction: g.d > 0.
LCAOMinimize: 	Undoing step.
LCAOMinimize: 	Step failed: resetting search direction.
	FillingsUpdate:  mu: -0.024590728  nElectrons: 390.000000  magneticMoment: [ Abs: 0.53734  Tot: +0.00000 ]
LCAOMinimize: Iter:  14  F: -2520.0403457212332796  |grad|_K:  6.594e-03  alpha:  0.000e+00
	FillingsUpdate:  mu: -0.090300858  nElectrons: 390.000000  magneticMoment: [ Abs: 0.51134  Tot: -0.00000 ]
LCAOMinimize: Iter:  15  F: -2520.1499013818993262  |grad|_K:  2.135e-03  alpha:  8.533e-03  linmin:  7.888e-02  cgtest: -1.001e+00  t[s]:    269.29
LCAOMinimize: 	Bad step direction: g.d > 0.
LCAOMinimize: 	Undoing step.
LCAOMinimize: 	Step failed: resetting search direction.
	FillingsUpdate:  mu: -0.090300858  nElectrons: 390.000000  magneticMoment: [ Abs: 0.51134  Tot: -0.00000 ]
LCAOMinimize: Iter:  16  F: -2520.1499013818993262  |grad|_K:  2.135e-03  alpha:  0.000e+00
	FillingsUpdate:  mu: -0.101722395  nElectrons: 390.000000  magneticMoment: [ Abs: 0.52811  Tot: -0.00000 ]
LCAOMinimize: Iter:  17  F: -2520.1669577092175132  |grad|_K:  6.804e-04  alpha:  7.854e-03  linmin:  6.661e-03  cgtest: -9.836e-02  t[s]:    290.49
LCAOMinimize: 	Predicted alpha/alphaT>3.000000, increasing alphaT to 2.356128e-02.
LCAOMinimize: 	Predicted alpha/alphaT>3.000000, increasing alphaT to 7.068385e-02.
	FillingsUpdate:  mu: -0.096554288  nElectrons: 390.000000  magneticMoment: [ Abs: 0.59967  Tot: -0.00000 ]
LCAOMinimize: Iter:  18  F: -2520.1871349899320194  |grad|_K:  9.435e-04  alpha:  9.730e-02  linmin: -6.621e-05  cgtest:  2.573e-01  t[s]:    309.87
	FillingsUpdate:  mu: -0.096664637  nElectrons: 390.000000  magneticMoment: [ Abs: 0.66543  Tot: +0.00000 ]
LCAOMinimize: Iter:  19  F: -2520.1982304690313867  |grad|_K:  1.539e-03  alpha:  3.073e-02  linmin:  3.673e-04  cgtest: -1.221e-01  t[s]:    322.16
	FillingsUpdate:  mu: -0.080726313  nElectrons: 390.000000  magneticMoment: [ Abs: 1.07316  Tot: +0.00000 ]
LCAOMinimize: Iter:  20  F: -2520.2444616729085283  |grad|_K:  1.352e-03  alpha:  4.459e-02  linmin: -6.816e-04  cgtest: -2.380e-01  t[s]:    334.64
	FillingsUpdate:  mu: -0.090365228  nElectrons: 390.000000  magneticMoment: [ Abs: 1.39534  Tot: +0.00000 ]
LCAOMinimize: Iter:  21  F: -2520.2798373133268797  |grad|_K:  1.052e-03  alpha:  3.634e-02  linmin: -4.612e-04  cgtest:  4.416e-01  t[s]:    347.17
	FillingsUpdate:  mu: -0.069220076  nElectrons: 390.000000  magneticMoment: [ Abs: 1.51738  Tot: -0.00000 ]
LCAOMinimize: Iter:  22  F: -2520.2894068978071118  |grad|_K:  3.263e-04  alpha:  1.763e-02  linmin:  1.300e-04  cgtest:  1.146e-01  t[s]:    359.90
	FillingsUpdate:  mu: -0.070028093  nElectrons: 390.000000  magneticMoment: [ Abs: 1.64311  Tot: +0.00000 ]
LCAOMinimize: Iter:  23  F: -2520.2911912421350280  |grad|_K:  4.987e-04  alpha:  3.583e-02  linmin:  2.785e-04  cgtest:  6.119e-03  t[s]:    372.50
	FillingsUpdate:  mu: -0.070276778  nElectrons: 390.000000  magneticMoment: [ Abs: 1.90629  Tot: -0.00000 ]
LCAOMinimize: Iter:  24  F: -2520.2941450954840548  |grad|_K:  3.976e-04  alpha:  2.508e-02  linmin:  6.685e-05  cgtest:  7.975e-02  t[s]:    385.07
LCAOMinimize: 	Predicted alpha/alphaT>3.000000, increasing alphaT to 7.522859e-02.
LCAOMinimize: 	Predicted alpha/alphaT>3.000000, increasing alphaT to 2.256858e-01.
	FillingsUpdate:  mu: -0.080055840  nElectrons: 390.000000  magneticMoment: [ Abs: 3.04914  Tot: -0.00000 ]
LCAOMinimize: Iter:  25  F: -2520.3072944898112837  |grad|_K:  1.118e-03  alpha:  1.502e-01  linmin:  1.334e-04  cgtest:  4.914e-01  t[s]:    404.94
	FillingsUpdate:  mu: -0.094940904  nElectrons: 390.000000  magneticMoment: [ Abs: 5.23164  Tot: -0.00000 ]
LCAOMinimize: Iter:  26  F: -2520.3326765779233938  |grad|_K:  8.752e-04  alpha:  6.830e-02  linmin:  1.979e-03  cgtest:  4.985e-01  t[s]:    417.30
	FillingsUpdate:  mu: -0.077357887  nElectrons: 390.000000  magneticMoment: [ Abs: 5.60100  Tot: +0.00000 ]
LCAOMinimize: Iter:  27  F: -2520.3456081870708658  |grad|_K:  5.556e-04  alpha:  3.763e-02  linmin:  9.181e-04  cgtest: -6.881e-03  t[s]:    429.95
	FillingsUpdate:  mu: -0.078213040  nElectrons: 390.000000  magneticMoment: [ Abs: 5.79368  Tot: -0.00000 ]
LCAOMinimize: Iter:  28  F: -2520.3490374701855217  |grad|_K:  5.056e-04  alpha:  2.401e-02  linmin:  2.678e-04  cgtest: -2.201e-02  t[s]:    442.58
	FillingsUpdate:  mu: -0.083099493  nElectrons: 390.000000  magneticMoment: [ Abs: 6.28346  Tot: +0.00000 ]
LCAOMinimize: Iter:  29  F: -2520.3550587030199495  |grad|_K:  4.925e-04  alpha:  4.908e-02  linmin: -2.561e-03  cgtest:  4.595e-02  t[s]:    455.21
	FillingsUpdate:  mu: -0.065336598  nElectrons: 390.000000  magneticMoment: [ Abs: 7.54565  Tot: +0.00000 ]
LCAOMinimize: Iter:  30  F: -2520.3677420914509639  |grad|_K:  5.826e-04  alpha:  1.085e-01  linmin:  8.886e-04  cgtest:  1.662e-02  t[s]:    468.02
LCAOMinimize: None of the convergence criteria satisfied after 30 iterations.


---- Citations for features of the code used in this run ----

   Software package:
      R. Sundararaman, K. Letchworth-Weaver, K.A. Schwarz, D. Gunceler, Y. Ozhabes and T.A. Arias, 'JDFTx: software for joint density-functional theory', SoftwareX 6, 278 (2017)

   Simplified rotationally-invariant DFT+U:
      S. L. Dudarev et al., Phys. Rev. B 57, 1505 (1998)

   LibXC library of exchange-correlation functions:
      M. A. L. Marques, M. J. T. Oliveira and T. Burnus, Comput. Phys. Commun. 183, 2272 (2012)

   Hammer, Hansen, and Norskov exchange functional:
      B. Hammer, L. B. Hansen, and J. K. Nørskov, Phys. Rev. B 59, 7413 (1999)

   Perdew, Burke & Ernzerhof correlation functional:
      J. P. Perdew, K. Burke, and M. Ernzerhof, Phys. Rev. Lett. 77, 3865 (1996)

   Pseudopotentials:
      M Schlipf and F Gygi, Comput. Phys. Commun. 196, 36 (2015)

   Total energy minimization with Auxiliary Hamiltonian:
      C. Freysoldt, S. Boeck, and J. Neugebauer, Phys. Rev. B 79, 241103(R) (2009)

This list may not be complete. Please suggest additional citations or
report any other bugs at https://github.com/shankar1729/jdftx/issues

Initialization completed successfully at t[s]:    473.34


-------- Electronic minimization -----------
	FillingsUpdate:  mu: -0.065336595  nElectrons: 390.000000  magneticMoment: [ Abs: 7.54565  Tot: +0.00000 ]
ElecMinimize: Iter:   0  F: -2520.367742091451419  |grad|_K:  1.748e-03  alpha:  1.000e+00
	FillingsUpdate:  mu: +1.051582222  nElectrons: 390.000000  magneticMoment: [ Abs: 8.78359  Tot: -0.00000 ]
	SubspaceRotationAdjust: set factor to 0.998
ElecMinimize: Iter:   1  F: -2640.267501739591353  |grad|_K:  2.234e-03  alpha:  4.745e-01  linmin:  8.397e-02  t[s]:    556.04
ElecMinimize: 	Step increased F by 4.409282e+01, reducing alpha to 1.730211e-02.
	FillingsUpdate:  mu: +0.900438098  nElectrons: 390.000000  magneticMoment: [ Abs: 8.90052  Tot: +0.00000 ]
	SubspaceRotationAdjust: set factor to 0.98
ElecMinimize: Iter:   2  F: -2647.200706087257913  |grad|_K:  1.365e-03  alpha:  1.730e-02  linmin: -2.479e-03  t[s]:    666.60
ElecMinimize: 	Predicted alpha/alphaT>3.000000, increasing alphaT to 5.190633e-02.
	FillingsUpdate:  mu: +0.810216686  nElectrons: 390.000000  magneticMoment: [ Abs: 8.46668  Tot: -0.00000 ]
	SubspaceRotationAdjust: set factor to 0.941
ElecMinimize: Iter:   3  F: -2693.140524158941389  |grad|_K:  1.059e-03  alpha:  1.270e-01  linmin: -5.840e-04  t[s]:    769.21
	FillingsUpdate:  mu: +1.301741460  nElectrons: 390.000000  magneticMoment: [ Abs: 8.56769  Tot: +0.00000 ]
	SubspaceRotationAdjust: set factor to 0.55
ElecMinimize: Iter:   4  F: -2704.049705780991189  |grad|_K:  1.862e-03  alpha:  6.595e-02  linmin:  1.003e-03  t[s]:    838.15
	FillingsUpdate:  mu: +0.781340000  nElectrons: 390.000000  magneticMoment: [ Abs: 7.84364  Tot: +0.00000 ]
	SubspaceRotationAdjust: set factor to 0.62
ElecMinimize: Iter:   5  F: -2712.899600180472589  |grad|_K:  9.068e-04  alpha:  1.777e-02  linmin: -3.013e-04  t[s]:    910.24
	FillingsUpdate:  mu: +0.426739860  nElectrons: 390.000000  magneticMoment: [ Abs: 6.81384  Tot: -0.00000 ]
	SubspaceRotationAdjust: set factor to 0.58
ElecMinimize: Iter:   6  F: -2717.028685974277778  |grad|_K:  6.964e-04  alpha:  2.717e-02  linmin: -5.102e-04  t[s]:    982.09
	FillingsUpdate:  mu: +0.639603734  nElectrons: 390.000000  magneticMoment: [ Abs: 4.53234  Tot: -0.00000 ]
	SubspaceRotationAdjust: set factor to 0.465
ElecMinimize: Iter:   7  F: -2721.896116301531038  |grad|_K:  7.420e-04  alpha:  5.127e-02  linmin: -7.805e-04  t[s]:   1054.49
	FillingsUpdate:  mu: +0.061220313  nElectrons: 390.000000  magneticMoment: [ Abs: 3.84808  Tot: -0.00000 ]
	SubspaceRotationAdjust: set factor to 0.555
ElecMinimize: Iter:   8  F: -2725.567234843840197  |grad|_K:  4.103e-04  alpha:  3.408e-02  linmin:  3.324e-05  t[s]:   1127.54
	FillingsUpdate:  mu: +0.330915136  nElectrons: 390.000000  magneticMoment: [ Abs: 3.48930  Tot: -0.00000 ]
	SubspaceRotationAdjust: set factor to 0.481
ElecMinimize: Iter:   9  F: -2727.192544956845722  |grad|_K:  4.746e-04  alpha:  5.991e-02  linmin: -1.250e-04  t[s]:   1199.57
	FillingsUpdate:  mu: +0.229646899  nElectrons: 390.000000  magneticMoment: [ Abs: 3.64270  Tot: +0.00000 ]
	SubspaceRotationAdjust: set factor to 0.646
ElecMinimize: Iter:  10  F: -2728.741406345563519  |grad|_K:  3.243e-04  alpha:  4.047e-02  linmin: -4.345e-05  t[s]:   1271.69
	FillingsUpdate:  mu: +0.373560108  nElectrons: 390.000000  magneticMoment: [ Abs: 4.18271  Tot: -0.00000 ]
	SubspaceRotationAdjust: set factor to 0.486
ElecMinimize: Iter:  11  F: -2729.554551135506244  |grad|_K:  4.340e-04  alpha:  4.821e-02  linmin:  2.250e-05  t[s]:   1344.86
	FillingsUpdate:  mu: +0.279677667  nElectrons: 390.000000  magneticMoment: [ Abs: 4.29426  Tot: +0.00000 ]
	SubspaceRotationAdjust: set factor to 0.592
ElecMinimize: Iter:  12  F: -2730.603343719856639  |grad|_K:  3.064e-04  alpha:  3.513e-02  linmin: -4.319e-05  t[s]:   1418.91
	FillingsUpdate:  mu: +0.169688834  nElectrons: 390.000000  magneticMoment: [ Abs: 4.02639  Tot: -0.00000 ]
	SubspaceRotationAdjust: set factor to 0.532
ElecMinimize: Iter:  13  F: -2731.041423101262808  |grad|_K:  2.750e-04  alpha:  2.825e-02  linmin:  8.064e-06  t[s]:   1491.58
	FillingsUpdate:  mu: +0.292815901  nElectrons: 390.000000  magneticMoment: [ Abs: 3.57731  Tot: -0.00000 ]
	SubspaceRotationAdjust: set factor to 0.354
ElecMinimize: Iter:  14  F: -2731.707718706018568  |grad|_K:  4.009e-04  alpha:  5.729e-02  linmin:  4.397e-05  t[s]:   1564.95
	FillingsUpdate:  mu: +0.129758019  nElectrons: 390.000000  magneticMoment: [ Abs: 3.59685  Tot: -0.00000 ]
	SubspaceRotationAdjust: set factor to 0.656
ElecMinimize: Iter:  15  F: -2732.389068864438741  |grad|_K:  2.473e-04  alpha:  2.735e-02  linmin: -5.914e-05  t[s]:   1636.02
	FillingsUpdate:  mu: +0.215106910  nElectrons: 390.000000  magneticMoment: [ Abs: 3.77345  Tot: -0.00000 ]
	SubspaceRotationAdjust: set factor to 0.597
ElecMinimize: Iter:  16  F: -2732.740418516036243  |grad|_K:  3.054e-04  alpha:  3.459e-02  linmin:  4.247e-06  t[s]:   1707.69
	FillingsUpdate:  mu: +0.244051119  nElectrons: 390.000000  magneticMoment: [ Abs: 3.84577  Tot: +0.00000 ]
	SubspaceRotationAdjust: set factor to 0.638
ElecMinimize: Iter:  17  F: -2733.274731244243412  |grad|_K:  2.654e-04  alpha:  3.636e-02  linmin: -6.010e-06  t[s]:   1781.19
	FillingsUpdate:  mu: +0.239502928  nElectrons: 390.000000  magneticMoment: [ Abs: 3.45568  Tot: -0.00000 ]
	SubspaceRotationAdjust: set factor to 0.553
ElecMinimize: Iter:  18  F: -2733.605228447622267  |grad|_K:  2.818e-04  alpha:  2.985e-02  linmin: -1.403e-05  t[s]:   1853.50
	FillingsUpdate:  mu: +0.131244100  nElectrons: 390.000000  magneticMoment: [ Abs: 3.82210  Tot: -0.00000 ]
	SubspaceRotationAdjust: set factor to 0.701
ElecMinimize: Iter:  19  F: -2734.186534585797745  |grad|_K:  2.057e-04  alpha:  4.589e-02  linmin:  1.366e-04  t[s]:   1925.18
	FillingsUpdate:  mu: +0.092508565  nElectrons: 390.000000  magneticMoment: [ Abs: 3.99357  Tot: +0.00000 ]
	SubspaceRotationAdjust: set factor to 0.806
ElecMinimize: Iter:  20  F: -2734.332258118630307  |grad|_K:  2.077e-04  alpha:  1.816e-02  linmin: -3.261e-04  t[s]:   1997.06
	FillingsUpdate:  mu: +0.047959919  nElectrons: 390.000000  magneticMoment: [ Abs: 3.79800  Tot: +0.00000 ]
	SubspaceRotationAdjust: set factor to 0.85
ElecMinimize: Iter:  21  F: -2734.496757116784920  |grad|_K:  1.989e-04  alpha:  1.821e-02  linmin:  3.970e-04  t[s]:   2069.32
	FillingsUpdate:  mu: +0.045090921  nElectrons: 390.000000  magneticMoment: [ Abs: 3.77962  Tot: -0.00000 ]
	SubspaceRotationAdjust: set factor to 1.06
ElecMinimize: Iter:  22  F: -2734.512046936354636  |grad|_K:  2.022e-04  alpha:  2.737e-03  linmin: -2.703e-04  t[s]:   2142.08
	FillingsUpdate:  mu: +0.041112199  nElectrons: 390.000000  magneticMoment: [ Abs: 3.78238  Tot: -0.00000 ]
	SubspaceRotationAdjust: set factor to 1.14
ElecMinimize: Iter:  23  F: -2734.558823741722790  |grad|_K:  1.942e-04  alpha:  6.676e-03  linmin:  3.795e-04  t[s]:   2214.84
	FillingsUpdate:  mu: +0.040669159  nElectrons: 390.000000  magneticMoment: [ Abs: 3.79420  Tot: +0.00000 ]
	SubspaceRotationAdjust: set factor to 1.21
ElecMinimize: Iter:  24  F: -2734.567547399651630  |grad|_K:  1.888e-04  alpha:  1.980e-03  linmin: -4.923e-05  t[s]:   2286.79
	FillingsUpdate:  mu: +0.041840089  nElectrons: 390.000000  magneticMoment: [ Abs: 3.82857  Tot: -0.00000 ]
	SubspaceRotationAdjust: set factor to 1.31
ElecMinimize: Iter:  25  F: -2734.583603612298248  |grad|_K:  1.750e-04  alpha:  2.750e-03  linmin:  1.257e-05  t[s]:   2357.97
	FillingsUpdate:  mu: +0.046690911  nElectrons: 390.000000  magneticMoment: [ Abs: 3.86962  Tot: +0.00000 ]
	SubspaceRotationAdjust: set factor to 1.44
ElecMinimize: Iter:  26  F: -2734.596170000696020  |grad|_K:  1.640e-04  alpha:  2.620e-03  linmin: -8.021e-06  t[s]:   2428.67
	FillingsUpdate:  mu: +0.052553343  nElectrons: 390.000000  magneticMoment: [ Abs: 3.91417  Tot: +0.00000 ]
	SubspaceRotationAdjust: set factor to 1.5
ElecMinimize: Iter:  27  F: -2734.608004059836276  |grad|_K:  1.565e-04  alpha:  2.765e-03  linmin: -1.465e-05  t[s]:   2501.15
	FillingsUpdate:  mu: +0.063168037  nElectrons: 390.000000  magneticMoment: [ Abs: 3.95861  Tot: +0.00000 ]
	SubspaceRotationAdjust: set factor to 1.33
ElecMinimize: Iter:  28  F: -2734.619768021258551  |grad|_K:  1.574e-04  alpha:  3.005e-03  linmin: -5.588e-06  t[s]:   2572.17
	FillingsUpdate:  mu: +0.081544963  nElectrons: 390.000000  magneticMoment: [ Abs: 4.00514  Tot: -0.00000 ]
	SubspaceRotationAdjust: set factor to 1.01
ElecMinimize: Iter:  29  F: -2734.632519752994995  |grad|_K:  1.608e-04  alpha:  3.246e-03  linmin:  7.489e-06  t[s]:   2642.77
	FillingsUpdate:  mu: +0.095573157  nElectrons: 390.000000  magneticMoment: [ Abs: 4.05651  Tot: -0.00000 ]
	SubspaceRotationAdjust: set factor to 0.721
ElecMinimize: Iter:  30  F: -2734.646546134820710  |grad|_K:  1.532e-04  alpha:  3.447e-03  linmin:  8.810e-06  t[s]:   2714.55
	FillingsUpdate:  mu: +0.103902664  nElectrons: 390.000000  magneticMoment: [ Abs: 4.11097  Tot: -0.00000 ]
	SubspaceRotationAdjust: set factor to 0.523
ElecMinimize: Iter:  31  F: -2734.660885324243736  |grad|_K:  1.346e-04  alpha:  3.882e-03  linmin: -6.116e-07  t[s]:   2785.80
	FillingsUpdate:  mu: +0.102511938  nElectrons: 390.000000  magneticMoment: [ Abs: 4.16360  Tot: +0.00000 ]
	SubspaceRotationAdjust: set factor to 0.407
ElecMinimize: Iter:  32  F: -2734.674429290407716  |grad|_K:  1.152e-04  alpha:  4.729e-03  linmin: -8.078e-06  t[s]:   2857.37
	FillingsUpdate:  mu: +0.093947293  nElectrons: 390.000000  magneticMoment: [ Abs: 4.21078  Tot: -0.00000 ]
	SubspaceRotationAdjust: set factor to 0.351
ElecMinimize: Iter:  33  F: -2734.686800380260593  |grad|_K:  1.018e-04  alpha:  5.884e-03  linmin: -1.220e-05  t[s]:   2928.08
	FillingsUpdate:  mu: +0.083404431  nElectrons: 390.000000  magneticMoment: [ Abs: 4.25185  Tot: +0.00000 ]
	SubspaceRotationAdjust: set factor to 0.335
ElecMinimize: Iter:  34  F: -2734.698299405604303  |grad|_K:  9.490e-05  alpha:  6.994e-03  linmin: -1.551e-05  t[s]:   3001.41
	FillingsUpdate:  mu: +0.071638997  nElectrons: 390.000000  magneticMoment: [ Abs: 4.28809  Tot: +0.00000 ]
	SubspaceRotationAdjust: set factor to 0.344
ElecMinimize: Iter:  35  F: -2734.709339118470325  |grad|_K:  9.292e-05  alpha:  7.705e-03  linmin: -2.183e-05  t[s]:   3073.35
	FillingsUpdate:  mu: +0.065376941  nElectrons: 390.000000  magneticMoment: [ Abs: 4.32339  Tot: -0.00000 ]
	SubspaceRotationAdjust: set factor to 0.362
ElecMinimize: Iter:  36  F: -2734.720373136016406  |grad|_K:  9.452e-05  alpha:  8.008e-03  linmin: -3.007e-05  t[s]:   3143.71
	FillingsUpdate:  mu: +0.060145153  nElectrons: 390.000000  magneticMoment: [ Abs: 4.36551  Tot: +0.00000 ]
	SubspaceRotationAdjust: set factor to 0.37
ElecMinimize: Iter:  37  F: -2734.731923395067042  |grad|_K:  9.875e-05  alpha:  8.065e-03  linmin: -3.656e-05  t[s]:   3216.28
	FillingsUpdate:  mu: +0.059158102  nElectrons: 390.000000  magneticMoment: [ Abs: 4.42373  Tot: +0.00000 ]
	SubspaceRotationAdjust: set factor to 0.364
ElecMinimize: Iter:  38  F: -2734.744409906005785  |grad|_K:  1.038e-04  alpha:  7.954e-03  linmin: -4.087e-05  t[s]:   3287.75
	FillingsUpdate:  mu: +0.064163645  nElectrons: 390.000000  magneticMoment: [ Abs: 4.50365  Tot: -0.00000 ]
	SubspaceRotationAdjust: set factor to 0.355
ElecMinimize: Iter:  39  F: -2734.757859159491545  |grad|_K:  1.071e-04  alpha:  7.728e-03  linmin: -4.575e-05  t[s]:   3361.44
	FillingsUpdate:  mu: +0.067486176  nElectrons: 390.000000  magneticMoment: [ Abs: 4.60333  Tot: -0.00000 ]
	SubspaceRotationAdjust: set factor to 0.359
ElecMinimize: Iter:  40  F: -2734.771893338691370  |grad|_K:  1.076e-04  alpha:  7.540e-03  linmin: -5.064e-05  t[s]:   3433.42
	FillingsUpdate:  mu: +0.070655345  nElectrons: 390.000000  magneticMoment: [ Abs: 4.71547  Tot: -0.00000 ]
	SubspaceRotationAdjust: set factor to 0.389
ElecMinimize: Iter:  41  F: -2734.785861299229055  |grad|_K:  1.062e-04  alpha:  7.405e-03  linmin: -4.892e-05  t[s]:   3503.36
	FillingsUpdate:  mu: +0.074720693  nElectrons: 390.000000  magneticMoment: [ Abs: 4.83111  Tot: -0.00000 ]
	SubspaceRotationAdjust: set factor to 0.447
ElecMinimize: Iter:  42  F: -2734.798937659035346  |grad|_K:  1.049e-04  alpha:  7.126e-03  linmin: -4.095e-05  t[s]:   3573.47
	FillingsUpdate:  mu: +0.084294977  nElectrons: 390.000000  magneticMoment: [ Abs: 4.94384  Tot: -0.00000 ]
	SubspaceRotationAdjust: set factor to 0.509
ElecMinimize: Iter:  43  F: -2734.810879454537371  |grad|_K:  1.059e-04  alpha:  6.701e-03  linmin: -3.854e-05  t[s]:   3646.43
	FillingsUpdate:  mu: +0.094550510  nElectrons: 390.000000  magneticMoment: [ Abs: 5.05246  Tot: -0.00000 ]
	SubspaceRotationAdjust: set factor to 0.543
ElecMinimize: Iter:  44  F: -2734.822412908883962  |grad|_K:  1.091e-04  alpha:  6.363e-03  linmin: -4.391e-05  t[s]:   3717.32
	FillingsUpdate:  mu: +0.102586812  nElectrons: 390.000000  magneticMoment: [ Abs: 5.15569  Tot: -0.00000 ]
	SubspaceRotationAdjust: set factor to 0.554
ElecMinimize: Iter:  45  F: -2734.834355019260784  |grad|_K:  1.116e-04  alpha:  6.188e-03  linmin: -5.011e-05  t[s]:   3787.70
	FillingsUpdate:  mu: +0.109892141  nElectrons: 390.000000  magneticMoment: [ Abs: 5.24771  Tot: +0.00000 ]
	SubspaceRotationAdjust: set factor to 0.576
ElecMinimize: Iter:  46  F: -2734.846719742972255  |grad|_K:  1.115e-04  alpha:  6.104e-03  linmin: -4.854e-05  t[s]:   3860.18
	FillingsUpdate:  mu: +0.112031209  nElectrons: 390.000000  magneticMoment: [ Abs: 5.32441  Tot: -0.00000 ]
	SubspaceRotationAdjust: set factor to 0.615
ElecMinimize: Iter:  47  F: -2734.858924196766566  |grad|_K:  1.112e-04  alpha:  6.045e-03  linmin: -3.919e-05  t[s]:   3931.14
	FillingsUpdate:  mu: +0.114342310  nElectrons: 390.000000  magneticMoment: [ Abs: 5.38812  Tot: +0.00000 ]
	SubspaceRotationAdjust: set factor to 0.648
ElecMinimize: Iter:  48  F: -2734.870711244264839  |grad|_K:  1.133e-04  alpha:  5.904e-03  linmin: -2.574e-05  t[s]:   4005.85
	FillingsUpdate:  mu: +0.115015016  nElectrons: 390.000000  magneticMoment: [ Abs: 5.44304  Tot: -0.00000 ]
	SubspaceRotationAdjust: set factor to 0.663
ElecMinimize: Iter:  49  F: -2734.882019061280971  |grad|_K:  1.164e-04  alpha:  5.485e-03  linmin: -1.102e-05  t[s]:   4079.80
	FillingsUpdate:  mu: +0.111853271  nElectrons: 390.000000  magneticMoment: [ Abs: 5.49447  Tot: -0.00000 ]
	SubspaceRotationAdjust: set factor to 0.679
ElecMinimize: Iter:  50  F: -2734.892499376349861  |grad|_K:  1.180e-04  alpha:  4.842e-03  linmin: -5.109e-06  t[s]:   4152.13
	FillingsUpdate:  mu: +0.102382804  nElectrons: 390.000000  magneticMoment: [ Abs: 5.55452  Tot: -0.00000 ]
	SubspaceRotationAdjust: set factor to 0.71
ElecMinimize: Iter:  51  F: -2734.902193977274237  |grad|_K:  1.184e-04  alpha:  4.387e-03  linmin: -1.048e-05  t[s]:   4224.65
	FillingsUpdate:  mu: +0.093773386  nElectrons: 390.000000  magneticMoment: [ Abs: 5.64223  Tot: +0.00000 ]
	SubspaceRotationAdjust: set factor to 0.746
ElecMinimize: Iter:  52  F: -2734.911707394385758  |grad|_K:  1.198e-04  alpha:  4.266e-03  linmin: -2.317e-05  t[s]:   4296.56
	FillingsUpdate:  mu: +0.089582161  nElectrons: 390.000000  magneticMoment: [ Abs: 5.77736  Tot: +0.00000 ]
	SubspaceRotationAdjust: set factor to 0.743
ElecMinimize: Iter:  53  F: -2734.921847577766584  |grad|_K:  1.246e-04  alpha:  4.413e-03  linmin: -3.301e-05  t[s]:   4369.60
	FillingsUpdate:  mu: +0.100598918  nElectrons: 390.000000  magneticMoment: [ Abs: 5.97747  Tot: -0.00000 ]
	SubspaceRotationAdjust: set factor to 0.682
ElecMinimize: Iter:  54  F: -2734.933652442769471  |grad|_K:  1.324e-04  alpha:  4.715e-03  linmin: -3.830e-05  t[s]:   4442.14
	FillingsUpdate:  mu: +0.114647688  nElectrons: 390.000000  magneticMoment: [ Abs: 6.23964  Tot: +0.00000 ]
	SubspaceRotationAdjust: set factor to 0.642
ElecMinimize: Iter:  55  F: -2734.947689401688876  |grad|_K:  1.335e-04  alpha:  4.957e-03  linmin: -4.084e-05  t[s]:   4516.57
	FillingsUpdate:  mu: +0.113078709  nElectrons: 390.000000  magneticMoment: [ Abs: 6.50937  Tot: +0.00000 ]
	SubspaceRotationAdjust: set factor to 0.757
ElecMinimize: Iter:  56  F: -2734.962269997716703  |grad|_K:  1.235e-04  alpha:  5.054e-03  linmin: -3.644e-05  t[s]:   4588.19
	FillingsUpdate:  mu: +0.104050587  nElectrons: 390.000000  magneticMoment: [ Abs: 6.73217  Tot: +0.00000 ]
	SubspaceRotationAdjust: set factor to 1.03
ElecMinimize: Iter:  57  F: -2734.974962801239144  |grad|_K:  1.139e-04  alpha:  5.149e-03  linmin: -2.810e-05  t[s]:   4661.55
	FillingsUpdate:  mu: +0.105919565  nElectrons: 390.000000  magneticMoment: [ Abs: 6.91907  Tot: -0.00000 ]
	SubspaceRotationAdjust: set factor to 1.22
ElecMinimize: Iter:  58  F: -2734.985966160585576  |grad|_K:  1.151e-04  alpha:  5.278e-03  linmin: -2.524e-05  t[s]:   4736.21
	FillingsUpdate:  mu: +0.119933825  nElectrons: 390.000000  magneticMoment: [ Abs: 7.14326  Tot: +0.00000 ]
	SubspaceRotationAdjust: set factor to 1.34
ElecMinimize: Iter:  59  F: -2734.998802349115067  |grad|_K:  1.331e-04  alpha:  6.016e-03  linmin: -4.158e-05  t[s]:   4806.40
	FillingsUpdate:  mu: +0.131735811  nElectrons: 390.000000  magneticMoment: [ Abs: 7.48009  Tot: +0.00000 ]
	SubspaceRotationAdjust: set factor to 1.3
ElecMinimize: Iter:  60  F: -2735.017252219106012  |grad|_K:  1.435e-04  alpha:  6.405e-03  linmin: -5.719e-05  t[s]:   4879.79
	FillingsUpdate:  mu: +0.128249002  nElectrons: 390.000000  magneticMoment: [ Abs: 7.85307  Tot: +0.00000 ]
	SubspaceRotationAdjust: set factor to 1.72
ElecMinimize: Iter:  61  F: -2735.036424654696020  |grad|_K:  1.289e-04  alpha:  5.718e-03  linmin: -3.176e-05  t[s]:   4949.34
	FillingsUpdate:  mu: +0.129236561  nElectrons: 390.000000  magneticMoment: [ Abs: 8.24037  Tot: +0.00000 ]
	SubspaceRotationAdjust: set factor to 1.69
ElecMinimize: Iter:  62  F: -2735.055366095256886  |grad|_K:  1.472e-04  alpha:  7.029e-03  linmin: -4.232e-05  t[s]:   5020.51
	FillingsUpdate:  mu: +0.119379700  nElectrons: 390.000000  magneticMoment: [ Abs: 8.76224  Tot: +0.00000 ]
	SubspaceRotationAdjust: set factor to 1.76
ElecMinimize: Iter:  63  F: -2735.081878915194011  |grad|_K:  1.467e-04  alpha:  7.521e-03  linmin: -2.922e-05  t[s]:   5090.27
	FillingsUpdate:  mu: +0.098051861  nElectrons: 390.000000  magneticMoment: [ Abs: 9.14464  Tot: -0.00000 ]
	SubspaceRotationAdjust: set factor to 2.24
ElecMinimize: Iter:  64  F: -2735.102396707101434  |grad|_K:  1.245e-04  alpha:  5.954e-03  linmin: -1.587e-05  t[s]:   5164.89
	FillingsUpdate:  mu: +0.097775061  nElectrons: 390.000000  magneticMoment: [ Abs: 9.53233  Tot: -0.00000 ]
	SubspaceRotationAdjust: set factor to 2.26
ElecMinimize: Iter:  65  F: -2735.123151929846244  |grad|_K:  1.523e-04  alpha:  8.366e-03  linmin: -2.927e-06  t[s]:   5238.05
	FillingsUpdate:  mu: +0.086918336  nElectrons: 390.000000  magneticMoment: [ Abs: 10.05663  Tot: +0.00000 ]
	SubspaceRotationAdjust: set factor to 2.32
ElecMinimize: Iter:  66  F: -2735.148696078897046  |grad|_K:  1.508e-04  alpha:  7.011e-03  linmin: -2.493e-05  t[s]:   5311.08
	FillingsUpdate:  mu: +0.082823658  nElectrons: 390.000000  magneticMoment: [ Abs: 10.51788  Tot: -0.00000 ]
	SubspaceRotationAdjust: set factor to 2.85
ElecMinimize: Iter:  67  F: -2735.169673355413579  |grad|_K:  1.224e-04  alpha:  5.605e-03  linmin:  1.958e-05  t[s]:   5384.57
	FillingsUpdate:  mu: +0.089200841  nElectrons: 390.000000  magneticMoment: [ Abs: 10.87471  Tot: +0.00000 ]
	SubspaceRotationAdjust: set factor to 3.27
ElecMinimize: Iter:  68  F: -2735.185343623744757  |grad|_K:  1.391e-04  alpha:  6.636e-03  linmin: -6.848e-05  t[s]:   5457.96
	FillingsUpdate:  mu: +0.087610612  nElectrons: 390.000000  magneticMoment: [ Abs: 11.34795  Tot: +0.00000 ]
	SubspaceRotationAdjust: set factor to 4.03
ElecMinimize: Iter:  69  F: -2735.207836319660601  |grad|_K:  1.203e-04  alpha:  6.967e-03  linmin: -4.005e-06  t[s]:   5530.18
	FillingsUpdate:  mu: +0.083209709  nElectrons: 390.000000  magneticMoment: [ Abs: 11.81428  Tot: -0.00000 ]
	SubspaceRotationAdjust: set factor to 3.44
ElecMinimize: Iter:  70  F: -2735.226833427128895  |grad|_K:  1.471e-04  alpha:  8.226e-03  linmin: -3.376e-05  t[s]:   5604.42
	FillingsUpdate:  mu: +0.073666693  nElectrons: 390.000000  magneticMoment: [ Abs: 12.39506  Tot: -0.00000 ]
	SubspaceRotationAdjust: set factor to 4.46
ElecMinimize: Iter:  71  F: -2735.247088454455934  |grad|_K:  1.083e-04  alpha:  5.890e-03  linmin: -8.137e-06  t[s]:   5676.31
	FillingsUpdate:  mu: +0.070355933  nElectrons: 390.000000  magneticMoment: [ Abs: 13.09818  Tot: -0.00000 ]
	SubspaceRotationAdjust: set factor to 3.73
ElecMinimize: Iter:  72  F: -2735.269688123623837  |grad|_K:  1.317e-04  alpha:  1.185e-02  linmin: -6.363e-05  t[s]:   5748.18
	FillingsUpdate:  mu: +0.063726500  nElectrons: 390.000000  magneticMoment: [ Abs: 13.67460  Tot: -0.00000 ]
	SubspaceRotationAdjust: set factor to 3.68
ElecMinimize: Iter:  73  F: -2735.287432139617977  |grad|_K:  1.148e-04  alpha:  6.357e-03  linmin:  1.807e-05  t[s]:   5820.98
	FillingsUpdate:  mu: +0.069534537  nElectrons: 390.000000  magneticMoment: [ Abs: 14.52865  Tot: +0.00000 ]
	SubspaceRotationAdjust: set factor to 4.75
ElecMinimize: Iter:  74  F: -2735.309898681376580  |grad|_K:  1.012e-04  alpha:  1.075e-02  linmin: -4.516e-05  t[s]:   5892.63
	FillingsUpdate:  mu: +0.077501985  nElectrons: 390.000000  magneticMoment: [ Abs: 15.27815  Tot: +0.00000 ]
	SubspaceRotationAdjust: set factor to 4.25
ElecMinimize: Iter:  75  F: -2735.328327712239115  |grad|_K:  1.197e-04  alpha:  1.107e-02  linmin: -4.439e-05  t[s]:   5965.65
	FillingsUpdate:  mu: +0.071292330  nElectrons: 390.000000  magneticMoment: [ Abs: 16.13777  Tot: -0.00000 ]
	SubspaceRotationAdjust: set factor to 5.2
ElecMinimize: Iter:  76  F: -2735.349162296859959  |grad|_K:  1.013e-04  alpha:  8.930e-03  linmin:  3.064e-06  t[s]:   6035.99
	FillingsUpdate:  mu: +0.068279947  nElectrons: 390.000000  magneticMoment: [ Abs: 17.12022  Tot: +0.00000 ]
	SubspaceRotationAdjust: set factor to 5.98
ElecMinimize: Iter:  77  F: -2735.370746032634088  |grad|_K:  1.126e-04  alpha:  1.344e-02  linmin:  2.673e-05  t[s]:   6109.46
	FillingsUpdate:  mu: +0.072885691  nElectrons: 390.000000  magneticMoment: [ Abs: 17.79854  Tot: -0.00000 ]
	SubspaceRotationAdjust: set factor to 5.96
ElecMinimize: Iter:  78  F: -2735.384436168732918  |grad|_K:  1.169e-04  alpha:  6.738e-03  linmin: -2.258e-05  t[s]:   6182.65
	FillingsUpdate:  mu: +0.076262036  nElectrons: 390.000000  magneticMoment: [ Abs: 18.76827  Tot: +0.00000 ]
	SubspaceRotationAdjust: set factor to 8.24
	SubspaceRotationAdjust: resetting CG because factor has changed by 8.24317
ElecMinimize: 	State modified externally: resetting search direction.
ElecMinimize: Iter:  79  F: -2735.404862445619528  |grad|_K:  1.086e-04  alpha:  9.218e-03
	FillingsUpdate:  mu: +0.106489341  nElectrons: 390.000000  magneticMoment: [ Abs: 18.93382  Tot: +0.00000 ]
	SubspaceRotationAdjust: set factor to 4.42
ElecMinimize: Iter:  80  F: -2735.440783706062575  |grad|_K:  3.119e-04  alpha:  1.943e-02  linmin:  3.267e-05  t[s]:   6340.23
	FillingsUpdate:  mu: +0.133868274  nElectrons: 390.000000  magneticMoment: [ Abs: 19.70799  Tot: -0.00000 ]
	SubspaceRotationAdjust: set factor to 2.41
ElecMinimize: Iter:  81  F: -2735.571624539219101  |grad|_K:  1.977e-04  alpha:  9.022e-03  linmin: -3.467e-04  t[s]:   6411.92
	FillingsUpdate:  mu: +0.134429854  nElectrons: 390.000000  magneticMoment: [ Abs: 19.79462  Tot: +0.00000 ]
	SubspaceRotationAdjust: set factor to 1.33
ElecMinimize: Iter:  82  F: -2735.620999827758624  |grad|_K:  1.590e-04  alpha:  7.112e-03  linmin:  3.954e-04  t[s]:   6481.38
ElecMinimize: 	Predicted alpha/alphaT>3.000000, increasing alphaT to 2.133559e-02.
	FillingsUpdate:  mu: +0.097960653  nElectrons: 390.000000  magneticMoment: [ Abs: 20.06269  Tot: -0.00000 ]
	SubspaceRotationAdjust: set factor to 1.03
	SubspaceRotationAdjust: resetting CG because factor has changed by 0.124522
ElecMinimize: 	State modified externally: resetting search direction.
ElecMinimize: Iter:  83  F: -2735.692831452864539  |grad|_K:  6.400e-05  alpha:  1.897e-02
ElecMinimize: 	Predicted alpha/alphaT>3.000000, increasing alphaT to 5.691456e-02.
	FillingsUpdate:  mu: +0.106530931  nElectrons: 390.000000  magneticMoment: [ Abs: 20.52049  Tot: -0.00000 ]
	SubspaceRotationAdjust: set factor to 0.593
ElecMinimize: Iter:  84  F: -2735.751853000705523  |grad|_K:  9.031e-05  alpha:  1.028e-01  linmin:  2.720e-03  t[s]:   6703.12
	FillingsUpdate:  mu: +0.090957996  nElectrons: 390.000000  magneticMoment: [ Abs: 20.68390  Tot: +0.00000 ]
	SubspaceRotationAdjust: set factor to 0.384
ElecMinimize: Iter:  85  F: -2735.764091078307956  |grad|_K:  7.015e-05  alpha:  1.857e-02  linmin:  8.358e-03  t[s]:   6776.72
ElecMinimize: 	Predicted alpha/alphaT>3.000000, increasing alphaT to 5.572367e-02.
	FillingsUpdate:  mu: +0.096381429  nElectrons: 390.000000  magneticMoment: [ Abs: 20.93777  Tot: -0.00000 ]
	SubspaceRotationAdjust: set factor to 0.23
ElecMinimize: Iter:  86  F: -2735.800218806800785  |grad|_K:  8.197e-05  alpha:  7.813e-02  linmin: -3.339e-04  t[s]:   6878.30
	FillingsUpdate:  mu: +0.100504856  nElectrons: 390.000000  magneticMoment: [ Abs: 21.12045  Tot: +0.00000 ]
	SubspaceRotationAdjust: set factor to 0.14
ElecMinimize: Iter:  87  F: -2735.836591198491988  |grad|_K:  4.393e-05  alpha:  4.093e-02  linmin:  2.126e-03  t[s]:   6952.02
ElecMinimize: 	Predicted alpha/alphaT>3.000000, increasing alphaT to 1.227848e-01.
	FillingsUpdate:  mu: +0.092474926  nElectrons: 390.000000  magneticMoment: [ Abs: 21.44431  Tot: +0.00000 ]
	SubspaceRotationAdjust: set factor to 0.126
	SubspaceRotationAdjust: resetting CG because factor has changed by 0.122863
ElecMinimize: 	State modified externally: resetting search direction.
ElecMinimize: Iter:  88  F: -2735.885217330268461  |grad|_K:  3.079e-05  alpha:  1.940e-01
	FillingsUpdate:  mu: +0.103991137  nElectrons: 390.000000  magneticMoment: [ Abs: 21.52121  Tot: -0.00000 ]
	SubspaceRotationAdjust: set factor to 0.0972
ElecMinimize: Iter:  89  F: -2735.918697384745428  |grad|_K:  2.554e-05  alpha:  2.246e-01  linmin:  2.902e-03  t[s]:   7141.10
	FillingsUpdate:  mu: +0.093739271  nElectrons: 390.000000  magneticMoment: [ Abs: 21.66666  Tot: -0.00000 ]
	SubspaceRotationAdjust: set factor to 0.0646
ElecMinimize: Iter:  90  F: -2735.935752242822673  |grad|_K:  1.603e-05  alpha:  1.607e-01  linmin:  1.453e-03  t[s]:   7215.31
	FillingsUpdate:  mu: +0.097350190  nElectrons: 390.000000  magneticMoment: [ Abs: 21.82734  Tot: -0.00000 ]
	SubspaceRotationAdjust: set factor to 0.0831
ElecMinimize: Iter:  91  F: -2735.949469314815815  |grad|_K:  1.403e-05  alpha:  3.432e-01  linmin: -1.651e-04  t[s]:   7289.77
	FillingsUpdate:  mu: +0.094615423  nElectrons: 390.000000  magneticMoment: [ Abs: 21.94212  Tot: -0.00000 ]
	SubspaceRotationAdjust: set factor to 0.0768
ElecMinimize: Iter:  92  F: -2735.959321350715527  |grad|_K:  1.187e-05  alpha:  3.161e-01  linmin: -4.521e-04  t[s]:   7362.45
	FillingsUpdate:  mu: +0.102714612  nElectrons: 390.000000  magneticMoment: [ Abs: 22.11409  Tot: -0.00000 ]
	SubspaceRotationAdjust: set factor to 0.0769
ElecMinimize: Iter:  93  F: -2735.966667122163926  |grad|_K:  9.188e-06  alpha:  3.270e-01  linmin:  4.672e-05  t[s]:   7436.56
	FillingsUpdate:  mu: +0.100075210  nElectrons: 390.000000  magneticMoment: [ Abs: 22.24237  Tot: -0.00000 ]
	SubspaceRotationAdjust: set factor to 0.0935
ElecMinimize: Iter:  94  F: -2735.970945585620939  |grad|_K:  7.159e-06  alpha:  3.208e-01  linmin:  1.837e-04  t[s]:   7510.04
	FillingsUpdate:  mu: +0.096651264  nElectrons: 390.000000  magneticMoment: [ Abs: 22.35720  Tot: -0.00000 ]
	SubspaceRotationAdjust: set factor to 0.106
ElecMinimize: Iter:  95  F: -2735.973735727834082  |grad|_K:  6.705e-06  alpha:  3.457e-01  linmin:  4.634e-05  t[s]:   7584.04
	FillingsUpdate:  mu: +0.102086049  nElectrons: 390.000000  magneticMoment: [ Abs: 22.53838  Tot: -0.00000 ]
	SubspaceRotationAdjust: set factor to 0.115
ElecMinimize: Iter:  96  F: -2735.976489598653643  |grad|_K:  6.715e-06  alpha:  3.872e-01  linmin: -8.990e-05  t[s]:   7657.11
	FillingsUpdate:  mu: +0.095490980  nElectrons: 390.000000  magneticMoment: [ Abs: 22.72633  Tot: -0.00000 ]
	SubspaceRotationAdjust: set factor to 0.124
ElecMinimize: Iter:  97  F: -2735.979314830476142  |grad|_K:  6.518e-06  alpha:  3.943e-01  linmin:  4.066e-05  t[s]:   7728.05
	FillingsUpdate:  mu: +0.095540839  nElectrons: 390.000000  magneticMoment: [ Abs: 22.94023  Tot: -0.00000 ]
	SubspaceRotationAdjust: set factor to 0.138
ElecMinimize: Iter:  98  F: -2735.981813241928648  |grad|_K:  6.107e-06  alpha:  3.730e-01  linmin: -3.139e-05  t[s]:   7800.94
	FillingsUpdate:  mu: +0.099262757  nElectrons: 390.000000  magneticMoment: [ Abs: 23.15198  Tot: +0.00000 ]
	SubspaceRotationAdjust: set factor to 0.148
ElecMinimize: Iter:  99  F: -2735.983988659921579  |grad|_K:  5.881e-06  alpha:  3.679e-01  linmin: -4.584e-05  t[s]:   7876.25
	FillingsUpdate:  mu: +0.093591362  nElectrons: 390.000000  magneticMoment: [ Abs: 23.31068  Tot: +0.00000 ]
	SubspaceRotationAdjust: set factor to 0.139
ElecMinimize: Iter: 100  F: -2735.985872824741364  |grad|_K:  6.052e-06  alpha:  3.430e-01  linmin: -2.143e-05  t[s]:   7947.88
	FillingsUpdate:  mu: +0.100829116  nElectrons: 390.000000  magneticMoment: [ Abs: 23.49780  Tot: -0.00000 ]
	SubspaceRotationAdjust: set factor to 0.117
ElecMinimize: Iter: 101  F: -2735.987440486516334  |grad|_K:  5.382e-06  alpha:  2.701e-01  linmin: -2.476e-06  t[s]:   8021.14
	FillingsUpdate:  mu: +0.095149082  nElectrons: 390.000000  magneticMoment: [ Abs: 23.62181  Tot: +0.00000 ]
	SubspaceRotationAdjust: set factor to 0.12
ElecMinimize: Iter: 102  F: -2735.988849607717384  |grad|_K:  4.530e-06  alpha:  3.072e-01  linmin: -1.997e-05  t[s]:   8092.17
	FillingsUpdate:  mu: +0.094923528  nElectrons: 390.000000  magneticMoment: [ Abs: 23.72925  Tot: +0.00000 ]
	SubspaceRotationAdjust: set factor to 0.138
ElecMinimize: Iter: 103  F: -2735.989975282329397  |grad|_K:  3.798e-06  alpha:  3.460e-01  linmin:  1.380e-05  t[s]:   8167.98
	FillingsUpdate:  mu: +0.098134288  nElectrons: 390.000000  magneticMoment: [ Abs: 23.80399  Tot: +0.00000 ]
	SubspaceRotationAdjust: set factor to 0.145
ElecMinimize: Iter: 104  F: -2735.990725628656492  |grad|_K:  3.599e-06  alpha:  3.291e-01  linmin:  8.240e-05  t[s]:   8239.45
	FillingsUpdate:  mu: +0.093994322  nElectrons: 390.000000  magneticMoment: [ Abs: 23.83406  Tot: +0.00000 ]
	SubspaceRotationAdjust: set factor to 0.143
ElecMinimize: Iter: 105  F: -2735.991359982127960  |grad|_K:  3.374e-06  alpha:  3.132e-01  linmin: -2.292e-04  t[s]:   8311.29
	FillingsUpdate:  mu: +0.099687072  nElectrons: 390.000000  magneticMoment: [ Abs: 23.85752  Tot: +0.00000 ]
	SubspaceRotationAdjust: set factor to 0.128
ElecMinimize: Iter: 106  F: -2735.991915138539753  |grad|_K:  3.656e-06  alpha:  2.973e-01  linmin:  8.512e-04  t[s]:   8384.24
	FillingsUpdate:  mu: +0.102663160  nElectrons: 390.000000  magneticMoment: [ Abs: 23.83458  Tot: +0.00000 ]
	SubspaceRotationAdjust: set factor to 0.123
ElecMinimize: Iter: 107  F: -2735.992439748025845  |grad|_K:  4.411e-06  alpha:  2.733e-01  linmin:  4.212e-04  t[s]:   8458.05
	FillingsUpdate:  mu: +0.102988851  nElectrons: 390.000000  magneticMoment: [ Abs: 23.80798  Tot: +0.00000 ]
	SubspaceRotationAdjust: set factor to 0.132
ElecMinimize: Iter: 108  F: -2735.992912902008811  |grad|_K:  4.222e-06  alpha:  1.552e-01  linmin: -3.601e-04  t[s]:   8532.97
	FillingsUpdate:  mu: +0.102439723  nElectrons: 390.000000  magneticMoment: [ Abs: 23.80324  Tot: +0.00000 ]
	SubspaceRotationAdjust: set factor to 0.17
ElecMinimize: Iter: 109  F: -2735.993388762911309  |grad|_K:  3.687e-06  alpha:  1.592e-01  linmin: -3.301e-04  t[s]:   8606.05
	FillingsUpdate:  mu: +0.100851037  nElectrons: 390.000000  magneticMoment: [ Abs: 23.81643  Tot: -0.00000 ]
	SubspaceRotationAdjust: set factor to 0.22
ElecMinimize: Iter: 110  F: -2735.993789815354830  |grad|_K:  3.049e-06  alpha:  1.750e-01  linmin: -6.384e-04  t[s]:   8679.83
	FillingsUpdate:  mu: +0.098978402  nElectrons: 390.000000  magneticMoment: [ Abs: 23.83482  Tot: +0.00000 ]
	SubspaceRotationAdjust: set factor to 0.241
ElecMinimize: Iter: 111  F: -2735.994152649324406  |grad|_K:  2.880e-06  alpha:  2.214e-01  linmin: -5.233e-04  t[s]:   8753.74
	FillingsUpdate:  mu: +0.099793048  nElectrons: 390.000000  magneticMoment: [ Abs: 23.83622  Tot: +0.00000 ]
	SubspaceRotationAdjust: set factor to 0.247
ElecMinimize: Iter: 112  F: -2735.994494028097961  |grad|_K:  3.183e-06  alpha:  2.424e-01  linmin:  1.062e-04  t[s]:   8825.72
	FillingsUpdate:  mu: +0.098698050  nElectrons: 390.000000  magneticMoment: [ Abs: 23.84841  Tot: -0.00000 ]
	SubspaceRotationAdjust: set factor to 0.241
ElecMinimize: Iter: 113  F: -2735.994777134166725  |grad|_K:  2.907e-06  alpha:  1.813e-01  linmin: -3.140e-05  t[s]:   8896.13
	FillingsUpdate:  mu: +0.099157884  nElectrons: 390.000000  magneticMoment: [ Abs: 23.84159  Tot: +0.00000 ]
	SubspaceRotationAdjust: set factor to 0.257
ElecMinimize: Iter: 114  F: -2735.995105953276379  |grad|_K:  2.780e-06  alpha:  2.438e-01  linmin: -1.078e-04  t[s]:   8968.78
	FillingsUpdate:  mu: +0.098656920  nElectrons: 390.000000  magneticMoment: [ Abs: 23.83727  Tot: +0.00000 ]
	SubspaceRotationAdjust: set factor to 0.261
ElecMinimize: Iter: 115  F: -2735.995403082989014  |grad|_K:  2.907e-06  alpha:  1.528e-01  linmin: -3.206e-03  t[s]:   9039.47
	FillingsUpdate:  mu: +0.097827018  nElectrons: 390.000000  magneticMoment: [ Abs: 23.82982  Tot: -0.00000 ]
	SubspaceRotationAdjust: set factor to 0.213
ElecMinimize: Iter: 116  F: -2735.995545703607149  |grad|_K:  3.267e-06  alpha:  3.834e-02  linmin: -8.796e-03  t[s]:   9113.20
ElecMinimize: 	Predicted alpha/alphaT>3.000000, increasing alphaT to 1.150173e-01.
	FillingsUpdate:  mu: +0.096003504  nElectrons: 390.000000  magneticMoment: [ Abs: 23.80891  Tot: -0.00000 ]
	SubspaceRotationAdjust: set factor to 0.134
ElecMinimize: Iter: 117  F: -2735.995851631808819  |grad|_K:  4.189e-06  alpha:  4.581e-02  linmin: -9.277e-03  t[s]:   9216.45
	FillingsUpdate:  mu: +0.091685047  nElectrons: 390.000000  magneticMoment: [ Abs: 23.78408  Tot: -0.00000 ]
	SubspaceRotationAdjust: set factor to 0.0781
ElecMinimize: Iter: 118  F: -2735.996092991294972  |grad|_K:  6.285e-06  alpha:  2.758e-02  linmin: -7.836e-04  t[s]:   9288.90
	FillingsUpdate:  mu: +0.089989527  nElectrons: 390.000000  magneticMoment: [ Abs: 23.77522  Tot: -0.00000 ]
	SubspaceRotationAdjust: set factor to 0.0482
ElecMinimize: Iter: 119  F: -2735.996129911927255  |grad|_K:  6.147e-06  alpha:  4.500e-03  linmin: -2.498e-04  t[s]:   9360.17
	FillingsUpdate:  mu: +0.090596833  nElectrons: 390.000000  magneticMoment: [ Abs: 23.76605  Tot: +0.00000 ]
	SubspaceRotationAdjust: set factor to 0.0319
ElecMinimize: Iter: 120  F: -2735.996165175514307  |grad|_K:  6.117e-06  alpha:  5.528e-03  linmin:  6.641e-05  t[s]:   9430.06
	FillingsUpdate:  mu: +0.091221208  nElectrons: 390.000000  magneticMoment: [ Abs: 23.75613  Tot: +0.00000 ]
	SubspaceRotationAdjust: set factor to 0.0229
ElecMinimize: Iter: 121  F: -2735.996206713676202  |grad|_K:  6.262e-06  alpha:  7.065e-03  linmin: -1.401e-04  t[s]:   9500.86
ElecMinimize: 	Predicted alpha/alphaT>3.000000, increasing alphaT to 2.119523e-02.
ElecMinimize: 	Wrong curvature in test step, increasing alphaT to 6.358570e-02.
	FillingsUpdate:  mu: +0.094689097  nElectrons: 390.000000  magneticMoment: [ Abs: 23.73418  Tot: +0.00000 ]
	SubspaceRotationAdjust: set factor to 0.018
ElecMinimize: Iter: 122  F: -2735.996506186160786  |grad|_K:  7.320e-06  alpha: -1.394e-01  linmin: -4.016e-03  t[s]:   9578.22
ElecMinimize: 	Step increased F by 2.712094e-02, reducing alpha to 2.387214e-03.
ElecMinimize: 	Step increased F by 2.943002e-02, reducing alpha to 2.387214e-04.
ElecMinimize: 	Step increased F by 2.961280e-02, reducing alpha to 2.387214e-05.
ElecMinimize: 	Step failed to reduce F after 3 attempts. Quitting step.
ElecMinimize: 	Undoing step.
ElecMinimize: 	Step failed: resetting search direction.
	FillingsUpdate:  mu: +0.084320573  nElectrons: 390.000000  magneticMoment: [ Abs: 23.71892  Tot: +0.00000 ]
	SubspaceRotationAdjust: set factor to 0.0169
	SubspaceRotationAdjust: resetting CG because factor has changed by 0.133709
ElecMinimize: 	State modified externally: resetting search direction.
ElecMinimize: Iter: 123  F: -2735.966891419297099  |grad|_K:  6.137e-06  alpha:  2.387e-05
	FillingsUpdate:  mu: +0.091023760  nElectrons: 390.000000  magneticMoment: [ Abs: 23.71181  Tot: +0.00000 ]
	SubspaceRotationAdjust: set factor to 0.0218
ElecMinimize: Iter: 124  F: -2735.968919863072642  |grad|_K:  4.316e-06  alpha:  3.467e-01  linmin:  2.908e-03  t[s]:   9854.05
	FillingsUpdate:  mu: +0.089966782  nElectrons: 390.000000  magneticMoment: [ Abs: 23.70652  Tot: -0.00000 ]
	SubspaceRotationAdjust: set factor to 0.0274
ElecMinimize: Iter: 125  F: -2735.969890280064647  |grad|_K:  3.989e-06  alpha:  3.336e-01  linmin: -1.097e-03  t[s]:   9926.45
	FillingsUpdate:  mu: +0.090105214  nElectrons: 390.000000  magneticMoment: [ Abs: 23.69882  Tot: +0.00000 ]
	SubspaceRotationAdjust: set factor to 0.0324
ElecMinimize: Iter: 126  F: -2735.971696886444533  |grad|_K:  5.905e-06  alpha:  7.119e-01  linmin: -1.031e-03  t[s]:   9997.84
	FillingsUpdate:  mu: +0.090865004  nElectrons: 390.000000  magneticMoment: [ Abs: 23.69197  Tot: -0.00000 ]
	SubspaceRotationAdjust: set factor to 0.0358
ElecMinimize: Iter: 127  F: -2735.974848610514982  |grad|_K:  7.640e-06  alpha:  5.595e-01  linmin: -1.262e-03  t[s]:  10069.33
	FillingsUpdate:  mu: +0.091320239  nElectrons: 390.000000  magneticMoment: [ Abs: 23.69226  Tot: -0.00000 ]
	SubspaceRotationAdjust: set factor to 0.0385
ElecMinimize: Iter: 128  F: -2735.979862016517927  |grad|_K:  9.036e-06  alpha:  5.236e-01  linmin: -1.615e-03  t[s]:  10140.31
	FillingsUpdate:  mu: +0.095118991  nElectrons: 390.000000  magneticMoment: [ Abs: 23.69517  Tot: -0.00000 ]
	SubspaceRotationAdjust: set factor to 0.04
ElecMinimize: Iter: 129  F: -2735.986634776235860  |grad|_K:  1.028e-05  alpha:  4.912e-01  linmin: -7.610e-04  t[s]:  10213.96
	FillingsUpdate:  mu: +0.106185060  nElectrons: 390.000000  magneticMoment: [ Abs: 23.69693  Tot: -0.00000 ]
	SubspaceRotationAdjust: set factor to 0.0417
ElecMinimize: Iter: 130  F: -2735.991809013103193  |grad|_K:  8.873e-06  alpha:  3.245e-01  linmin: -5.912e-04  t[s]:  10284.15
	FillingsUpdate:  mu: +0.105870500  nElectrons: 390.000000  magneticMoment: [ Abs: 23.70851  Tot: -0.00000 ]
	SubspaceRotationAdjust: set factor to 0.0452
ElecMinimize: Iter: 131  F: -2735.996786321585205  |grad|_K:  8.552e-06  alpha:  3.899e-01  linmin: -1.023e-04  t[s]:  10355.10
	FillingsUpdate:  mu: +0.093920071  nElectrons: 390.000000  magneticMoment: [ Abs: 23.72208  Tot: +0.00000 ]
	SubspaceRotationAdjust: set factor to 0.0464
ElecMinimize: Iter: 132  F: -2736.000530478653218  |grad|_K:  6.958e-06  alpha:  3.155e-01  linmin:  4.748e-04  t[s]:  10427.69
	FillingsUpdate:  mu: +0.090443542  nElectrons: 390.000000  magneticMoment: [ Abs: 23.73359  Tot: -0.00000 ]
	SubspaceRotationAdjust: set factor to 0.0476
ElecMinimize: Iter: 133  F: -2736.002747672811893  |grad|_K:  5.796e-06  alpha:  2.940e-01  linmin:  4.550e-04  t[s]:  10498.29
	FillingsUpdate:  mu: +0.090760521  nElectrons: 390.000000  magneticMoment: [ Abs: 23.74132  Tot: +0.00000 ]
	SubspaceRotationAdjust: set factor to 0.0528
ElecMinimize: Iter: 134  F: -2736.004123985861042  |grad|_K:  4.545e-06  alpha:  2.632e-01  linmin: -5.685e-05  t[s]:  10571.18
	FillingsUpdate:  mu: +0.091191593  nElectrons: 390.000000  magneticMoment: [ Abs: 23.74586  Tot: +0.00000 ]
	SubspaceRotationAdjust: set factor to 0.0589
ElecMinimize: Iter: 135  F: -2736.004984303325273  |grad|_K:  3.652e-06  alpha:  2.629e-01  linmin: -1.169e-04  t[s]:  10644.15
	FillingsUpdate:  mu: +0.093106689  nElectrons: 390.000000  magneticMoment: [ Abs: 23.74829  Tot: +0.00000 ]
	SubspaceRotationAdjust: set factor to 0.0645
ElecMinimize: Iter: 136  F: -2736.005553268435960  |grad|_K:  2.883e-06  alpha:  2.689e-01  linmin: -8.848e-05  t[s]:  10713.89
	FillingsUpdate:  mu: +0.094244887  nElectrons: 390.000000  magneticMoment: [ Abs: 23.74916  Tot: -0.00000 ]
	SubspaceRotationAdjust: set factor to 0.0716
ElecMinimize: Iter: 137  F: -2736.005915133833696  |grad|_K:  2.365e-06  alpha:  2.747e-01  linmin: -2.893e-05  t[s]:  10784.54
	FillingsUpdate:  mu: +0.094265705  nElectrons: 390.000000  magneticMoment: [ Abs: 23.74919  Tot: -0.00000 ]
	SubspaceRotationAdjust: set factor to 0.0819
ElecMinimize: Iter: 138  F: -2736.006161081003029  |grad|_K:  2.105e-06  alpha:  2.778e-01  linmin: -1.231e-05  t[s]:  10855.85
	FillingsUpdate:  mu: +0.093672749  nElectrons: 390.000000  magneticMoment: [ Abs: 23.74827  Tot: -0.00000 ]
	SubspaceRotationAdjust: set factor to 0.0944
ElecMinimize: Iter: 139  F: -2736.006384366026396  |grad|_K:  2.055e-06  alpha:  3.185e-01  linmin: -1.374e-05  t[s]:  10927.86
	FillingsUpdate:  mu: +0.092739117  nElectrons: 390.000000  magneticMoment: [ Abs: 23.74548  Tot: -0.00000 ]
	SubspaceRotationAdjust: set factor to 0.107
ElecMinimize: Iter: 140  F: -2736.006615468553264  |grad|_K:  2.174e-06  alpha:  3.455e-01  linmin: -1.342e-05  t[s]:  11000.67
	FillingsUpdate:  mu: +0.092094028  nElectrons: 390.000000  magneticMoment: [ Abs: 23.74049  Tot: +0.00000 ]
	SubspaceRotationAdjust: set factor to 0.122
ElecMinimize: Iter: 141  F: -2736.006855139067738  |grad|_K:  2.271e-06  alpha:  3.199e-01  linmin:  5.932e-05  t[s]:  11072.78
	FillingsUpdate:  mu: +0.091709693  nElectrons: 390.000000  magneticMoment: [ Abs: 23.73341  Tot: +0.00000 ]
	SubspaceRotationAdjust: set factor to 0.139
	SubspaceRotationAdjust: resetting CG because factor has changed by 8.22687
ElecMinimize: 	State modified externally: resetting search direction.
ElecMinimize: Iter: 142  F: -2736.007115382589745  |grad|_K:  2.734e-06  alpha:  3.214e-01
	FillingsUpdate:  mu: +0.094769415  nElectrons: 390.000000  magneticMoment: [ Abs: 23.73317  Tot: -0.00000 ]
	SubspaceRotationAdjust: set factor to 0.161
ElecMinimize: Iter: 143  F: -2736.007434790440584  |grad|_K:  1.902e-06  alpha:  2.708e-01  linmin: -3.592e-04  t[s]:  11233.03
	FillingsUpdate:  mu: +0.093057487  nElectrons: 390.000000  magneticMoment: [ Abs: 23.73377  Tot: +0.00000 ]
	SubspaceRotationAdjust: set factor to 0.206
ElecMinimize: Iter: 144  F: -2736.007678423139623  |grad|_K:  1.932e-06  alpha:  4.256e-01  linmin:  3.186e-04  t[s]:  11306.00
	FillingsUpdate:  mu: +0.089941440  nElectrons: 390.000000  magneticMoment: [ Abs: 23.73437  Tot: -0.00000 ]
	SubspaceRotationAdjust: set factor to 0.224
ElecMinimize: Iter: 145  F: -2736.007978423318946  |grad|_K:  2.668e-06  alpha:  5.231e-01  linmin:  1.222e-03  t[s]:  11375.40
	FillingsUpdate:  mu: +0.089133223  nElectrons: 390.000000  magneticMoment: [ Abs: 23.73466  Tot: +0.00000 ]
	SubspaceRotationAdjust: set factor to 0.292
ElecMinimize: Iter: 146  F: -2736.008283527128242  |grad|_K:  2.254e-06  alpha:  2.991e-01  linmin: -1.509e-06  t[s]:  11447.15
	FillingsUpdate:  mu: +0.089455947  nElectrons: 390.000000  magneticMoment: [ Abs: 23.73419  Tot: +0.00000 ]
	SubspaceRotationAdjust: set factor to 0.362
ElecMinimize: Iter: 147  F: -2736.008458658556265  |grad|_K:  1.768e-06  alpha:  2.250e-01  linmin: -3.543e-04  t[s]:  11520.24
	FillingsUpdate:  mu: +0.090619446  nElectrons: 390.000000  magneticMoment: [ Abs: 23.73252  Tot: -0.00000 ]
	SubspaceRotationAdjust: set factor to 0.416
ElecMinimize: Iter: 148  F: -2736.008623079792415  |grad|_K:  1.794e-06  alpha:  3.185e-01  linmin: -5.763e-04  t[s]:  11592.35
	FillingsUpdate:  mu: +0.090407797  nElectrons: 390.000000  magneticMoment: [ Abs: 23.72916  Tot: +0.00000 ]
	SubspaceRotationAdjust: set factor to 0.446
ElecMinimize: Iter: 149  F: -2736.008835521004130  |grad|_K:  1.777e-06  alpha:  3.925e-01  linmin: -2.815e-04  t[s]:  11664.86
	FillingsUpdate:  mu: +0.090349758  nElectrons: 390.000000  magneticMoment: [ Abs: 23.72694  Tot: -0.00000 ]
	SubspaceRotationAdjust: set factor to 0.483
ElecMinimize: Iter: 150  F: -2736.008973248716302  |grad|_K:  1.243e-06  alpha:  2.673e-01  linmin: -3.983e-06  t[s]:  11734.29
	FillingsUpdate:  mu: +0.090096867  nElectrons: 390.000000  magneticMoment: [ Abs: 23.72615  Tot: -0.00000 ]
	SubspaceRotationAdjust: set factor to 0.509
ElecMinimize: Iter: 151  F: -2736.009042082726864  |grad|_K:  9.443e-07  alpha:  2.816e-01  linmin:  1.313e-05  t[s]:  11806.00
	FillingsUpdate:  mu: +0.090161935  nElectrons: 390.000000  magneticMoment: [ Abs: 23.72648  Tot: +0.00000 ]
	SubspaceRotationAdjust: set factor to 0.552
ElecMinimize: Iter: 152  F: -2736.009087610383631  |grad|_K:  8.320e-07  alpha:  3.231e-01  linmin: -1.148e-06  t[s]:  11879.94
	FillingsUpdate:  mu: +0.090267741  nElectrons: 390.000000  magneticMoment: [ Abs: 23.72756  Tot: +0.00000 ]
	SubspaceRotationAdjust: set factor to 0.614
ElecMinimize: Iter: 153  F: -2736.009116742578044  |grad|_K:  5.813e-07  alpha:  2.661e-01  linmin: -3.154e-06  t[s]:  11953.97
	FillingsUpdate:  mu: +0.090166901  nElectrons: 390.000000  magneticMoment: [ Abs: 23.72848  Tot: +0.00000 ]
	SubspaceRotationAdjust: set factor to 0.674
ElecMinimize: Iter: 154  F: -2736.009132685177065  |grad|_K:  4.699e-07  alpha:  2.982e-01  linmin: -6.258e-06  t[s]:  12026.79
	FillingsUpdate:  mu: +0.090287327  nElectrons: 390.000000  magneticMoment: [ Abs: 23.72909  Tot: +0.00000 ]
	SubspaceRotationAdjust: set factor to 0.765
ElecMinimize: Iter: 155  F: -2736.009142132710167  |grad|_K:  3.629e-07  alpha:  2.704e-01  linmin:  6.119e-07  t[s]:  12098.69
	FillingsUpdate:  mu: +0.090174897  nElectrons: 390.000000  magneticMoment: [ Abs: 23.73026  Tot: +0.00000 ]
	SubspaceRotationAdjust: set factor to 0.857
ElecMinimize: Iter: 156  F: -2736.009148795155852  |grad|_K:  3.204e-07  alpha:  3.199e-01  linmin:  1.231e-08  t[s]:  12170.20
	FillingsUpdate:  mu: +0.090344836  nElectrons: 390.000000  magneticMoment: [ Abs: 23.73164  Tot: +0.00000 ]
	SubspaceRotationAdjust: set factor to 0.938
ElecMinimize: Iter: 157  F: -2736.009153334569419  |grad|_K:  2.592e-07  alpha:  2.796e-01  linmin:  4.016e-06  t[s]:  12241.98
	FillingsUpdate:  mu: +0.090071245  nElectrons: 390.000000  magneticMoment: [ Abs: 23.73225  Tot: -0.00000 ]
	SubspaceRotationAdjust: set factor to 0.957
ElecMinimize: Iter: 158  F: -2736.009155970034499  |grad|_K:  2.281e-07  alpha:  2.480e-01  linmin: -3.418e-06  t[s]:  12314.86
	FillingsUpdate:  mu: +0.090425784  nElectrons: 390.000000  magneticMoment: [ Abs: 23.73259  Tot: +0.00000 ]
	SubspaceRotationAdjust: set factor to 0.827
ElecMinimize: Iter: 159  F: -2736.009157587145182  |grad|_K:  2.217e-07  alpha:  1.960e-01  linmin:  2.023e-05  t[s]:  12386.40
	FillingsUpdate:  mu: +0.090130931  nElectrons: 390.000000  magneticMoment: [ Abs: 23.73329  Tot: +0.00000 ]
	SubspaceRotationAdjust: set factor to 0.761
ElecMinimize: Iter: 160  F: -2736.009159131253000  |grad|_K:  1.821e-07  alpha:  1.990e-01  linmin: -1.537e-06  t[s]:  12457.50
	FillingsUpdate:  mu: +0.090246539  nElectrons: 390.000000  magneticMoment: [ Abs: 23.73431  Tot: -0.00000 ]
	SubspaceRotationAdjust: set factor to 0.849
ElecMinimize: Iter: 161  F: -2736.009160778277419  |grad|_K:  1.625e-07  alpha:  3.142e-01  linmin:  1.365e-05  t[s]:  12528.88
	FillingsUpdate:  mu: +0.090271713  nElectrons: 390.000000  magneticMoment: [ Abs: 23.73487  Tot: +0.00000 ]
	SubspaceRotationAdjust: set factor to 0.998
ElecMinimize: Iter: 162  F: -2736.009162017219751  |grad|_K:  1.535e-07  alpha:  2.970e-01  linmin: -1.394e-06  t[s]:  12600.26
	FillingsUpdate:  mu: +0.090177795  nElectrons: 390.000000  magneticMoment: [ Abs: 23.73543  Tot: -0.00000 ]
	SubspaceRotationAdjust: set factor to 1.1
	SubspaceRotationAdjust: resetting CG because factor has changed by 7.91183
ElecMinimize: 	State modified externally: resetting search direction.
ElecMinimize: Iter: 163  F: -2736.009163407577034  |grad|_K:  1.898e-07  alpha:  3.731e-01
	FillingsUpdate:  mu: +0.090501015  nElectrons: 390.000000  magneticMoment: [ Abs: 23.73538  Tot: -0.00000 ]
	SubspaceRotationAdjust: set factor to 0.679
ElecMinimize: Iter: 164  F: -2736.009164307191440  |grad|_K:  1.984e-07  alpha:  1.569e-01  linmin: -1.011e-04  t[s]:  12758.52
	FillingsUpdate:  mu: +0.090181028  nElectrons: 390.000000  magneticMoment: [ Abs: 23.73525  Tot: +0.00000 ]
	SubspaceRotationAdjust: set factor to 0.596
ElecMinimize: Iter: 165  F: -2736.009165273859708  |grad|_K:  1.420e-07  alpha:  1.547e-01  linmin: -3.838e-05  t[s]:  12829.71
	FillingsUpdate:  mu: +0.090132026  nElectrons: 390.000000  magneticMoment: [ Abs: 23.73474  Tot: +0.00000 ]
	SubspaceRotationAdjust: set factor to 0.742
ElecMinimize: Iter: 166  F: -2736.009166445420306  |grad|_K:  1.359e-07  alpha:  3.660e-01  linmin: -1.087e-05  t[s]:  12901.24
	FillingsUpdate:  mu: +0.090384501  nElectrons: 390.000000  magneticMoment: [ Abs: 23.73451  Tot: -0.00000 ]
	SubspaceRotationAdjust: set factor to 0.664
ElecMinimize: Iter: 167  F: -2736.009167242411422  |grad|_K:  1.430e-07  alpha:  2.722e-01  linmin:  5.100e-06  t[s]:  12974.17
	FillingsUpdate:  mu: +0.090118066  nElectrons: 390.000000  magneticMoment: [ Abs: 23.73457  Tot: -0.00000 ]
	SubspaceRotationAdjust: set factor to 0.557
ElecMinimize: Iter: 168  F: -2736.009168028494514  |grad|_K:  1.364e-07  alpha:  2.434e-01  linmin: -2.255e-05  t[s]:  13046.12
	FillingsUpdate:  mu: +0.090197378  nElectrons: 390.000000  magneticMoment: [ Abs: 23.73458  Tot: +0.00000 ]
	SubspaceRotationAdjust: set factor to 0.659
ElecMinimize: Iter: 169  F: -2736.009169097107588  |grad|_K:  1.411e-07  alpha:  3.625e-01  linmin:  4.814e-06  t[s]:  13118.61
	FillingsUpdate:  mu: +0.090347259  nElectrons: 390.000000  magneticMoment: [ Abs: 23.73436  Tot: -0.00000 ]
	SubspaceRotationAdjust: set factor to 0.692
ElecMinimize: Iter: 170  F: -2736.009170405372970  |grad|_K:  1.816e-07  alpha:  4.159e-01  linmin:  4.687e-06  t[s]:  13192.54
	FillingsUpdate:  mu: +0.089908783  nElectrons: 390.000000  magneticMoment: [ Abs: 23.73433  Tot: -0.00000 ]
	SubspaceRotationAdjust: set factor to 0.587
ElecMinimize: Iter: 171  F: -2736.009172110162126  |grad|_K:  2.149e-07  alpha:  3.268e-01  linmin:  1.089e-06  t[s]:  13264.45
	FillingsUpdate:  mu: +0.090236381  nElectrons: 390.000000  magneticMoment: [ Abs: 23.73446  Tot: +0.00000 ]
	SubspaceRotationAdjust: set factor to 0.554
ElecMinimize: Iter: 172  F: -2736.009174394453112  |grad|_K:  2.262e-07  alpha:  3.129e-01  linmin: -5.247e-06  t[s]:  13337.89
	FillingsUpdate:  mu: +0.090253304  nElectrons: 390.000000  magneticMoment: [ Abs: 23.73469  Tot: -0.00000 ]
	SubspaceRotationAdjust: set factor to 0.635
ElecMinimize: Iter: 173  F: -2736.009177705618640  |grad|_K:  2.478e-07  alpha:  4.086e-01  linmin:  1.888e-06  t[s]:  13409.71
	FillingsUpdate:  mu: +0.089726280  nElectrons: 390.000000  magneticMoment: [ Abs: 23.73473  Tot: +0.00000 ]
	SubspaceRotationAdjust: set factor to 0.601
ElecMinimize: Iter: 174  F: -2736.009181313365843  |grad|_K:  3.018e-07  alpha:  3.704e-01  linmin:  3.732e-05  t[s]:  13481.35
	FillingsUpdate:  mu: +0.090155249  nElectrons: 390.000000  magneticMoment: [ Abs: 23.73450  Tot: -0.00000 ]
	SubspaceRotationAdjust: set factor to 0.54
ElecMinimize: Iter: 175  F: -2736.009185857418288  |grad|_K:  3.180e-07  alpha:  3.192e-01  linmin:  2.901e-07  t[s]:  13554.15
	FillingsUpdate:  mu: +0.089849437  nElectrons: 390.000000  magneticMoment: [ Abs: 23.73416  Tot: -0.00000 ]
	SubspaceRotationAdjust: set factor to 0.598
ElecMinimize: Iter: 176  F: -2736.009190930895784  |grad|_K:  3.067e-07  alpha:  3.172e-01  linmin:  3.103e-05  t[s]:  13626.34
	FillingsUpdate:  mu: +0.089566285  nElectrons: 390.000000  magneticMoment: [ Abs: 23.73348  Tot: -0.00000 ]
	SubspaceRotationAdjust: set factor to 0.671
ElecMinimize: Iter: 177  F: -2736.009195788930356  |grad|_K:  3.304e-07  alpha:  3.305e-01  linmin:  3.964e-05  t[s]:  13701.04
	FillingsUpdate:  mu: +0.090011966  nElectrons: 390.000000  magneticMoment: [ Abs: 23.73235  Tot: +0.00000 ]
	SubspaceRotationAdjust: set factor to 0.652
ElecMinimize: Iter: 178  F: -2736.009201273277085  |grad|_K:  3.618e-07  alpha:  3.215e-01  linmin: -9.704e-07  t[s]:  13774.04
	FillingsUpdate:  mu: +0.089461921  nElectrons: 390.000000  magneticMoment: [ Abs: 23.73124  Tot: -0.00000 ]
	SubspaceRotationAdjust: set factor to 0.761
ElecMinimize: Iter: 179  F: -2736.009206647393057  |grad|_K:  3.491e-07  alpha:  2.532e-01  linmin:  3.976e-05  t[s]:  13845.81
	FillingsUpdate:  mu: +0.089346926  nElectrons: 390.000000  magneticMoment: [ Abs: 23.72975  Tot: +0.00000 ]
	SubspaceRotationAdjust: set factor to 0.885
ElecMinimize: Iter: 180  F: -2736.009213125416409  |grad|_K:  4.334e-07  alpha:  3.446e-01  linmin:  3.373e-05  t[s]:  13919.40
	FillingsUpdate:  mu: +0.089922256  nElectrons: 390.000000  magneticMoment: [ Abs: 23.72693  Tot: -0.00000 ]
	SubspaceRotationAdjust: set factor to 1
ElecMinimize: Iter: 181  F: -2736.009220437270415  |grad|_K:  4.859e-07  alpha:  2.514e-01  linmin: -9.496e-06  t[s]:  13991.99
	FillingsUpdate:  mu: +0.089393558  nElectrons: 390.000000  magneticMoment: [ Abs: 23.72342  Tot: -0.00000 ]
	SubspaceRotationAdjust: set factor to 0.955
ElecMinimize: Iter: 182  F: -2736.009227718191141  |grad|_K:  4.934e-07  alpha:  1.798e-01  linmin:  1.251e-05  t[s]:  14064.69
	FillingsUpdate:  mu: +0.089244593  nElectrons: 390.000000  magneticMoment: [ Abs: 23.72018  Tot: -0.00000 ]
	SubspaceRotationAdjust: set factor to 0.828
ElecMinimize: Iter: 183  F: -2736.009234162960638  |grad|_K:  5.380e-07  alpha:  1.679e-01  linmin:  5.089e-05  t[s]:  14137.76
	FillingsUpdate:  mu: +0.089572374  nElectrons: 390.000000  magneticMoment: [ Abs: 23.71780  Tot: -0.00000 ]
	SubspaceRotationAdjust: set factor to 0.869
ElecMinimize: Iter: 184  F: -2736.009239338138286  |grad|_K:  4.821e-07  alpha:  1.178e-01  linmin: -6.048e-06  t[s]:  14211.08
	FillingsUpdate:  mu: +0.089788902  nElectrons: 390.000000  magneticMoment: [ Abs: 23.71586  Tot: -0.00000 ]
	SubspaceRotationAdjust: set factor to 0.863
ElecMinimize: Iter: 185  F: -2736.009244912619579  |grad|_K:  4.887e-07  alpha:  1.505e-01  linmin: -2.020e-05  t[s]:  14283.74
	FillingsUpdate:  mu: +0.089438665  nElectrons: 390.000000  magneticMoment: [ Abs: 23.71425  Tot: +0.00000 ]
	SubspaceRotationAdjust: set factor to 0.871
ElecMinimize: Iter: 186  F: -2736.009250317160422  |grad|_K:  4.868e-07  alpha:  1.411e-01  linmin:  4.358e-05  t[s]:  14356.31
	FillingsUpdate:  mu: +0.089296463  nElectrons: 390.000000  magneticMoment: [ Abs: 23.71312  Tot: -0.00000 ]
	SubspaceRotationAdjust: set factor to 0.774
ElecMinimize: Iter: 187  F: -2736.009255242256131  |grad|_K:  5.114e-07  alpha:  1.342e-01  linmin:  2.561e-05  t[s]:  14428.83
	FillingsUpdate:  mu: +0.089576543  nElectrons: 390.000000  magneticMoment: [ Abs: 23.71254  Tot: -0.00000 ]
	SubspaceRotationAdjust: set factor to 0.912
ElecMinimize: Iter: 188  F: -2736.009259988045869  |grad|_K:  4.805e-07  alpha:  1.168e-01  linmin: -8.398e-06  t[s]:  14500.08
	FillingsUpdate:  mu: +0.089913641  nElectrons: 390.000000  magneticMoment: [ Abs: 23.71244  Tot: +0.00000 ]
	SubspaceRotationAdjust: set factor to 0.893
ElecMinimize: Iter: 189  F: -2736.009264894530133  |grad|_K:  4.730e-07  alpha:  1.329e-01  linmin: -2.751e-05  t[s]:  14570.58
	FillingsUpdate:  mu: +0.089817818  nElectrons: 390.000000  magneticMoment: [ Abs: 23.71296  Tot: +0.00000 ]
	SubspaceRotationAdjust: set factor to 0.969
ElecMinimize: Iter: 190  F: -2736.009269376027987  |grad|_K:  4.196e-07  alpha:  1.237e-01  linmin: -8.466e-06  t[s]:  14644.18
	FillingsUpdate:  mu: +0.089747434  nElectrons: 390.000000  magneticMoment: [ Abs: 23.71419  Tot: +0.00000 ]
	SubspaceRotationAdjust: set factor to 0.977
ElecMinimize: Iter: 191  F: -2736.009273353961817  |grad|_K:  4.216e-07  alpha:  1.413e-01  linmin: -1.648e-05  t[s]:  14715.41
	FillingsUpdate:  mu: +0.090065149  nElectrons: 390.000000  magneticMoment: [ Abs: 23.71582  Tot: +0.00000 ]
	SubspaceRotationAdjust: set factor to 1.2
ElecMinimize: Iter: 192  F: -2736.009277046568059  |grad|_K:  3.636e-07  alpha:  1.297e-01  linmin: -2.562e-05  t[s]:  14786.43
	FillingsUpdate:  mu: +0.090297158  nElectrons: 390.000000  magneticMoment: [ Abs: 23.71770  Tot: +0.00000 ]
	SubspaceRotationAdjust: set factor to 1.32
ElecMinimize: Iter: 193  F: -2736.009280508877055  |grad|_K:  3.611e-07  alpha:  1.601e-01  linmin: -3.902e-05  t[s]:  14856.53
	FillingsUpdate:  mu: +0.090045904  nElectrons: 390.000000  magneticMoment: [ Abs: 23.71971  Tot: -0.00000 ]
	SubspaceRotationAdjust: set factor to 1.34
ElecMinimize: Iter: 194  F: -2736.009283225082982  |grad|_K:  3.181e-07  alpha:  1.275e-01  linmin: -6.574e-06  t[s]:  14927.42
	FillingsUpdate:  mu: +0.090320100  nElectrons: 390.000000  magneticMoment: [ Abs: 23.72198  Tot: -0.00000 ]
	SubspaceRotationAdjust: set factor to 1.95
ElecMinimize: Iter: 195  F: -2736.009285227954479  |grad|_K:  2.364e-07  alpha:  1.248e-01  linmin: -4.274e-05  t[s]:  15001.61
	FillingsUpdate:  mu: +0.090510094  nElectrons: 390.000000  magneticMoment: [ Abs: 23.72419  Tot: +0.00000 ]
	SubspaceRotationAdjust: set factor to 2.32
ElecMinimize: Iter: 196  F: -2736.009286718608564  |grad|_K:  2.244e-07  alpha:  1.638e-01  linmin: -2.532e-05  t[s]:  15072.83
	FillingsUpdate:  mu: +0.090270306  nElectrons: 390.000000  magneticMoment: [ Abs: 23.72535  Tot: +0.00000 ]
	SubspaceRotationAdjust: set factor to 1.95
ElecMinimize: Iter: 197  F: -2736.009287487837810  |grad|_K:  2.367e-07  alpha:  9.427e-02  linmin: -1.169e-06  t[s]:  15146.51
	FillingsUpdate:  mu: +0.090499695  nElectrons: 390.000000  magneticMoment: [ Abs: 23.72648  Tot: +0.00000 ]
	SubspaceRotationAdjust: set factor to 1.9
ElecMinimize: Iter: 198  F: -2736.009288142039622  |grad|_K:  1.645e-07  alpha:  7.386e-02  linmin: -1.575e-06  t[s]:  15219.20
	FillingsUpdate:  mu: +0.090494919  nElectrons: 390.000000  magneticMoment: [ Abs: 23.72791  Tot: -0.00000 ]
	SubspaceRotationAdjust: set factor to 2.35
ElecMinimize: Iter: 199  F: -2736.009288786126035  |grad|_K:  1.379e-07  alpha:  1.500e-01  linmin: -1.716e-06  t[s]:  15292.35
	FillingsUpdate:  mu: +0.090460652  nElectrons: 390.000000  magneticMoment: [ Abs: 23.72896  Tot: -0.00000 ]
	SubspaceRotationAdjust: set factor to 2.48
ElecMinimize: Iter: 200  F: -2736.009289298976000  |grad|_K:  1.384e-07  alpha:  1.700e-01  linmin: -8.542e-07  t[s]:  15364.39
	FillingsUpdate:  mu: +0.090633600  nElectrons: 390.000000  magneticMoment: [ Abs: 23.72941  Tot: -0.00000 ]
	SubspaceRotationAdjust: set factor to 1.82
ElecMinimize: Iter: 201  F: -2736.009289626361806  |grad|_K:  1.691e-07  alpha:  1.080e-01  linmin: -1.113e-06  t[s]:  15434.83
ElecMinimize: Converged (|Delta F|<1.000000e-06 for 5 iters).
Setting wave functions to eigenvectors of Hamiltonian

# Ionic positions in lattice coordinates:
ion Ni   0.000000000000000   0.000000000000000   0.150000000000000 1
ion Ni   0.500000000000000   0.000000000000000   0.150000000000000 1
ion Ni   0.000000000000000   0.500000000000000   0.150000000000000 1
ion Ni   0.500000000000000   0.500000000000000   0.150000000000000 1
ion Ni   0.250000000000000   0.250000000000000   0.050000000000000 1
ion Ni   0.250000000000000   0.750000000000000   0.050000000000000 1
[...]
ion Ni   0.000000000000000   0.500000000000000  -0.050000000000000 0
ion Ni   0.500000000000000   0.500000000000000  -0.050000000000000 0
ion Ni   0.250000000000000   0.250000000000000  -0.150000000000000 0
ion Ni   0.250000000000000   0.750000000000000  -0.150000000000000 0
ion Ni  -0.250000000000000   0.250000000000000  -0.150000000000000 0
ion Ni  -0.250000000000000   0.750000000000000  -0.150000000000000 0
ion O   0.253097072314887   0.254426072995645   0.146626837315877 1
ion O   0.254678370117419   0.745626221984226   0.144789625306633 1
ion O  -0.256483058189381   0.255823267478099   0.144889388652828 1
ion O  -0.256135097902146   0.744794959515530   0.144864449019458 1
ion O  -0.000063281672942   0.001449607719873   0.054138148071094 1
ion O   0.500161744783093   0.000059538244489   0.047879271845702 1
ion O   0.002603232056899   0.499978747528471   0.047846109772136 1
ion O   0.499958268536766   0.498533677870669   0.047420626786442 1
ion O   0.250000000000000   0.250000000000000  -0.050000000000000 0
ion O   0.250000000000000   0.750000000000000  -0.050000000000000 0
ion O  -0.250000000000000   0.250000000000000  -0.050000000000000 0
ion O  -0.250000000000000   0.750000000000000  -0.050000000000000 0
ion O   0.000000000000000   0.000000000000000  -0.150000000000000 0
ion O   0.500000000000000   0.000000000000000  -0.150000000000000 0
ion O   0.000000000000000   0.500000000000000  -0.150000000000000 0
ion O   0.500000000000000   0.500000000000000  -0.150000000000000 0
ion O  -0.008261327564810  -0.006958233187149   0.238958972001987 1
ion H   0.104113968746081   0.104387872041316   0.252806960995004 1

# Forces in Lattice coordinates:
force Ni   0.005889491412764   0.006208616992873  -0.045269337805152 1
force Ni  -0.000332250929161  -0.002467529089387  -0.008054367074508 1
force Ni  -0.001953310315488   0.006392766358267  -0.008389379619831 1
force Ni   0.001305234378941   0.000816470054260  -0.023519198816914 1
force Ni   0.005059712518195   0.005286656577744   0.012644638396016 1
force Ni   0.007085742992660  -0.006271572100341   0.021895765603247 1
force Ni  -0.004984585166566   0.005410668722497   0.019369735004696 1
force Ni  -0.004050777492495  -0.005762022207668   0.038837926704009 1
force Ni  -0.004264815842604  -0.000603674627155  -0.226067095333179 0
force Ni   0.000451101271748   0.002043140841914  -0.375659257747013 0
force Ni   0.004818453370036  -0.001334409641203  -0.382392119054356 0
force Ni   0.000771336304749  -0.002412473715212  -0.397767125710821 0
force Ni   0.003468532656292   0.001464316550199   0.282905177233940 0
force Ni   0.003374992539959  -0.001509099652530   0.276714835735071 0
force Ni   0.000026281243960   0.001393340791291   0.283626691803143 0
force Ni   0.000060636274638  -0.001348201765429   0.281421298497298 0
force O  -0.001490649310171   0.000284065319229  -0.042698609660063 1
force O  -0.003692348066259   0.000542209319722   0.015180032070187 1
force O  -0.002185509706776  -0.002380261341273   0.004388948195770 1
force O  -0.004898200715803  -0.001746916148602   0.003919743217821 1
force O  -0.001239255609923  -0.002624087660785  -0.014483332018342 1
force O   0.003128421647823  -0.000154290900357   0.023486068038985 1
force O  -0.002725848517577   0.000207800523773   0.024062078306940 1
force O  -0.001590845184846  -0.000075103275992   0.029087487157351 1
force O  -0.015260503683702  -0.010317543813377   0.063068745949259 0
force O  -0.015501429240163   0.010662746656328   0.032992595256335 0
force O   0.005946287616743  -0.010489089014474   0.020292980980332 0
force O   0.005596081006771   0.009921872768913   0.030778478421258 0
force O   0.009366523072299   0.000094922338346   0.053207450598078 0
force O   0.006676400670286  -0.000137608274731   0.047368532995620 0
force O   0.005696585599599   0.000071565124851   0.048611071399826 0
force O   0.006331465244006   0.000479158494045   0.047287827527374 0
force O   0.011361959715886   0.010884706503575   0.071092202058709 1
force H  -0.019150740218005  -0.019227799140565   0.011461854398240 1

# Energy components:
   Eewald =     7377.1716784795135027
       EH =     9857.1987340605483041
     Eloc =   -20049.5223912242981896
      Enl =     -852.5694166587775271
   Epulay =        0.0007330941558102
      Exc =     -302.2723679779514327
       KE =     1231.2202515702342680
        U =        2.0922738741403926
-------------------------------------
     Etot =    -2736.6805047824345820
       TS =        0.0008819279215218
-------------------------------------
        F =    -2736.6813867103560369

IonicMinimize: Iter:   9  F: -2736.681386710356037  |grad|_K:  6.247e-04  alpha:  1.000e+00  linmin: -1.724e-02  t[s]:  22916.28

#--- Lowdin population analysis ---
# oxidation-state Ni +3.587 +3.727 +3.726 +3.662 +3.361 +3.353 +3.353 +3.356 +3.382 +3.373 +3.373 +3.378 +3.736 +3.734 +3.733 +3.736
# magnetic-moments Ni +0.704 -1.003 +0.997 -0.871 +0.898 +0.892 -0.892 -0.895 -0.924 +0.908 -0.908 +0.909 -1.011 -1.010 +1.009 +1.011
# oxidation-state O -0.602 -0.580 -0.584 -0.583 -0.571 -0.578 -0.578 -0.573 -0.584 -0.584 -0.583 -0.584 -0.637 -0.644 -0.644 -0.643 -0.569
# magnetic-moments O +0.147 +0.176 -0.115 -0.133 -0.025 -0.057 +0.060 -0.053 -0.058 -0.061 +0.059 +0.056 -0.163 +0.132 -0.132 +0.128 +0.249
# oxidation-state H +0.381
# magnetic-moments H -0.004


-------- Electronic minimization -----------
	FillingsUpdate:  mu: +0.094743895  nElectrons: 391.000000  magneticMoment: [ Abs: 23.29037  Tot: +0.00000 ]
ElecMinimize: Iter:   0  F: -2736.611827291681493  |grad|_K:  4.951e-05  alpha:  1.000e+00
	FillingsUpdate:  mu: +0.094535872  nElectrons: 391.000000  magneticMoment: [ Abs: 23.31260  Tot: +0.00000 ]
	SubspaceRotationAdjust: set factor to 0.63
ElecMinimize: Iter:   1  F: -2736.676531631999751  |grad|_K:  9.782e-06  alpha:  1.668e-01  linmin:  7.827e-04  t[s]:  23011.79
	FillingsUpdate:  mu: +0.097939288  nElectrons: 391.000000  magneticMoment: [ Abs: 23.28153  Tot: +0.00000 ]
	SubspaceRotationAdjust: set factor to 0.541
ElecMinimize: Iter:   2  F: -2736.679921087089042  |grad|_K:  4.748e-06  alpha:  2.242e-01  linmin:  1.782e-04  t[s]:  23084.20
	FillingsUpdate:  mu: +0.093521804  nElectrons: 391.000000  magneticMoment: [ Abs: 23.30181  Tot: +0.00000 ]
	SubspaceRotationAdjust: set factor to 0.415
ElecMinimize: Iter:   3  F: -2736.680678400703982  |grad|_K:  2.904e-06  alpha:  2.124e-01  linmin: -8.499e-05  t[s]:  23156.28
	FillingsUpdate:  mu: +0.096425157  nElectrons: 391.000000  magneticMoment: [ Abs: 23.29143  Tot: -0.00000 ]
	SubspaceRotationAdjust: set factor to 0.445
ElecMinimize: Iter:   4  F: -2736.681064599272304  |grad|_K:  1.954e-06  alpha:  2.875e-01  linmin:  3.603e-05  t[s]:  23229.87
	FillingsUpdate:  mu: +0.095782517  nElectrons: 391.000000  magneticMoment: [ Abs: 23.29098  Tot: +0.00000 ]
	SubspaceRotationAdjust: set factor to 0.57
ElecMinimize: Iter:   5  F: -2736.681255190802403  |grad|_K:  1.401e-06  alpha:  3.152e-01  linmin:  8.623e-07  t[s]:  23303.69
	FillingsUpdate:  mu: +0.094305684  nElectrons: 391.000000  magneticMoment: [ Abs: 23.29623  Tot: -0.00000 ]
	SubspaceRotationAdjust: set factor to 0.552
ElecMinimize: Iter:   6  F: -2736.681360713388131  |grad|_K:  1.040e-06  alpha:  3.383e-01  linmin: -2.051e-06  t[s]:  23376.33
	FillingsUpdate:  mu: +0.095747908  nElectrons: 391.000000  magneticMoment: [ Abs: 23.29201  Tot: -0.00000 ]
	SubspaceRotationAdjust: set factor to 0.429
ElecMinimize: Iter:   7  F: -2736.681400849435249  |grad|_K:  7.137e-07  alpha:  2.334e-01  linmin:  1.229e-06  t[s]:  23448.99
	FillingsUpdate:  mu: +0.095206501  nElectrons: 391.000000  magneticMoment: [ Abs: 23.29443  Tot: +0.00000 ]
	SubspaceRotationAdjust: set factor to 0.482
ElecMinimize: Iter:   8  F: -2736.681423964176702  |grad|_K:  3.957e-07  alpha:  2.857e-01  linmin: -5.343e-07  t[s]:  23521.84
	FillingsUpdate:  mu: +0.095044865  nElectrons: 391.000000  magneticMoment: [ Abs: 23.29523  Tot: +0.00000 ]
	SubspaceRotationAdjust: set factor to 0.513
ElecMinimize: Iter:   9  F: -2736.681431396325934  |grad|_K:  2.472e-07  alpha:  2.988e-01  linmin: -1.692e-07  t[s]:  23594.64
	FillingsUpdate:  mu: +0.095315904  nElectrons: 391.000000  magneticMoment: [ Abs: 23.29464  Tot: +0.00000 ]
	SubspaceRotationAdjust: set factor to 0.417
ElecMinimize: Iter:  10  F: -2736.681433961613493  |grad|_K:  1.563e-07  alpha:  2.642e-01  linmin:  1.264e-08  t[s]:  23668.28
	FillingsUpdate:  mu: +0.095166803  nElectrons: 391.000000  magneticMoment: [ Abs: 23.29552  Tot: +0.00000 ]
	SubspaceRotationAdjust: set factor to 0.362
ElecMinimize: Iter:  11  F: -2736.681435012610109  |grad|_K:  1.003e-07  alpha:  2.708e-01  linmin:  4.777e-07  t[s]:  23740.47
	FillingsUpdate:  mu: +0.095194834  nElectrons: 391.000000  magneticMoment: [ Abs: 23.29569  Tot: +0.00000 ]
	SubspaceRotationAdjust: set factor to 0.419
ElecMinimize: Iter:  12  F: -2736.681435522797983  |grad|_K:  6.838e-08  alpha:  3.192e-01  linmin:  1.111e-06  t[s]:  23812.13
	FillingsUpdate:  mu: +0.095230629  nElectrons: 391.000000  magneticMoment: [ Abs: 23.29577  Tot: +0.00000 ]
	SubspaceRotationAdjust: set factor to 0.449
ElecMinimize: Iter:  13  F: -2736.681435761423472  |grad|_K:  5.308e-08  alpha:  3.210e-01  linmin: -2.820e-05  t[s]:  23886.38
	FillingsUpdate:  mu: +0.095190291  nElectrons: 391.000000  magneticMoment: [ Abs: 23.29617  Tot: +0.00000 ]
	SubspaceRotationAdjust: set factor to 0.489
ElecMinimize: Iter:  14  F: -2736.681435921104821  |grad|_K:  4.299e-08  alpha:  3.559e-01  linmin:  4.653e-06  t[s]:  23960.54
	FillingsUpdate:  mu: +0.095205124  nElectrons: 391.000000  magneticMoment: [ Abs: 23.29642  Tot: +0.00000 ]
	SubspaceRotationAdjust: set factor to 0.571
ElecMinimize: Iter:  15  F: -2736.681436028603002  |grad|_K:  3.684e-08  alpha:  3.662e-01  linmin: -3.359e-05  t[s]:  24032.03
	FillingsUpdate:  mu: +0.095209194  nElectrons: 391.000000  magneticMoment: [ Abs: 23.29671  Tot: -0.00000 ]
	SubspaceRotationAdjust: set factor to 0.672
ElecMinimize: Iter:  16  F: -2736.681436107647642  |grad|_K:  3.130e-08  alpha:  3.657e-01  linmin:  3.164e-05  t[s]:  24105.29
ElecMinimize: Converged (|Delta F|<1.000000e-06 for 5 iters).
Setting wave functions to eigenvectors of Hamiltonian

# Ionic positions in lattice coordinates:
ion Ni  -0.000064129891121  -0.000147584339248   0.151385510962821 1
ion Ni   0.500879322065071  -0.000244445206558   0.145473845820708 1
ion Ni  -0.001895364672741   0.501513511208268   0.145480428209721 1
ion Ni   0.499180356330344   0.500458842569671   0.145887804974513 1
ion Ni   0.250151312360055   0.249487675724202   0.049164277209513 1
ion Ni   0.250462402421598   0.750285076603396   0.048580028560665 1
ion Ni  -0.249429087136335   0.250311739896669   0.048523672335619 1
ion Ni  -0.249327996646359   0.749979931928973   0.048625141998972 1
ion Ni   0.000000000000000   0.000000000000000  -0.050000000000000 0
ion Ni   0.500000000000000   0.000000000000000  -0.050000000000000 0
ion Ni   0.000000000000000   0.500000000000000  -0.050000000000000 0
ion Ni   0.500000000000000   0.500000000000000  -0.050000000000000 0
ion Ni   0.250000000000000   0.250000000000000  -0.150000000000000 0
ion Ni   0.250000000000000   0.750000000000000  -0.150000000000000 0
ion Ni  -0.250000000000000   0.250000000000000  -0.150000000000000 0
ion Ni  -0.250000000000000   0.750000000000000  -0.150000000000000 0
ion O   0.252668038240254   0.254200088040528   0.146172799645278 1
ion O   0.253919256016109   0.746091556398282   0.144806606767886 1
ion O  -0.256224420326248   0.255128104881941   0.144814612335712 1
ion O  -0.256384213468084   0.744830265215037   0.144808476677463 1
ion O  -0.000043293541058   0.001121033150193   0.053995808211401 1
ion O   0.500518402989175   0.000029239348519   0.047926613696568 1
ion O   0.002407606345058   0.500026984962514   0.047895371062674 1
ion O   0.499723223992579   0.498550063978423   0.047544837846721 1
ion O   0.250000000000000   0.250000000000000  -0.050000000000000 0
ion O   0.250000000000000   0.750000000000000  -0.050000000000000 0
ion O  -0.250000000000000   0.250000000000000  -0.050000000000000 0
ion O  -0.250000000000000   0.750000000000000  -0.050000000000000 0
ion O   0.000000000000000   0.000000000000000  -0.150000000000000 0
ion O   0.500000000000000   0.000000000000000  -0.150000000000000 0
ion O   0.000000000000000   0.500000000000000  -0.150000000000000 0
ion O   0.500000000000000   0.500000000000000  -0.150000000000000 0
ion O  -0.008333001557766  -0.007191784669064   0.238985300738348 1
ion H   0.103496080272659   0.103756456516462   0.253370959803426 1

# Forces in Lattice coordinates:
force Ni   0.003573561789306   0.002122295912956  -0.038124255629191 1
force Ni   0.001772035535961  -0.000348887577896   0.005595834862950 1
force Ni  -0.001844785527303   0.002745356312802   0.004030552604744 1
force Ni  -0.000994139919484  -0.001866361337408   0.002698618483915 1
force Ni  -0.002959828030711  -0.002887296936228  -0.013160173334704 1
force Ni  -0.000396650637116   0.001809808861878  -0.006274689807377 1
force Ni   0.001412548461707  -0.001650314729657  -0.010528248567864 1
force Ni   0.001829520592834   0.001474065084687  -0.012652674899023 1
force Ni  -0.004866137373685  -0.000929523023389  -0.219652193739523 0
force Ni   0.001231065622118   0.001393362514608  -0.375206862314644 0
force Ni   0.004180132127976  -0.000753294020431  -0.380796799441745 0
force Ni   0.001749247570047  -0.001960168401861  -0.403815516956407 0
force Ni   0.003204120183383   0.001199395591563   0.282014986825321 0
force Ni   0.003126822556543  -0.001248211922863   0.277222952191720 0
force Ni   0.000320098976945   0.001127780882725   0.284337519713409 0
force Ni   0.000341806603926  -0.001063021388466   0.283098069284635 0
force O   0.002506662883429   0.005352993916481   0.021849094106901 1
force O   0.002982078035171  -0.004664713076797   0.021992570079265 1
force O  -0.005799123153243   0.005379409037673   0.022787627931896 1
force O  -0.005632790958454  -0.003536566766517   0.031730317721124 1
force O  -0.000615810412048  -0.001432795699654   0.000918992093986 1
force O   0.001914362286961  -0.000567706458651   0.005317503897344 1
force O  -0.002115509745766   0.000014686200789   0.007770177771653 1
force O  -0.000020748166305   0.000823605642495   0.001477788784156 1
force O  -0.014629216846267  -0.009800090662071   0.063311640525475 0
force O  -0.014863006574663   0.010035771415902   0.040100651889335 0
force O   0.005376277197839  -0.009793173041560   0.025508342777345 0
force O   0.004914893152369   0.009254440537583   0.041635683815429 0
force O   0.009411056047924   0.000074502522617   0.053991324771776 0
force O   0.006602430906562  -0.000117212523633   0.048406144216079 0
force O   0.005786446344592   0.000047885420431   0.049708549213122 0
force O   0.006299655212220   0.000458540580808   0.048089873087559 0
force O   0.009032178725185   0.009832775490658   0.064301669219407 1
force H  -0.016650757031792  -0.016860070750942   0.001846190624376 1

# Energy components:
   Eewald =     7379.2917161155119175
       EH =     9859.3878481980900688
     Eloc =   -20053.8359725541558873
      Enl =     -852.5725694246860940
   Epulay =        0.0007330941558102
      Exc =     -302.2748590102916637
       KE =     1231.2304223927017119
        U =        2.0921393318540553
-------------------------------------
     Etot =    -2736.6805418568192181
       TS =        0.0008942508282979
-------------------------------------
        F =    -2736.6814361076476416

IonicMinimize: Iter:  10  F: -2736.681436107647642  |grad|_K:  5.016e-04  alpha:  1.000e+00  linmin:  2.721e-03  t[s]:  24113.88
IonicMinimize: Converged (|Delta F|<1.000000e-04 for 3 iters).

#--- Lowdin population analysis ---
# oxidation-state Ni +3.588 +3.726 +3.724 +3.661 +3.359 +3.352 +3.353 +3.355 +3.383 +3.373 +3.373 +3.377 +3.736 +3.734 +3.733 +3.735
# magnetic-moments Ni +0.706 -1.002 +0.996 -0.874 +0.897 +0.892 -0.892 -0.894 -0.924 +0.908 -0.908 +0.909 -1.011 -1.010 +1.009 +1.011
# oxidation-state O -0.601 -0.580 -0.584 -0.583 -0.571 -0.577 -0.577 -0.573 -0.584 -0.584 -0.583 -0.584 -0.637 -0.644 -0.644 -0.643 -0.570
# magnetic-moments O +0.149 +0.175 -0.117 -0.134 -0.026 -0.058 +0.061 -0.053 -0.058 -0.061 +0.059 +0.058 -0.162 +0.132 -0.132 +0.129 +0.250
# oxidation-state H +0.382
# magnetic-moments H -0.004


Dumping 'OH.ionpos' ... done
Dumping 'OH.lattice' ... done
Dumping 'OH.Ecomponents' ... done
End date and time: Sun Mar 30 03:20:55 2025  (Duration: 0-6:41:56.81)
Done!
File 'min_progress.txt' has been deleted.
File 'min_details.txt' has been deleted.
File 'O_pos.txt' does not exist, so it cannot be deleted.
File 'OH_pos.txt' does not exist, so it cannot be deleted.
Directory 'runs' has been deleted.
File '/data2/jt577/March_2025/pure_RSO/ionic_relax_magnetism/pure_NiO/runs/wavefunctions/O.wfns' does not exist and cannot be copied.
File '/data2/jt577/March_2025/pure_RSO/ionic_relax_magnetism/pure_NiO/runs/wavefunctions/OH.wfns' does not exist and cannot be copied.
File '/data2/jt577/March_2025/pure_RSO/ionic_relax_magnetism/pure_NiO/runs/calc_20250329-124117/O/O.wfns' does not exist and cannot be copied.
File '/data2/jt577/March_2025/pure_RSO/ionic_relax_magnetism/pure_NiO/runs/calc_20250329-124117/OH/OH.wfns' does not exist and cannot be copied.
File '/data2/jt577/March_2025/pure_RSO/ionic_relax_magnetism/pure_NiO/runs/calc_20250329-124117/O/O.ionpos' has been copied to '/data2/jt577/March_2025/pure_RSO/ionic_relax_magnetism/pure_NiO/runs/positions/O.ionpos'.
File '/data2/jt577/March_2025/pure_RSO/ionic_relax_magnetism/pure_NiO/runs/calc_20250329-124117/O/O.lattice' has been copied to '/data2/jt577/March_2025/pure_RSO/ionic_relax_magnetism/pure_NiO/runs/positions/O.lattice'.
File '/data2/jt577/March_2025/pure_RSO/ionic_relax_magnetism/pure_NiO/runs/calc_20250329-124117/OH/OH.ionpos' has been copied to '/data2/jt577/March_2025/pure_RSO/ionic_relax_magnetism/pure_NiO/runs/positions/OH.ionpos'.
File '/data2/jt577/March_2025/pure_RSO/ionic_relax_magnetism/pure_NiO/runs/calc_20250329-124117/OH/OH.lattice' has been copied to '/data2/jt577/March_2025/pure_RSO/ionic_relax_magnetism/pure_NiO/runs/positions/OH.lattice'.
File '/data2/jt577/March_2025/pure_RSO/ionic_relax_magnetism/pure_NiO/runs/wavefunctions/O.wfns' does not exist and cannot be copied.
File '/data2/jt577/March_2025/pure_RSO/ionic_relax_magnetism/pure_NiO/runs/wavefunctions/OH.wfns' does not exist and cannot be copied.
Traceback (most recent call last):
  File "/data2/jt577/March_2025/pure_RSO/ionic_relax_magnetism/pure_NiO/main.py", line 246, in <module>
    x, _, unique_folder = mn.PBFGS(fun=cost, x0=x, jac=grad_cost, args=(elements, target, eta, q, first_iteration, generic_inputs, lattice, positions_ordered, ads_O_pos, ads_OH_pos), S=num_species, B=quasi_Hessian, folder=unique_folder, progress_file_path=progress_file_path, details_file_path=details_file_path, maxit=maxit, tol=1e-2, callback=callback_func)
  File "/data2/jt577/March_2025/pure_RSO/ionic_relax_magnetism/pure_NiO/modules/minimize.py", line 162, in PBFGS
    unique_folder = bs.perform_calc(x, *args)
  File "/data2/jt577/March_2025/pure_RSO/ionic_relax_magnetism/pure_NiO/modules/bsruncalc.py", line 152, in perform_calc
    energy_surface(w, adsorbate='O', elements=elements, folder=unique_folder, first_iteration=first_iteration, generic_inputs=generic_inputs, lattice=lattice, positions_ordered=positions_ordered, ads_O_pos=ads_O_pos, ads_OH_pos=ads_OH_pos)
  File "/data2/jt577/March_2025/pure_RSO/ionic_relax_magnetism/pure_NiO/modules/bsruncalc.py", line 128, in energy_surface
    write_input_surface(weights, adsorbate, elements, folder, first_iteration, generic_inputs, lattice, positions_ordered, ads_O_pos, ads_OH_pos)
  File "/data2/jt577/March_2025/pure_RSO/ionic_relax_magnetism/pure_NiO/modules/bsruncalc.py", line 82, in write_input_surface
    curr_line = mixed_lines[i]
IndexError: list index out of range
