
*************** JDFTx 1.7.0  ***************

Start date and time: Thu Mar  6 00:14:40 2025
Executable /data2/jt577/jdftx_eat_withLibXC/build/jdftx with command-line: -i /data2/jt577/March_2025/pure_RSO/no_ionic_relax/pure_NiO/runs/calc_20250306-001439/O/O.in
Running on hosts (process indices):  node3306 (0-8)
Divided in process groups (process indices):  0 (0)  1 (1)  2 (2)  3 (3)  4 (4)  5 (5)  6 (6)  7 (7)  8 (8)
Resource initialization completed at t[s]:      0.00
Run totals: 9 processes, 63 threads, 0 GPUs


Input parsed successfully to the following command list (including defaults):

add-mix mix1 Ti Cu Ni Zn 
add-mix mix2 Ti Cu Ni Zn 
add-mix mix3 Ti Cu Ni Zn 
add-mix mix4 Ti Cu Ni Zn 
add-mix mix5 Ti Cu Ni Zn 
add-mix mix6 Ti Cu Ni Zn 
add-mix mix7 Ti Cu Ni Zn 
add-mix mix8 Ti Cu Ni Zn 
add-mix mix9 Ti Cu Ni Zn 
add-mix mix10 Ti Cu Ni Zn 
add-mix mix11 Ti Cu Ni Zn 
add-mix mix12 Ti Cu Ni Zn 
add-mix mix13 Ti Cu Ni Zn 
add-mix mix14 Ti Cu Ni Zn 
add-mix mix15 Ti Cu Ni Zn 
add-mix mix16 Ti Cu Ni Zn 
basis kpoint-dependent
coords-type Lattice
core-overlap-check vector
coulomb-interaction Periodic
davidson-band-ratio 1.1
dump End State IonicPositions Lattice Ecomponents MixGrad
dump-name O.$VAR
elec-cutoff 30
elec-eigen-algo Davidson
elec-ex-corr gga-x-rpbe gga-c-pbe
elec-smearing Fermi 0.001
electronic-minimize  \
	dirUpdateScheme      FletcherReeves \
	linminMethod         DirUpdateRecommended \
	nIterations          1000 \
	history              15 \
	knormThreshold       0 \
	energyDiffThreshold  1e-06 \
	nEnergyDiff          5 \
	alphaTstart          1 \
	alphaTmin            1e-10 \
	updateTestStepSize   yes \
	alphaTreduceFactor   0.1 \
	alphaTincreaseFactor 3 \
	nAlphaAdjustMax      3 \
	wolfeEnergy          0.0001 \
	wolfeGradient        0.9 \
	fdTest               no
exchange-regularization WignerSeitzTruncated
fluid None
fluid-ex-corr (null) lda-PZ
fluid-gummel-loop 10 1.000000e-05
fluid-minimize  \
	dirUpdateScheme      PolakRibiere \
	linminMethod         DirUpdateRecommended \
	nIterations          100 \
	history              15 \
	knormThreshold       0 \
	energyDiffThreshold  0 \
	nEnergyDiff          2 \
	alphaTstart          1 \
	alphaTmin            1e-10 \
	updateTestStepSize   yes \
	alphaTreduceFactor   0.1 \
	alphaTincreaseFactor 3 \
	nAlphaAdjustMax      3 \
	wolfeEnergy          0.0001 \
	wolfeGradient        0.9 \
	fdTest               no
fluid-solvent H2O 55.338 ScalarEOS \
	epsBulk 78.4 \
	pMol 0.92466 \
	epsInf 1.77 \
	Pvap 1.06736e-10 \
	sigmaBulk 4.62e-05 \
	Rvdw 2.61727 \
	Res 1.42 \
	tauNuc 343133 \
	poleEl 15 7 1
forces-output-coords Positions
initial-state O.$VAR
ion mix1  0.000000000000000   0.000000000000000   1.000000000000000   0.000000000000000   0.000000000000000   0.000000000000000   0.150000000000000 0
ion mix2  0.000000000000000   0.000000000000000   1.000000000000000   0.000000000000000   0.500000000000000   0.000000000000000   0.150000000000000 0
ion mix3  0.000000000000000   0.000000000000000   1.000000000000000   0.000000000000000   0.000000000000000   0.500000000000000   0.150000000000000 0
ion mix4  0.000000000000000   0.000000000000000   1.000000000000000   0.000000000000000   0.500000000000000   0.500000000000000   0.150000000000000 0
ion mix5  0.000000000000000   0.000000000000000   1.000000000000000   0.000000000000000   0.250000000000000   0.250000000000000   0.050000000000000 0
ion mix6  0.000000000000000   0.000000000000000   1.000000000000000   0.000000000000000   0.250000000000000   0.750000000000000   0.050000000000000 0
ion mix7  0.000000000000000   0.000000000000000   1.000000000000000   0.000000000000000  -0.250000000000000   0.250000000000000   0.050000000000000 0
ion mix8  0.000000000000000   0.000000000000000   1.000000000000000   0.000000000000000  -0.250000000000000   0.750000000000000   0.050000000000000 0
ion mix9  0.000000000000000   0.000000000000000   1.000000000000000   0.000000000000000   0.000000000000000   0.000000000000000  -0.050000000000000 0
ion mix10  0.000000000000000   0.000000000000000   1.000000000000000   0.000000000000000   0.500000000000000   0.000000000000000  -0.050000000000000 0
ion mix11  0.000000000000000   0.000000000000000   1.000000000000000   0.000000000000000   0.000000000000000   0.500000000000000  -0.050000000000000 0
ion mix12  0.000000000000000   0.000000000000000   1.000000000000000   0.000000000000000   0.500000000000000   0.500000000000000  -0.050000000000000 0
ion mix13  0.000000000000000   0.000000000000000   1.000000000000000   0.000000000000000   0.250000000000000   0.250000000000000  -0.150000000000000 0
ion mix14  0.000000000000000   0.000000000000000   1.000000000000000   0.000000000000000   0.250000000000000   0.750000000000000  -0.150000000000000 0
ion mix15  0.000000000000000   0.000000000000000   1.000000000000000   0.000000000000000  -0.250000000000000   0.250000000000000  -0.150000000000000 0
ion mix16  0.000000000000000   0.000000000000000   1.000000000000000   0.000000000000000  -0.250000000000000   0.750000000000000  -0.150000000000000 0
ion O  0.250000000000000   0.250000000000000   0.150000000000000 0
ion O  0.250000000000000   0.750000000000000   0.150000000000000 0
ion O -0.250000000000000   0.250000000000000   0.150000000000000 0
ion O -0.250000000000000   0.750000000000000   0.150000000000000 0
ion O  0.000000000000000   0.000000000000000   0.050000000000000 0
ion O  0.500000000000000   0.000000000000000   0.050000000000000 0
ion O  0.000000000000000   0.500000000000000   0.050000000000000 0
ion O  0.500000000000000   0.500000000000000   0.050000000000000 0
ion O  0.250000000000000   0.250000000000000  -0.050000000000000 0
ion O  0.250000000000000   0.750000000000000  -0.050000000000000 0
ion O -0.250000000000000   0.250000000000000  -0.050000000000000 0
ion O -0.250000000000000   0.750000000000000  -0.050000000000000 0
ion O  0.000000000000000   0.000000000000000  -0.150000000000000 0
ion O  0.500000000000000   0.000000000000000  -0.150000000000000 0
ion O  0.000000000000000   0.500000000000000  -0.150000000000000 0
ion O  0.500000000000000   0.500000000000000  -0.150000000000000 0
ion O  0.000000000000000   0.000000000000000   0.230000000000000 1
ion-species SG15/$ID_ONCV_PBE.upf
ion-width 0
ionic-minimize  \
	dirUpdateScheme      L-BFGS \
	linminMethod         DirUpdateRecommended \
	nIterations          1000 \
	history              15 \
	knormThreshold       0.0001 \
	energyDiffThreshold  0.0001 \
	nEnergyDiff          3 \
	alphaTstart          1 \
	alphaTmin            1e-10 \
	updateTestStepSize   yes \
	alphaTreduceFactor   0.1 \
	alphaTincreaseFactor 3 \
	nAlphaAdjustMax      3 \
	wolfeEnergy          0.0001 \
	wolfeGradient        0.9 \
	fdTest               no
kpoint   0.500000000000   0.500000000000   0.500000000000  1.00000000000000
kpoint-folding 3 3 1 
latt-move-scale 1 1 1
latt-scale 1 1 1 
lattice  \
	   8.055000000000000    8.055000000000000    0.000000000000000  \
	   8.055000000000000   -8.055000000000000    0.000000000000000  \
	   0.000000000000000    0.000000000000000   40.274999999999999 
lattice-minimize  \
	dirUpdateScheme      L-BFGS \
	linminMethod         DirUpdateRecommended \
	nIterations          0 \
	history              15 \
	knormThreshold       0 \
	energyDiffThreshold  1e-06 \
	nEnergyDiff          2 \
	alphaTstart          1 \
	alphaTmin            1e-10 \
	updateTestStepSize   yes \
	alphaTreduceFactor   0.1 \
	alphaTincreaseFactor 3 \
	nAlphaAdjustMax      3 \
	wolfeEnergy          0.0001 \
	wolfeGradient        0.9 \
	fdTest               no
lcao-params -1 1e-06 0.001
pcm-variant GLSSA13
spintype no-spin
subspace-rotation-factor 1 yes
symmetries none
symmetry-threshold 0.0001


Applied RMS atom displacement 0 bohrs to make symmetries exact.

---------- Initializing the Grid ----------
R = 
[        8.055        8.055            0  ]
[        8.055       -8.055            0  ]
[            0            0       40.275  ]
unit cell volume = 5226.33
G =
[   0.390018   0.390018         -0  ]
[   0.390018  -0.390018         -0  ]
[         -0         -0   0.156007  ]
Minimum fftbox size, Smin = [  60  60  200  ]
Chosen fftbox size, S = [  60  60  200  ]

---------- Exchange Correlation functional ----------
Initialized LibXC exchange functional 'Hammer, Hansen, and Norskov'
Initialized LibXC correlation functional 'Perdew, Burke & Ernzerhof'

---------- Setting up pseudopotentials ----------
Width of ionic core gaussian charges (only for fluid interactions / plotting) set to 0
  Disabling overlap check for local pseudopotential.

Reading pseudopotential file '/data2/jt577/jdftx_eat_withLibXC/build/pseudopotentials/SG15/Ti_ONCV_PBE.upf':
  'Ti' pseudopotential, 'PBE' functional
  Generated using ONCVPSP code by D. R. Hamann
  Author: Martin Schlipf and Francois Gygi  Date: 150915.
  12 valence electrons, 4 orbitals, 6 projectors, 1178 radial grid points, with lMax = 2
  Transforming local potential to a uniform radial grid of dG=0.02 with 1412 points.
  Transforming nonlocal projectors to a uniform radial grid of dG=0.02 with 528 points.
    3S    l: 0   occupation:  2.0   eigenvalue: -2.301740
    3P    l: 1   occupation:  6.0   eigenvalue: -1.428110
    4S    l: 0   occupation:  2.0   eigenvalue: -0.164159
    3D    l: 2   occupation:  2.0   eigenvalue: -0.156511
  Transforming atomic orbitals to a uniform radial grid of dG=0.02 with 528 points.
  WARNING: large normalization error in atomic orbital 1s (integral: 0.000000).
  Core radius for overlap checks: 2.07 bohrs.
  Reading pulay file /data2/jt577/jdftx_eat_withLibXC/build/pseudopotentials/SG15/Ti_ONCV_PBE.pulay ... using dE_dnG = -1.641951e-05 computed for Ecut = 30.

Reading pseudopotential file '/data2/jt577/jdftx_eat_withLibXC/build/pseudopotentials/SG15/Cu_ONCV_PBE.upf':
  'Cu' pseudopotential, 'PBE' functional
  Generated using ONCVPSP code by D. R. Hamann
  Author: Martin Schlipf and Francois Gygi  Date: 150915.
  19 valence electrons, 4 orbitals, 6 projectors, 1340 radial grid points, with lMax = 2
  Transforming local potential to a uniform radial grid of dG=0.02 with 1412 points.
  Transforming nonlocal projectors to a uniform radial grid of dG=0.02 with 528 points.
    3S    l: 0   occupation:  2.0   eigenvalue: -4.409824
    3P    l: 1   occupation:  6.0   eigenvalue: -2.840988
    4S    l: 0   occupation:  2.0   eigenvalue: -0.213598
    3D    l: 2   occupation:  9.0   eigenvalue: -0.349801
  Transforming atomic orbitals to a uniform radial grid of dG=0.02 with 528 points.
  Core radius for overlap checks: 1.69 bohrs.
  Reading pulay file /data2/jt577/jdftx_eat_withLibXC/build/pseudopotentials/SG15/Cu_ONCV_PBE.pulay ... using dE_dnG = -4.927925e-02 computed for Ecut = 30.

Reading pseudopotential file '/data2/jt577/jdftx_eat_withLibXC/build/pseudopotentials/SG15/Ni_ONCV_PBE.upf':
  'Ni' pseudopotential, 'PBE' functional
  Generated using ONCVPSP code by D. R. Hamann
  Author: Martin Schlipf and Francois Gygi  Date: 150915.
  18 valence electrons, 4 orbitals, 6 projectors, 1292 radial grid points, with lMax = 2
  Transforming local potential to a uniform radial grid of dG=0.02 with 1412 points.
  Transforming nonlocal projectors to a uniform radial grid of dG=0.02 with 528 points.
    3S    l: 0   occupation:  2.0   eigenvalue: -4.081355
    3P    l: 1   occupation:  6.0   eigenvalue: -2.623460
    4S    l: 0   occupation:  2.0   eigenvalue: -0.207378
    3D    l: 2   occupation:  8.0   eigenvalue: -0.326118
  Transforming atomic orbitals to a uniform radial grid of dG=0.02 with 528 points.
  WARNING: large normalization error in atomic orbital 1s (integral: 0.000006).
  Core radius for overlap checks: 1.99 bohrs.
  Reading pulay file /data2/jt577/jdftx_eat_withLibXC/build/pseudopotentials/SG15/Ni_ONCV_PBE.pulay ... using dE_dnG = -7.250568e-04 computed for Ecut = 30.

Reading pseudopotential file '/data2/jt577/jdftx_eat_withLibXC/build/pseudopotentials/SG15/Zn_ONCV_PBE.upf':
  'Zn' pseudopotential, 'PBE' functional
  Generated using ONCVPSP code by D. R. Hamann
  Author: Martin Schlipf and Francois Gygi  Date: 150915.
  20 valence electrons, 4 orbitals, 6 projectors, 1326 radial grid points, with lMax = 2
  Transforming local potential to a uniform radial grid of dG=0.02 with 1412 points.
  Transforming nonlocal projectors to a uniform radial grid of dG=0.02 with 528 points.
    3S    l: 0   occupation:  2.0   eigenvalue: -4.749201
    3P    l: 1   occupation:  6.0   eigenvalue: -3.064985
    4S    l: 0   occupation:  2.0   eigenvalue: -0.219719
    3D    l: 2   occupation: 10.0   eigenvalue: -0.372654
  Transforming atomic orbitals to a uniform radial grid of dG=0.02 with 528 points.
  Core radius for overlap checks: 1.85 bohrs.
  Reading pulay file /data2/jt577/jdftx_eat_withLibXC/build/pseudopotentials/SG15/Zn_ONCV_PBE.pulay ... using dE_dnG = -3.497644e-03 computed for Ecut = 30.
  Disabling overlap check for local pseudopotential.
  Disabling overlap check for local pseudopotential.
  Disabling overlap check for local pseudopotential.
  Disabling overlap check for local pseudopotential.
  Disabling overlap check for local pseudopotential.
  Disabling overlap check for local pseudopotential.
  Disabling overlap check for local pseudopotential.
  Disabling overlap check for local pseudopotential.
  Disabling overlap check for local pseudopotential.
  Disabling overlap check for local pseudopotential.
  Disabling overlap check for local pseudopotential.
  Disabling overlap check for local pseudopotential.
  Disabling overlap check for local pseudopotential.
  Disabling overlap check for local pseudopotential.
  Disabling overlap check for local pseudopotential.

Reading pseudopotential file '/data2/jt577/jdftx_eat_withLibXC/build/pseudopotentials/SG15/O_ONCV_PBE.upf':
  'O' pseudopotential, 'PBE' functional
  Generated using ONCVPSP code by D. R. Hamann
  Author: Martin Schlipf and Francois Gygi  Date: 150915.
  6 valence electrons, 2 orbitals, 4 projectors, 936 radial grid points, with lMax = 1
  Transforming local potential to a uniform radial grid of dG=0.02 with 1412 points.
  Transforming nonlocal projectors to a uniform radial grid of dG=0.02 with 528 points.
    2S    l: 0   occupation:  2.0   eigenvalue: -0.880572
    2P    l: 1   occupation:  4.0   eigenvalue: -0.331869
  Transforming atomic orbitals to a uniform radial grid of dG=0.02 with 528 points.
  Core radius for overlap checks: 1.29 bohrs.
  Reading pulay file /data2/jt577/jdftx_eat_withLibXC/build/pseudopotentials/SG15/O_ONCV_PBE.pulay ... using dE_dnG = -8.209514e-03 computed for Ecut = 30.

Initialized 21 species with 33 total atoms.

Folded 1 k-points by 3x3x1 to 9 k-points.

---------- Setting up k-points, bands, fillings ----------
No reducable k-points. 
Computing the number of bands and number of electrons
Calculating initial fillings.
nElectrons: 390.000000   nBands: 228   nStates: 9

----- Setting up reduced wavefunction bases (one per k-point) -----
average nbasis = 41011.556 , ideal nbasis = 41017.814

---------- Setting up ewald sum ----------
Optimum gaussian width for ewald sums = 3.865657 bohr.
Real space sum over 605 unit cells with max indices [  5  5  2  ]
Reciprocal space sum over 5915 terms with max indices [  6  6  17  ]

---------- Allocating electronic variables ----------
Initializing wave functions:  linear combination of atomic orbitals
O pseudo-atom occupations:   s ( 2 )  p ( 4 )
	FillingsUpdate:  mu: +5.483645723  nElectrons: 390.000000
LCAOMinimize: Iter:   0  F: -2187.5252152703005777  |grad|_K:  5.959e-03  alpha:  1.000e+00
LCAOMinimize: 	Wrong curvature in test step, increasing alphaT to 3.000000e+00.
	FillingsUpdate:  mu: +1.113051642  nElectrons: 390.000000
LCAOMinimize: Iter:   1  F: -2398.5443023223992896  |grad|_K:  1.245e-02  alpha: -4.314e-02  linmin:  1.691e-03  cgtest: -1.420e-01  t[s]:     35.45
LCAOMinimize: 	Bad step direction: g.d > 0.
LCAOMinimize: 	Undoing step.
LCAOMinimize: 	Step failed: resetting search direction.
	FillingsUpdate:  mu: +1.113051642  nElectrons: 390.000000
LCAOMinimize: Iter:   2  F: -2398.5443023223992896  |grad|_K:  1.245e-02  alpha:  0.000e+00
	FillingsUpdate:  mu: +0.560228171  nElectrons: 390.000000
LCAOMinimize: Iter:   3  F: -2408.1063100649362241  |grad|_K:  1.344e-02  alpha:  2.495e-01  linmin:  4.797e-03  cgtest: -8.394e-01  t[s]:     49.81
LCAOMinimize: 	Bad step direction: g.d > 0.
LCAOMinimize: 	Undoing step.
LCAOMinimize: 	Step failed: resetting search direction.
	FillingsUpdate:  mu: +0.560228171  nElectrons: 390.000000
LCAOMinimize: Iter:   4  F: -2408.1063100649362241  |grad|_K:  1.344e-02  alpha:  0.000e+00
	FillingsUpdate:  mu: +0.260077597  nElectrons: 390.000000
LCAOMinimize: Iter:   5  F: -2418.0565362280926820  |grad|_K:  8.248e-03  alpha:  1.265e-01  linmin: -1.450e-03  cgtest:  2.447e-01  t[s]:     64.16
	FillingsUpdate:  mu: +0.434358645  nElectrons: 390.000000
LCAOMinimize: Iter:   6  F: -2419.0346156733799035  |grad|_K:  8.896e-03  alpha:  7.025e-02  linmin: -1.645e-03  cgtest:  9.634e-01  t[s]:     72.58
LCAOMinimize: 	Predicted alpha/alphaT>3.000000, increasing alphaT to 2.107584e-01.
LCAOMinimize: 	Wrong curvature in test step, increasing alphaT to 6.322752e-01.
	FillingsUpdate:  mu: +2.464738201  nElectrons: 390.000000
LCAOMinimize: Iter:   7  F: -2434.5760964836422318  |grad|_K:  6.744e-02  alpha: -1.111e-01  linmin:  1.381e-02  cgtest:  1.007e-01  t[s]:     82.65
LCAOMinimize: 	Bad step direction: g.d > 0.
LCAOMinimize: 	Undoing step.
LCAOMinimize: 	Step failed: resetting search direction.
	FillingsUpdate:  mu: +2.464738201  nElectrons: 390.000000
LCAOMinimize: Iter:   8  F: -2434.5760964836422318  |grad|_K:  6.744e-02  alpha:  0.000e+00
LCAOMinimize: 	Step increased F by 1.060007e+02, reducing alpha to 4.747907e-02.
LCAOMinimize: 	Step increased F by 1.173165e+01, reducing alpha to 4.747907e-03.
	FillingsUpdate:  mu: +1.937328729  nElectrons: 390.000000
LCAOMinimize: Iter:   9  F: -2442.8297677729451607  |grad|_K:  8.501e-02  alpha:  4.748e-03  linmin: -9.523e-02  cgtest:  6.672e-01  t[s]:    108.66
	FillingsUpdate:  mu: +1.208541327  nElectrons: 390.000000
LCAOMinimize: Iter:  10  F: -2452.1922360591574943  |grad|_K:  3.855e-02  alpha:  3.848e-03  linmin: -8.822e-02  cgtest:  1.630e+00  t[s]:    116.96
LCAOMinimize: Encountered beta<0, resetting CG.
LCAOMinimize: 	Wrong curvature in test step, increasing alphaT to 1.154461e-02.
	FillingsUpdate:  mu: +0.913207939  nElectrons: 390.000000
LCAOMinimize: Iter:  11  F: -2455.7548726986187830  |grad|_K:  2.923e-02  alpha: -6.013e-03  linmin: -9.581e-02  cgtest:  1.099e+00  t[s]:    124.56
LCAOMinimize: Encountered beta<0, resetting CG.
LCAOMinimize: 	Step increased F by 1.014902e+02, reducing alpha to 3.778337e-02.
	FillingsUpdate:  mu: +0.849157994  nElectrons: 390.000000
LCAOMinimize: Iter:  12  F: -2458.0260724096970080  |grad|_K:  2.950e-02  alpha:  3.778e-02  linmin:  8.546e-02  cgtest: -7.826e-01  t[s]:    138.86
LCAOMinimize: 	Bad step direction: g.d > 0.
LCAOMinimize: 	Undoing step.
LCAOMinimize: 	Step failed: resetting search direction.
	FillingsUpdate:  mu: +0.849157994  nElectrons: 390.000000
LCAOMinimize: Iter:  13  F: -2458.0260724096970080  |grad|_K:  2.950e-02  alpha:  0.000e+00
	FillingsUpdate:  mu: +0.122649952  nElectrons: 390.000000
LCAOMinimize: Iter:  14  F: -2466.1765023635621219  |grad|_K:  1.160e-02  alpha:  1.678e-02  linmin:  4.030e-02  cgtest: -1.647e-01  t[s]:    152.96
LCAOMinimize: 	Wrong curvature in test step, increasing alphaT to 5.033125e-02.
	FillingsUpdate:  mu: +0.067603256  nElectrons: 390.000000
LCAOMinimize: Iter:  15  F: -2466.8771021857655796  |grad|_K:  1.142e-02  alpha: -7.993e-02  linmin: -4.239e-02  cgtest:  1.133e+00  t[s]:    160.46
LCAOMinimize: Encountered beta<0, resetting CG.
LCAOMinimize: 	Step increased F by 2.376495e+01, reducing alpha to 2.958576e-02.
	FillingsUpdate:  mu: -0.153198435  nElectrons: 390.000000
LCAOMinimize: Iter:  16  F: -2469.2156957041383976  |grad|_K:  1.466e-02  alpha:  2.959e-02  linmin: -6.148e-02  cgtest:  6.465e-02  t[s]:    175.05
	FillingsUpdate:  mu: -0.253804956  nElectrons: 390.000000
LCAOMinimize: Iter:  17  F: -2469.8060401889529203  |grad|_K:  1.182e-02  alpha:  1.012e-02  linmin:  3.819e-02  cgtest:  5.172e-01  t[s]:    183.43
	FillingsUpdate:  mu: -0.350669313  nElectrons: 390.000000
LCAOMinimize: Iter:  18  F: -2470.0790029277654867  |grad|_K:  5.345e-03  alpha:  1.267e-02  linmin: -1.300e-02  cgtest:  7.123e-01  t[s]:    191.75
LCAOMinimize: Encountered beta<0, resetting CG.
	FillingsUpdate:  mu: -0.369779512  nElectrons: 390.000000
LCAOMinimize: Iter:  19  F: -2470.3088289323486606  |grad|_K:  3.084e-03  alpha:  2.831e-02  linmin: -7.701e-02  cgtest:  6.591e-01  t[s]:    200.07
LCAOMinimize: Encountered beta<0, resetting CG.
LCAOMinimize: 	Predicted alpha/alphaT>3.000000, increasing alphaT to 8.491555e-02.
LCAOMinimize: 	Predicted alpha/alphaT>3.000000, increasing alphaT to 2.547466e-01.
LCAOMinimize: 	Predicted alpha/alphaT>3.000000, increasing alphaT to 7.642399e-01.
LCAOMinimize: 	Step increased F by 3.202543e+01, reducing alpha to 1.301049e-01.
	FillingsUpdate:  mu: -0.323595550  nElectrons: 390.000000
LCAOMinimize: Iter:  20  F: -2470.8157466975953866  |grad|_K:  3.352e-03  alpha:  1.301e-01  linmin: -2.651e-02  cgtest:  6.210e-01  t[s]:    218.76
	FillingsUpdate:  mu: -0.353336311  nElectrons: 390.000000
LCAOMinimize: Iter:  21  F: -2470.8717063819149189  |grad|_K:  2.783e-03  alpha:  8.601e-03  linmin: -5.904e-02  cgtest:  9.474e-01  t[s]:    227.10
LCAOMinimize: Encountered beta<0, resetting CG.
LCAOMinimize: 	Predicted alpha/alphaT>3.000000, increasing alphaT to 2.580211e-02.
LCAOMinimize: 	Predicted alpha/alphaT>3.000000, increasing alphaT to 7.740634e-02.
	FillingsUpdate:  mu: -0.172728357  nElectrons: 390.000000
LCAOMinimize: Iter:  22  F: -2471.0495189802059031  |grad|_K:  7.290e-03  alpha:  9.943e-02  linmin:  1.462e-03  cgtest: -1.208e-01  t[s]:    240.12
	FillingsUpdate:  mu: -0.118360876  nElectrons: 390.000000
LCAOMinimize: Iter:  23  F: -2471.1373027846484547  |grad|_K:  9.359e-03  alpha:  3.376e-03  linmin: -1.055e-02  cgtest:  9.337e-01  t[s]:    248.44
LCAOMinimize: 	Wrong curvature in test step, increasing alphaT to 1.012662e-02.
	FillingsUpdate:  mu: -0.131420150  nElectrons: 390.000000
LCAOMinimize: Iter:  24  F: -2471.3535640151249027  |grad|_K:  8.956e-03  alpha: -1.157e-02  linmin: -4.969e-02  cgtest:  9.311e-01  t[s]:    256.44
LCAOMinimize: 	Step increased F by 2.206879e+01, reducing alpha to 2.011899e-02.
	FillingsUpdate:  mu: -0.196181186  nElectrons: 390.000000
LCAOMinimize: Iter:  25  F: -2471.8201780808249168  |grad|_K:  8.219e-03  alpha:  2.012e-02  linmin: -3.906e-02  cgtest: -1.930e-01  t[s]:    270.49
LCAOMinimize: 	Wrong curvature in test step, increasing alphaT to 6.035697e-02.
	FillingsUpdate:  mu: +0.054022034  nElectrons: 390.000000
LCAOMinimize: Iter:  26  F: -2472.9875569503201405  |grad|_K:  6.868e-03  alpha: -2.710e-02  linmin:  1.325e-01  cgtest:  3.472e-01  t[s]:    278.13
LCAOMinimize: 	Step increased F by 4.116941e-01, reducing alpha to 1.157009e-03.
LCAOMinimize: 	Step increased F by 2.401571e-03, reducing alpha to 1.157009e-04.
	FillingsUpdate:  mu: +0.053067670  nElectrons: 390.000000
LCAOMinimize: Iter:  27  F: -2472.9876764709169947  |grad|_K:  6.856e-03  alpha:  1.157e-04  linmin: -3.194e-03  cgtest:  9.985e-01  t[s]:    298.37
LCAOMinimize: Encountered beta<0, resetting CG.
LCAOMinimize: 	Predicted alpha/alphaT>3.000000, increasing alphaT to 3.471027e-04.
LCAOMinimize: 	Predicted alpha/alphaT>3.000000, increasing alphaT to 1.041308e-03.
LCAOMinimize: 	Predicted alpha/alphaT>3.000000, increasing alphaT to 3.123924e-03.
	FillingsUpdate:  mu: -0.050433507  nElectrons: 390.000000
LCAOMinimize: Iter:  28  F: -2473.0221950257291610  |grad|_K:  9.740e-03  alpha:  1.981e-02  linmin:  1.200e-01  cgtest: -5.542e-01  t[s]:    311.26
LCAOMinimize: 	Bad step direction: g.d > 0.
LCAOMinimize: 	Undoing step.
LCAOMinimize: 	Step failed: resetting search direction.
	FillingsUpdate:  mu: -0.050433507  nElectrons: 390.000000
LCAOMinimize: Iter:  29  F: -2473.0221950257291610  |grad|_K:  9.740e-03  alpha:  0.000e+00
	FillingsUpdate:  mu: -0.091754442  nElectrons: 390.000000
LCAOMinimize: Iter:  30  F: -2473.1671863437900356  |grad|_K:  2.556e-03  alpha:  8.269e-03  linmin:  1.165e-01  cgtest: -8.193e-01  t[s]:    325.45
LCAOMinimize: None of the convergence criteria satisfied after 30 iterations.


---- Citations for features of the code used in this run ----

   Software package:
      R. Sundararaman, K. Letchworth-Weaver, K.A. Schwarz, D. Gunceler, Y. Ozhabes and T.A. Arias, 'JDFTx: software for joint density-functional theory', SoftwareX 6, 278 (2017)

   LibXC library of exchange-correlation functions:
      M. A. L. Marques, M. J. T. Oliveira and T. Burnus, Comput. Phys. Commun. 183, 2272 (2012)

   Hammer, Hansen, and Norskov exchange functional:
      B. Hammer, L. B. Hansen, and J. K. Nørskov, Phys. Rev. B 59, 7413 (1999)

   Perdew, Burke & Ernzerhof correlation functional:
      J. P. Perdew, K. Burke, and M. Ernzerhof, Phys. Rev. Lett. 77, 3865 (1996)

   Pseudopotentials:
      M Schlipf and F Gygi, Comput. Phys. Commun. 196, 36 (2015)

   Total energy minimization with Auxiliary Hamiltonian:
      C. Freysoldt, S. Boeck, and J. Neugebauer, Phys. Rev. B 79, 241103(R) (2009)

This list may not be complete. Please suggest additional citations or
report any other bugs at https://github.com/shankar1729/jdftx/issues

Initialization completed successfully at t[s]:    327.82


-------- Electronic minimization -----------
	FillingsUpdate:  mu: -0.091754415  nElectrons: 390.000000
ElecMinimize: Iter:   0  F: -2473.167186343791855  |grad|_K:  3.012e-03  alpha:  1.000e+00
	FillingsUpdate:  mu: +3.237354725  nElectrons: 390.000000
	SubspaceRotationAdjust: set factor to 0.763
ElecMinimize: Iter:   1  F: -2605.119849975505076  |grad|_K:  7.142e-03  alpha:  4.813e-01  linmin:  5.489e-04  t[s]:    374.12
ElecMinimize: 	Step increased F by 3.982071e+02, reducing alpha to 1.614172e-02.
ElecMinimize: 	Step increased F by 1.455470e+01, reducing alpha to 1.614172e-03.
	FillingsUpdate:  mu: +2.475869935  nElectrons: 390.000000
	SubspaceRotationAdjust: set factor to 0.491
ElecMinimize: Iter:   2  F: -2619.159849026757911  |grad|_K:  4.412e-03  alpha:  1.614e-03  linmin: -5.529e-04  t[s]:    440.90
	FillingsUpdate:  mu: +2.050828392  nElectrons: 390.000000
	SubspaceRotationAdjust: set factor to 0.551
ElecMinimize: Iter:   3  F: -2628.994274642866912  |grad|_K:  2.722e-03  alpha:  3.220e-03  linmin: -9.838e-04  t[s]:    472.02
ElecMinimize: 	Predicted alpha/alphaT>3.000000, increasing alphaT to 9.659067e-03.
	FillingsUpdate:  mu: +1.740536656  nElectrons: 390.000000
	SubspaceRotationAdjust: set factor to 0.391
ElecMinimize: Iter:   4  F: -2639.668603545503629  |grad|_K:  2.366e-03  alpha:  9.972e-03  linmin:  2.990e-04  t[s]:    513.97
	FillingsUpdate:  mu: +1.801960539  nElectrons: 390.000000
	SubspaceRotationAdjust: set factor to 0.333
ElecMinimize: Iter:   5  F: -2643.331258228883144  |grad|_K:  2.713e-03  alpha:  1.034e-02  linmin: -1.129e-04  t[s]:    545.45
ElecMinimize: 	Predicted alpha/alphaT>3.000000, increasing alphaT to 3.103127e-02.
	FillingsUpdate:  mu: +2.338526898  nElectrons: 390.000000
	SubspaceRotationAdjust: set factor to 0.265
ElecMinimize: Iter:   6  F: -2671.561661475508572  |grad|_K:  2.074e-03  alpha:  3.969e-02  linmin: -3.342e-05  t[s]:    589.53
	FillingsUpdate:  mu: +0.737139810  nElectrons: 390.000000
	SubspaceRotationAdjust: set factor to 0.185
ElecMinimize: Iter:   7  F: -2686.077735032902183  |grad|_K:  2.051e-03  alpha:  4.931e-02  linmin:  6.797e-04  t[s]:    622.44
	FillingsUpdate:  mu: +0.779198357  nElectrons: 390.000000
	SubspaceRotationAdjust: set factor to 0.269
ElecMinimize: Iter:   8  F: -2686.084334270751697  |grad|_K:  1.926e-03  alpha:  7.212e-04  linmin:  1.627e-05  t[s]:    655.37
ElecMinimize: 	Predicted alpha/alphaT>3.000000, increasing alphaT to 2.163732e-03.
ElecMinimize: 	Predicted alpha/alphaT>3.000000, increasing alphaT to 6.491197e-03.
ElecMinimize: 	Predicted alpha/alphaT>3.000000, increasing alphaT to 1.947359e-02.
	FillingsUpdate:  mu: +1.620413243  nElectrons: 390.000000
	SubspaceRotationAdjust: set factor to 0.214
ElecMinimize: Iter:   9  F: -2693.865503477100901  |grad|_K:  2.293e-03  alpha:  2.488e-02  linmin:  1.311e-06  t[s]:    713.53
	FillingsUpdate:  mu: +1.693441775  nElectrons: 390.000000
	SubspaceRotationAdjust: set factor to 0.189
ElecMinimize: Iter:  10  F: -2701.145084524983758  |grad|_K:  1.788e-03  alpha:  1.861e-02  linmin: -1.102e-04  t[s]:    746.32
	FillingsUpdate:  mu: +0.785754496  nElectrons: 390.000000
	SubspaceRotationAdjust: set factor to 0.254
ElecMinimize: Iter:  11  F: -2710.766645647811856  |grad|_K:  1.272e-03  alpha:  3.399e-02  linmin:  1.633e-04  t[s]:    779.80
	FillingsUpdate:  mu: +0.664938355  nElectrons: 390.000000
	SubspaceRotationAdjust: set factor to 0.277
ElecMinimize: Iter:  12  F: -2713.167279462229089  |grad|_K:  1.126e-03  alpha:  1.864e-02  linmin:  1.137e-04  t[s]:    812.52
	FillingsUpdate:  mu: +0.778599299  nElectrons: 390.000000
	SubspaceRotationAdjust: set factor to 0.283
ElecMinimize: Iter:  13  F: -2715.920957727383666  |grad|_K:  1.229e-03  alpha:  2.722e-02  linmin: -1.123e-04  t[s]:    845.33
	FillingsUpdate:  mu: +0.738528271  nElectrons: 390.000000
	SubspaceRotationAdjust: set factor to 0.279
ElecMinimize: Iter:  14  F: -2720.910265543366677  |grad|_K:  1.108e-03  alpha:  3.413e-02  linmin: -1.124e-04  t[s]:    878.13
	FillingsUpdate:  mu: +0.221804886  nElectrons: 390.000000
	SubspaceRotationAdjust: set factor to 0.353
ElecMinimize: Iter:  15  F: -2724.276246523505506  |grad|_K:  8.091e-04  alpha:  2.889e-02  linmin:  8.651e-06  t[s]:    910.67
	FillingsUpdate:  mu: +0.406967233  nElectrons: 390.000000
	SubspaceRotationAdjust: set factor to 0.348
ElecMinimize: Iter:  16  F: -2726.530527125259141  |grad|_K:  7.991e-04  alpha:  4.099e-02  linmin: -2.099e-05  t[s]:    943.57
	FillingsUpdate:  mu: +0.517765057  nElectrons: 390.000000
	SubspaceRotationAdjust: set factor to 0.382
ElecMinimize: Iter:  17  F: -2729.442084878739934  |grad|_K:  7.214e-04  alpha:  5.248e-02  linmin: -2.671e-05  t[s]:    976.45
	FillingsUpdate:  mu: +0.150986064  nElectrons: 390.000000
	SubspaceRotationAdjust: set factor to 0.42
ElecMinimize: Iter:  18  F: -2731.093153438290756  |grad|_K:  5.066e-04  alpha:  3.530e-02  linmin:  1.197e-05  t[s]:   1009.15
	FillingsUpdate:  mu: +0.393542408  nElectrons: 390.000000
	SubspaceRotationAdjust: set factor to 0.416
ElecMinimize: Iter:  19  F: -2732.139868694967845  |grad|_K:  5.610e-04  alpha:  4.756e-02  linmin: -6.390e-05  t[s]:   1042.25
	FillingsUpdate:  mu: +0.359192462  nElectrons: 390.000000
	SubspaceRotationAdjust: set factor to 0.591
ElecMinimize: Iter:  20  F: -2733.527129028850140  |grad|_K:  4.625e-04  alpha:  4.863e-02  linmin: -6.214e-06  t[s]:   1075.59
	FillingsUpdate:  mu: +0.315344362  nElectrons: 390.000000
	SubspaceRotationAdjust: set factor to 0.615
ElecMinimize: Iter:  21  F: -2734.238321254120820  |grad|_K:  4.244e-04  alpha:  3.778e-02  linmin:  1.528e-05  t[s]:   1108.63
	FillingsUpdate:  mu: +0.283449770  nElectrons: 390.000000
	SubspaceRotationAdjust: set factor to 0.531
ElecMinimize: Iter:  22  F: -2734.823512050667432  |grad|_K:  4.672e-04  alpha:  3.937e-02  linmin:  2.805e-05  t[s]:   1142.14
	FillingsUpdate:  mu: +0.100725176  nElectrons: 390.000000
	SubspaceRotationAdjust: set factor to 0.661
ElecMinimize: Iter:  23  F: -2735.155511983231918  |grad|_K:  3.363e-04  alpha:  1.677e-02  linmin: -1.149e-05  t[s]:   1175.45
	FillingsUpdate:  mu: +0.184487361  nElectrons: 390.000000
	SubspaceRotationAdjust: set factor to 0.492
ElecMinimize: Iter:  24  F: -2735.381700767000439  |grad|_K:  4.608e-04  alpha:  2.334e-02  linmin: -2.398e-06  t[s]:   1208.34
	FillingsUpdate:  mu: +0.232736114  nElectrons: 390.000000
	SubspaceRotationAdjust: set factor to 0.373
ElecMinimize: Iter:  25  F: -2735.876795830211904  |grad|_K:  4.154e-04  alpha:  2.851e-02  linmin:  8.215e-05  t[s]:   1241.64
	FillingsUpdate:  mu: +0.145628290  nElectrons: 390.000000
	SubspaceRotationAdjust: set factor to 0.62
ElecMinimize: Iter:  26  F: -2736.036549529503645  |grad|_K:  2.881e-04  alpha:  1.226e-02  linmin: -4.116e-05  t[s]:   1275.19
	FillingsUpdate:  mu: +0.156412030  nElectrons: 390.000000
	SubspaceRotationAdjust: set factor to 0.559
ElecMinimize: Iter:  27  F: -2736.174888143694261  |grad|_K:  3.506e-04  alpha:  1.979e-02  linmin:  1.024e-04  t[s]:   1308.26
	FillingsUpdate:  mu: +0.287474102  nElectrons: 390.000000
	SubspaceRotationAdjust: set factor to 0.342
ElecMinimize: Iter:  28  F: -2736.322373817743937  |grad|_K:  4.986e-04  alpha:  1.754e-02  linmin:  5.881e-06  t[s]:   1341.23
	FillingsUpdate:  mu: +0.245209094  nElectrons: 390.000000
	SubspaceRotationAdjust: set factor to 0.307
ElecMinimize: Iter:  29  F: -2736.605152679556795  |grad|_K:  3.090e-04  alpha:  1.358e-02  linmin:  3.557e-06  t[s]:   1374.61
	FillingsUpdate:  mu: +0.141266136  nElectrons: 390.000000
	SubspaceRotationAdjust: set factor to 0.385
ElecMinimize: Iter:  30  F: -2736.733779861235234  |grad|_K:  2.220e-04  alpha:  1.591e-02  linmin: -2.339e-05  t[s]:   1407.83
	FillingsUpdate:  mu: +0.156878102  nElectrons: 390.000000
	SubspaceRotationAdjust: set factor to 0.379
ElecMinimize: Iter:  31  F: -2736.847066867329431  |grad|_K:  2.704e-04  alpha:  2.699e-02  linmin:  4.265e-05  t[s]:   1441.01
	FillingsUpdate:  mu: +0.208209886  nElectrons: 390.000000
	SubspaceRotationAdjust: set factor to 0.257
ElecMinimize: Iter:  32  F: -2736.987498173436961  |grad|_K:  3.264e-04  alpha:  2.456e-02  linmin: -1.214e-05  t[s]:   1474.20
	FillingsUpdate:  mu: +0.141511783  nElectrons: 390.000000
	SubspaceRotationAdjust: set factor to 0.24
ElecMinimize: Iter:  33  F: -2737.167855080794652  |grad|_K:  2.418e-04  alpha:  1.981e-02  linmin: -2.516e-06  t[s]:   1507.34
	FillingsUpdate:  mu: +0.129404087  nElectrons: 390.000000
	SubspaceRotationAdjust: set factor to 0.241
ElecMinimize: Iter:  34  F: -2737.276538665084900  |grad|_K:  1.846e-04  alpha:  2.332e-02  linmin:  1.605e-04  t[s]:   1540.49
	FillingsUpdate:  mu: +0.193175355  nElectrons: 390.000000
	SubspaceRotationAdjust: set factor to 0.284
ElecMinimize: Iter:  35  F: -2737.306173531691456  |grad|_K:  2.075e-04  alpha:  1.298e-02  linmin: -1.566e-05  t[s]:   1574.26
	FillingsUpdate:  mu: +0.247783585  nElectrons: 390.000000
	SubspaceRotationAdjust: set factor to 0.185
ElecMinimize: Iter:  36  F: -2737.374873860569096  |grad|_K:  2.937e-04  alpha:  1.919e-02  linmin:  7.258e-05  t[s]:   1607.25
	FillingsUpdate:  mu: +0.230278589  nElectrons: 390.000000
	SubspaceRotationAdjust: set factor to 0.119
	SubspaceRotationAdjust: resetting CG because factor has changed by 0.119401
ElecMinimize: 	State modified externally: resetting search direction.
ElecMinimize: Iter:  37  F: -2737.438051848597752  |grad|_K:  2.262e-04  alpha:  8.718e-03
ElecMinimize: 	Predicted alpha/alphaT>3.000000, increasing alphaT to 2.615505e-02.
	FillingsUpdate:  mu: +0.120645344  nElectrons: 390.000000
	SubspaceRotationAdjust: set factor to 0.0508
ElecMinimize: Iter:  38  F: -2737.670697675813244  |grad|_K:  1.049e-04  alpha:  5.299e-02  linmin: -6.353e-03  t[s]:   1700.38
	FillingsUpdate:  mu: +0.090495354  nElectrons: 390.000000
	SubspaceRotationAdjust: set factor to 0.0543
ElecMinimize: Iter:  39  F: -2737.819025847874855  |grad|_K:  3.834e-05  alpha:  1.538e-01  linmin:  3.512e-04  t[s]:   1733.33
	FillingsUpdate:  mu: +0.095074831  nElectrons: 390.000000
	SubspaceRotationAdjust: set factor to 0.0624
ElecMinimize: Iter:  40  F: -2737.853140454922141  |grad|_K:  2.543e-05  alpha:  2.765e-01  linmin:  6.135e-05  t[s]:   1765.28
	FillingsUpdate:  mu: +0.093775676  nElectrons: 390.000000
	SubspaceRotationAdjust: set factor to 0.0517
ElecMinimize: Iter:  41  F: -2737.870224514428628  |grad|_K:  2.856e-05  alpha:  3.138e-01  linmin:  6.028e-05  t[s]:   1797.07
	FillingsUpdate:  mu: +0.091324354  nElectrons: 390.000000
	SubspaceRotationAdjust: set factor to 0.043
ElecMinimize: Iter:  42  F: -2737.887179378595192  |grad|_K:  2.310e-05  alpha:  2.458e-01  linmin:  8.430e-05  t[s]:   1830.15
	FillingsUpdate:  mu: +0.082797591  nElectrons: 390.000000
	SubspaceRotationAdjust: set factor to 0.0482
ElecMinimize: Iter:  43  F: -2737.904094708601406  |grad|_K:  2.098e-05  alpha:  3.818e-01  linmin:  1.740e-04  t[s]:   1862.50
	FillingsUpdate:  mu: +0.081613763  nElectrons: 390.000000
	SubspaceRotationAdjust: set factor to 0.0548
ElecMinimize: Iter:  44  F: -2737.917746145089950  |grad|_K:  2.057e-05  alpha:  3.777e-01  linmin:  7.844e-05  t[s]:   1894.95
	FillingsUpdate:  mu: +0.092737551  nElectrons: 390.000000
	SubspaceRotationAdjust: set factor to 0.05
ElecMinimize: Iter:  45  F: -2737.928517302319960  |grad|_K:  1.885e-05  alpha:  3.056e-01  linmin:  5.942e-05  t[s]:   1928.14
	FillingsUpdate:  mu: +0.093772401  nElectrons: 390.000000
	SubspaceRotationAdjust: set factor to 0.0424
ElecMinimize: Iter:  46  F: -2737.935880379181071  |grad|_K:  1.596e-05  alpha:  2.486e-01  linmin:  1.654e-05  t[s]:   1960.63
	FillingsUpdate:  mu: +0.092047956  nElectrons: 390.000000
	SubspaceRotationAdjust: set factor to 0.0423
ElecMinimize: Iter:  47  F: -2737.943421914560531  |grad|_K:  1.633e-05  alpha:  3.533e-01  linmin:  1.145e-05  t[s]:   1993.74
	FillingsUpdate:  mu: +0.090742008  nElectrons: 390.000000
	SubspaceRotationAdjust: set factor to 0.0468
ElecMinimize: Iter:  48  F: -2737.951868306936376  |grad|_K:  1.604e-05  alpha:  3.764e-01  linmin: -3.936e-05  t[s]:   2026.58
	FillingsUpdate:  mu: +0.090044116  nElectrons: 390.000000
	SubspaceRotationAdjust: set factor to 0.0441
ElecMinimize: Iter:  49  F: -2737.958517698777541  |grad|_K:  1.434e-05  alpha:  3.024e-01  linmin: -3.900e-05  t[s]:   2059.64
	FillingsUpdate:  mu: +0.090008781  nElectrons: 390.000000
	SubspaceRotationAdjust: set factor to 0.0403
ElecMinimize: Iter:  50  F: -2737.963496626623510  |grad|_K:  1.279e-05  alpha:  2.834e-01  linmin: -3.270e-05  t[s]:   2092.60
	FillingsUpdate:  mu: +0.088527525  nElectrons: 390.000000
	SubspaceRotationAdjust: set factor to 0.0425
ElecMinimize: Iter:  51  F: -2737.968644394078638  |grad|_K:  1.271e-05  alpha:  3.687e-01  linmin: -3.804e-05  t[s]:   2125.23
	FillingsUpdate:  mu: +0.090104170  nElectrons: 390.000000
	SubspaceRotationAdjust: set factor to 0.0461
ElecMinimize: Iter:  52  F: -2737.972883151391216  |grad|_K:  1.111e-05  alpha:  3.064e-01  linmin: -2.548e-05  t[s]:   2157.42
	FillingsUpdate:  mu: +0.090409156  nElectrons: 390.000000
	SubspaceRotationAdjust: set factor to 0.0465
ElecMinimize: Iter:  53  F: -2737.975801819229218  |grad|_K:  9.486e-06  alpha:  2.776e-01  linmin: -7.537e-06  t[s]:   2189.63
	FillingsUpdate:  mu: +0.091834054  nElectrons: 390.000000
	SubspaceRotationAdjust: set factor to 0.0472
ElecMinimize: Iter:  54  F: -2737.978307900561049  |grad|_K:  9.157e-06  alpha:  3.290e-01  linmin: -7.881e-06  t[s]:   2221.66
	FillingsUpdate:  mu: +0.091386676  nElectrons: 390.000000
	SubspaceRotationAdjust: set factor to 0.0519
ElecMinimize: Iter:  55  F: -2737.980584788569104  |grad|_K:  8.563e-06  alpha:  3.209e-01  linmin:  1.059e-05  t[s]:   2253.24
	FillingsUpdate:  mu: +0.091259831  nElectrons: 390.000000
	SubspaceRotationAdjust: set factor to 0.0588
ElecMinimize: Iter:  56  F: -2737.982428747209269  |grad|_K:  7.759e-06  alpha:  2.991e-01  linmin:  1.196e-05  t[s]:   2284.79
	FillingsUpdate:  mu: +0.091872132  nElectrons: 390.000000
	SubspaceRotationAdjust: set factor to 0.0593
ElecMinimize: Iter:  57  F: -2737.984149012141643  |grad|_K:  7.892e-06  alpha:  3.398e-01  linmin:  3.803e-06  t[s]:   2317.56
	FillingsUpdate:  mu: +0.092034446  nElectrons: 390.000000
	SubspaceRotationAdjust: set factor to 0.0521
ElecMinimize: Iter:  58  F: -2737.985417733174472  |grad|_K:  7.282e-06  alpha:  2.413e-01  linmin:  1.087e-05  t[s]:   2350.79
	FillingsUpdate:  mu: +0.091216928  nElectrons: 390.000000
	SubspaceRotationAdjust: set factor to 0.0514
ElecMinimize: Iter:  59  F: -2737.986547815688937  |grad|_K:  5.949e-06  alpha:  2.534e-01  linmin:  4.862e-06  t[s]:   2383.77
	FillingsUpdate:  mu: +0.090604120  nElectrons: 390.000000
	SubspaceRotationAdjust: set factor to 0.0569
ElecMinimize: Iter:  60  F: -2737.987503361545350  |grad|_K:  5.322e-06  alpha:  3.206e-01  linmin:  1.148e-05  t[s]:   2416.57
	FillingsUpdate:  mu: +0.090753621  nElectrons: 390.000000
	SubspaceRotationAdjust: set factor to 0.0581
ElecMinimize: Iter:  61  F: -2737.988216563042442  |grad|_K:  5.093e-06  alpha:  2.994e-01  linmin:  8.068e-06  t[s]:   2448.93
	FillingsUpdate:  mu: +0.090555355  nElectrons: 390.000000
	SubspaceRotationAdjust: set factor to 0.0519
ElecMinimize: Iter:  62  F: -2737.988764118293147  |grad|_K:  4.527e-06  alpha:  2.508e-01  linmin:  2.129e-06  t[s]:   2482.16
	FillingsUpdate:  mu: +0.090485661  nElectrons: 390.000000
	SubspaceRotationAdjust: set factor to 0.0488
ElecMinimize: Iter:  63  F: -2737.989204260920360  |grad|_K:  3.799e-06  alpha:  2.546e-01  linmin:  8.641e-06  t[s]:   2515.64
	FillingsUpdate:  mu: +0.090051499  nElectrons: 390.000000
	SubspaceRotationAdjust: set factor to 0.0541
ElecMinimize: Iter:  64  F: -2737.989523676651970  |grad|_K:  3.063e-06  alpha:  2.628e-01  linmin:  6.978e-06  t[s]:   2547.38
	FillingsUpdate:  mu: +0.089940511  nElectrons: 390.000000
	SubspaceRotationAdjust: set factor to 0.0576
ElecMinimize: Iter:  65  F: -2737.989753108234254  |grad|_K:  2.781e-06  alpha:  2.902e-01  linmin:  6.379e-06  t[s]:   2578.50
	FillingsUpdate:  mu: +0.090054666  nElectrons: 390.000000
	SubspaceRotationAdjust: set factor to 0.0544
ElecMinimize: Iter:  66  F: -2737.989926136709983  |grad|_K:  2.580e-06  alpha:  2.653e-01  linmin:  1.118e-05  t[s]:   2610.63
	FillingsUpdate:  mu: +0.089821608  nElectrons: 390.000000
	SubspaceRotationAdjust: set factor to 0.0542
ElecMinimize: Iter:  67  F: -2737.990059067510174  |grad|_K:  2.153e-06  alpha:  2.370e-01  linmin:  5.803e-06  t[s]:   2643.38
	FillingsUpdate:  mu: +0.089684719  nElectrons: 390.000000
	SubspaceRotationAdjust: set factor to 0.0634
ElecMinimize: Iter:  68  F: -2737.990175306076253  |grad|_K:  1.882e-06  alpha:  2.973e-01  linmin:  3.910e-06  t[s]:   2676.49
	FillingsUpdate:  mu: +0.089688850  nElectrons: 390.000000
	SubspaceRotationAdjust: set factor to 0.0707
ElecMinimize: Iter:  69  F: -2737.990269452446682  |grad|_K:  1.836e-06  alpha:  3.152e-01  linmin:  1.549e-06  t[s]:   2709.15
	FillingsUpdate:  mu: +0.089619719  nElectrons: 390.000000
	SubspaceRotationAdjust: set factor to 0.0661
ElecMinimize: Iter:  70  F: -2737.990336028928596  |grad|_K:  1.790e-06  alpha:  2.340e-01  linmin: -4.126e-06  t[s]:   2742.27
	FillingsUpdate:  mu: +0.089563555  nElectrons: 390.000000
	SubspaceRotationAdjust: set factor to 0.0601
ElecMinimize: Iter:  71  F: -2737.990391754588472  |grad|_K:  1.571e-06  alpha:  2.058e-01  linmin:  2.568e-06  t[s]:   2775.08
	FillingsUpdate:  mu: +0.089397287  nElectrons: 390.000000
	SubspaceRotationAdjust: set factor to 0.066
ElecMinimize: Iter:  72  F: -2737.990451426263462  |grad|_K:  1.438e-06  alpha:  2.864e-01  linmin: -8.822e-06  t[s]:   2807.87
	FillingsUpdate:  mu: +0.089424065  nElectrons: 390.000000
	SubspaceRotationAdjust: set factor to 0.0755
ElecMinimize: Iter:  73  F: -2737.990505617411145  |grad|_K:  1.343e-06  alpha:  3.099e-01  linmin: -6.908e-06  t[s]:   2840.60
	FillingsUpdate:  mu: +0.089558245  nElectrons: 390.000000
	SubspaceRotationAdjust: set factor to 0.0785
ElecMinimize: Iter:  74  F: -2737.990552012614899  |grad|_K:  1.410e-06  alpha:  3.045e-01  linmin: -3.567e-06  t[s]:   2873.39
	FillingsUpdate:  mu: +0.089556640  nElectrons: 390.000000
	SubspaceRotationAdjust: set factor to 0.0667
ElecMinimize: Iter:  75  F: -2737.990585122844095  |grad|_K:  1.463e-06  alpha:  1.973e-01  linmin: -3.823e-06  t[s]:   2906.40
	FillingsUpdate:  mu: +0.089491246  nElectrons: 390.000000
	SubspaceRotationAdjust: set factor to 0.0618
ElecMinimize: Iter:  76  F: -2737.990623204284930  |grad|_K:  1.237e-06  alpha:  2.107e-01  linmin:  3.979e-07  t[s]:   2939.49
	FillingsUpdate:  mu: +0.089545567  nElectrons: 390.000000
	SubspaceRotationAdjust: set factor to 0.0705
ElecMinimize: Iter:  77  F: -2737.990662147659805  |grad|_K:  1.144e-06  alpha:  3.016e-01  linmin:  1.077e-06  t[s]:   2972.43
	FillingsUpdate:  mu: +0.089604987  nElectrons: 390.000000
	SubspaceRotationAdjust: set factor to 0.0775
ElecMinimize: Iter:  78  F: -2737.990696387289063  |grad|_K:  1.148e-06  alpha:  3.103e-01  linmin:  2.263e-06  t[s]:   3005.59
	FillingsUpdate:  mu: +0.089622768  nElectrons: 390.000000
	SubspaceRotationAdjust: set factor to 0.0717
ElecMinimize: Iter:  79  F: -2737.990723582805458  |grad|_K:  1.225e-06  alpha:  2.445e-01  linmin:  1.859e-06  t[s]:   3036.67
	FillingsUpdate:  mu: +0.089631196  nElectrons: 390.000000
	SubspaceRotationAdjust: set factor to 0.0611
ElecMinimize: Iter:  80  F: -2737.990745487566983  |grad|_K:  1.060e-06  alpha:  1.731e-01  linmin:  1.707e-06  t[s]:   3069.22
	FillingsUpdate:  mu: +0.089698198  nElectrons: 390.000000
	SubspaceRotationAdjust: set factor to 0.0675
ElecMinimize: Iter:  81  F: -2737.990771799190952  |grad|_K:  9.235e-07  alpha:  2.777e-01  linmin:  6.481e-06  t[s]:   3101.29
	FillingsUpdate:  mu: +0.089744733  nElectrons: 390.000000
	SubspaceRotationAdjust: set factor to 0.075
ElecMinimize: Iter:  82  F: -2737.990793120258786  |grad|_K:  8.586e-07  alpha:  2.969e-01  linmin:  5.501e-06  t[s]:   3134.00
	FillingsUpdate:  mu: +0.089792679  nElectrons: 390.000000
	SubspaceRotationAdjust: set factor to 0.0697
ElecMinimize: Iter:  83  F: -2737.990807825235606  |grad|_K:  8.551e-07  alpha:  2.368e-01  linmin:  2.844e-06  t[s]:   3166.71
	FillingsUpdate:  mu: +0.089829346  nElectrons: 390.000000
	SubspaceRotationAdjust: set factor to 0.0567
ElecMinimize: Iter:  84  F: -2737.990818798267355  |grad|_K:  7.365e-07  alpha:  1.779e-01  linmin:  3.304e-06  t[s]:   3199.39
	FillingsUpdate:  mu: +0.089866944  nElectrons: 390.000000
	SubspaceRotationAdjust: set factor to 0.0604
ElecMinimize: Iter:  85  F: -2737.990829371193740  |grad|_K:  5.768e-07  alpha:  2.312e-01  linmin:  2.104e-06  t[s]:   3232.45
	FillingsUpdate:  mu: +0.089865235  nElectrons: 390.000000
	SubspaceRotationAdjust: set factor to 0.0657
ElecMinimize: Iter:  86  F: -2737.990837293233199  |grad|_K:  5.092e-07  alpha:  2.823e-01  linmin:  2.976e-06  t[s]:   3265.29
	FillingsUpdate:  mu: +0.089872335  nElectrons: 390.000000
	SubspaceRotationAdjust: set factor to 0.059
ElecMinimize: Iter:  87  F: -2737.990842289102602  |grad|_K:  4.802e-07  alpha:  2.285e-01  linmin:  2.008e-06  t[s]:   3298.89
	FillingsUpdate:  mu: +0.089885410  nElectrons: 390.000000
	SubspaceRotationAdjust: set factor to 0.0525
ElecMinimize: Iter:  88  F: -2737.990846086881447  |grad|_K:  3.803e-07  alpha:  1.952e-01  linmin:  6.015e-08  t[s]:   3332.11
	FillingsUpdate:  mu: +0.089902571  nElectrons: 390.000000
	SubspaceRotationAdjust: set factor to 0.061
ElecMinimize: Iter:  89  F: -2737.990849416066339  |grad|_K:  3.193e-07  alpha:  2.727e-01  linmin: -9.362e-07  t[s]:   3364.75
	FillingsUpdate:  mu: +0.089890980  nElectrons: 390.000000
	SubspaceRotationAdjust: set factor to 0.0663
ElecMinimize: Iter:  90  F: -2737.990851670389020  |grad|_K:  2.931e-07  alpha:  2.620e-01  linmin: -3.820e-07  t[s]:   3397.38
	FillingsUpdate:  mu: +0.089874025  nElectrons: 390.000000
	SubspaceRotationAdjust: set factor to 0.0635
ElecMinimize: Iter:  91  F: -2737.990853306147528  |grad|_K:  2.771e-07  alpha:  2.256e-01  linmin: -2.413e-06  t[s]:   3430.53
	FillingsUpdate:  mu: +0.089877474  nElectrons: 390.000000
	SubspaceRotationAdjust: set factor to 0.0675
ElecMinimize: Iter:  92  F: -2737.990854799477802  |grad|_K:  2.485e-07  alpha:  2.304e-01  linmin: -3.203e-06  t[s]:   3463.50
	FillingsUpdate:  mu: +0.089882156  nElectrons: 390.000000
	SubspaceRotationAdjust: set factor to 0.083
ElecMinimize: Iter:  93  F: -2737.990856351906586  |grad|_K:  2.295e-07  alpha:  2.976e-01  linmin: -3.932e-06  t[s]:   3496.77
	FillingsUpdate:  mu: +0.089858334  nElectrons: 390.000000
	SubspaceRotationAdjust: set factor to 0.0966
ElecMinimize: Iter:  94  F: -2737.990857779839189  |grad|_K:  2.472e-07  alpha:  3.210e-01  linmin: -3.807e-06  t[s]:   3529.72
	FillingsUpdate:  mu: +0.089852426  nElectrons: 390.000000
	SubspaceRotationAdjust: set factor to 0.088
ElecMinimize: Iter:  95  F: -2737.990858951348400  |grad|_K:  3.038e-07  alpha:  2.271e-01  linmin: -2.029e-06  t[s]:   3562.54
	FillingsUpdate:  mu: +0.089848070  nElectrons: 390.000000
	SubspaceRotationAdjust: set factor to 0.0748
ElecMinimize: Iter:  96  F: -2737.990860150857316  |grad|_K:  2.672e-07  alpha:  1.539e-01  linmin: -9.222e-07  t[s]:   3595.91
	FillingsUpdate:  mu: +0.089841199  nElectrons: 390.000000
	SubspaceRotationAdjust: set factor to 0.081
ElecMinimize: Iter:  97  F: -2737.990861740000582  |grad|_K:  2.467e-07  alpha:  2.636e-01  linmin: -2.790e-06  t[s]:   3629.34
	FillingsUpdate:  mu: +0.089809631  nElectrons: 390.000000
	SubspaceRotationAdjust: set factor to 0.0876
ElecMinimize: Iter:  98  F: -2737.990863363517292  |grad|_K:  2.412e-07  alpha:  3.157e-01  linmin: -2.564e-06  t[s]:   3662.05
	FillingsUpdate:  mu: +0.089806907  nElectrons: 390.000000
	SubspaceRotationAdjust: set factor to 0.0853
ElecMinimize: Iter:  99  F: -2737.990864802349734  |grad|_K:  2.657e-07  alpha:  2.926e-01  linmin: -9.092e-07  t[s]:   3695.64
	FillingsUpdate:  mu: +0.089810820  nElectrons: 390.000000
	SubspaceRotationAdjust: set factor to 0.065
ElecMinimize: Iter: 100  F: -2737.990865759136796  |grad|_K:  2.572e-07  alpha:  1.606e-01  linmin:  4.935e-07  t[s]:   3727.86
	FillingsUpdate:  mu: +0.089798430  nElectrons: 390.000000
	SubspaceRotationAdjust: set factor to 0.0584
ElecMinimize: Iter: 101  F: -2737.990866801173979  |grad|_K:  1.995e-07  alpha:  1.867e-01  linmin:  8.852e-08  t[s]:   3759.27
	FillingsUpdate:  mu: +0.089781412  nElectrons: 390.000000
	SubspaceRotationAdjust: set factor to 0.0638
ElecMinimize: Iter: 102  F: -2737.990867721623999  |grad|_K:  1.770e-07  alpha:  2.741e-01  linmin:  1.617e-06  t[s]:   3791.42
	FillingsUpdate:  mu: +0.089778049  nElectrons: 390.000000
	SubspaceRotationAdjust: set factor to 0.0574
ElecMinimize: Iter: 103  F: -2737.990868328368379  |grad|_K:  1.600e-07  alpha:  2.298e-01  linmin:  1.895e-06  t[s]:   3823.97
	FillingsUpdate:  mu: +0.089775900  nElectrons: 390.000000
	SubspaceRotationAdjust: set factor to 0.05
ElecMinimize: Iter: 104  F: -2737.990868731976661  |grad|_K:  1.273e-07  alpha:  1.870e-01  linmin:  3.139e-06  t[s]:   3855.90
	FillingsUpdate:  mu: +0.089773358  nElectrons: 390.000000
	SubspaceRotationAdjust: set factor to 0.0583
ElecMinimize: Iter: 105  F: -2737.990869081311757  |grad|_K:  1.030e-07  alpha:  2.563e-01  linmin:  7.591e-06  t[s]:   3887.18
	FillingsUpdate:  mu: +0.089773851  nElectrons: 390.000000
	SubspaceRotationAdjust: set factor to 0.0607
ElecMinimize: Iter: 106  F: -2737.990869307857793  |grad|_K:  9.428e-08  alpha:  2.536e-01  linmin:  4.841e-06  t[s]:   3918.07
ElecMinimize: Converged (|Delta F|<1.000000e-06 for 5 iters).
Setting wave functions to eigenvectors of Hamiltonian

# Ionic positions in lattice coordinates:
ion mix1   0.000000000000000   0.000000000000000   0.150000000000000 0
ion mix2   0.500000000000000   0.000000000000000   0.150000000000000 0
ion mix3   0.000000000000000   0.500000000000000   0.150000000000000 0
ion mix4   0.500000000000000   0.500000000000000   0.150000000000000 0
ion mix5   0.250000000000000   0.250000000000000   0.050000000000000 0
ion mix6   0.250000000000000   0.750000000000000   0.050000000000000 0
ion mix7  -0.250000000000000   0.250000000000000   0.050000000000000 0
ion mix8  -0.250000000000000   0.750000000000000   0.050000000000000 0
ion mix9   0.000000000000000   0.000000000000000  -0.050000000000000 0
ion mix10   0.500000000000000   0.000000000000000  -0.050000000000000 0
ion mix11   0.000000000000000   0.500000000000000  -0.050000000000000 0
ion mix12   0.500000000000000   0.500000000000000  -0.050000000000000 0
ion mix13   0.250000000000000   0.250000000000000  -0.150000000000000 0
ion mix14   0.250000000000000   0.750000000000000  -0.150000000000000 0
ion mix15  -0.250000000000000   0.250000000000000  -0.150000000000000 0
ion mix16  -0.250000000000000   0.750000000000000  -0.150000000000000 0
ion O   0.250000000000000   0.250000000000000   0.150000000000000 0
ion O   0.250000000000000   0.750000000000000   0.150000000000000 0
ion O  -0.250000000000000   0.250000000000000   0.150000000000000 0
ion O  -0.250000000000000   0.750000000000000   0.150000000000000 0
ion O   0.000000000000000   0.000000000000000   0.050000000000000 0
ion O   0.500000000000000   0.000000000000000   0.050000000000000 0
ion O   0.000000000000000   0.500000000000000   0.050000000000000 0
ion O   0.500000000000000   0.500000000000000   0.050000000000000 0
ion O   0.250000000000000   0.250000000000000  -0.050000000000000 0
ion O   0.250000000000000   0.750000000000000  -0.050000000000000 0
ion O  -0.250000000000000   0.250000000000000  -0.050000000000000 0
ion O  -0.250000000000000   0.750000000000000  -0.050000000000000 0
ion O   0.000000000000000   0.000000000000000  -0.150000000000000 0
ion O   0.500000000000000   0.000000000000000  -0.150000000000000 0
ion O   0.000000000000000   0.500000000000000  -0.150000000000000 0
ion O   0.500000000000000   0.500000000000000  -0.150000000000000 0
ion O   0.000000000000000   0.000000000000000   0.230000000000000 1

# Forces in Lattice coordinates:
force mix1   0.000009657329378  -0.000006255869649   1.073797959576623 0
force mix2  -0.000005422199842   0.000010790829208   0.295297663645848 0
force mix3   0.000009312553764   0.000015098240524   0.295149786906088 0
force mix4  -0.000010082213475   0.000027666605294   0.136834718807696 0
force mix5   0.010383155687424   0.010364810877475   0.270598163297590 0
force mix6   0.010384723345334  -0.010342712700180   0.270480923823540 0
force mix7  -0.010353813810085   0.010387095642543   0.270503958826399 0
force mix8  -0.010353329304623  -0.010362401651467   0.270663357371968 0
force mix9   0.000003065052670   0.000020395100590  -0.625991248050756 0
force mix10   0.000007086630906  -0.000005053779655  -0.349862751372948 0
force mix11  -0.000013617908193   0.000004834017332  -0.349852019611341 0
force mix12   0.000000937164309   0.000000946949610  -0.254879472382285 0
force mix13  -0.003316629707154  -0.003321984383445  -0.181593768432123 0
force mix14  -0.003285171724792   0.003300318101067  -0.181663021388872 0
force mix15   0.003277654306212  -0.003326337961091  -0.181455246285321 0
force mix16   0.003259394733566   0.003284989178414  -0.181649940271343 0
force O   0.096609519951920   0.096635370438488  -0.859228460935705 0
force O   0.095981111872594  -0.095590772928369  -0.857841230215106 0
force O  -0.095529146899694   0.096271091598595  -0.857046624633885 0
force O  -0.096165876563585  -0.095919191235521  -0.858589354760500 0
force O   0.000006596888352   0.000327283165492   0.160425776100159 0
force O   0.000555025776864   0.000402602827637  -0.483883567991710 0
force O   0.000186789010488   0.000409473854828  -0.484782643801956 0
force O   0.000594781353325   0.000360523430018  -0.422765321370002 0
force O   0.005576998409990   0.005582985296249   0.551235083726995 0
force O   0.006206585836125  -0.006060325539760   0.550373183885238 0
force O  -0.006153086350386   0.005951829109882   0.551850737820733 0
force O  -0.005578144182580  -0.005318176022129   0.550843893533060 0
force O  -0.000175026858523   0.000128182466551   0.583579753410412 0
force O  -0.000078940778378   0.000193256183829   0.499029017003314 0
force O  -0.000252962718579  -0.000428186679924   0.499072156715698 0
force O  -0.000413071881440  -0.000523888096474   0.527493615507989 0
force O  -0.000079919186733   0.000074734175118  -0.338797403344685 1

# Energy components:
   Eewald =     7126.2915285048002261
       EH =     9601.8257332984103414
     Eloc =   -19542.7176749764512351
      Enl =     -855.7950598666084261
   Epulay =       -0.0001671297068720
      Exc =     -301.8284829197716022
       KE =     1234.2396801381519253
-------------------------------------
     Etot =    -2737.9844429511754242
       TS =        0.0064263566821728
-------------------------------------
        F =    -2737.9908693078577926

IonicMinimize: Iter:   0  F: -2737.990869307857793  |grad|_K:  4.857e-03  t[s]:   3958.58

-------- Electronic minimization -----------
	FillingsUpdate:  mu: +0.090063262  nElectrons: 390.000000
ElecMinimize: Iter:   0  F: -2737.988375204133263  |grad|_K:  1.391e-05  alpha:  1.000e+00
	FillingsUpdate:  mu: +0.090002051  nElectrons: 390.000000
	SubspaceRotationAdjust: set factor to 0.032
ElecMinimize: Iter:   1  F: -2737.990337985924270  |grad|_K:  6.063e-06  alpha:  1.150e-01  linmin: -1.799e-02  t[s]:   4010.36
	FillingsUpdate:  mu: +0.089394507  nElectrons: 390.000000
	SubspaceRotationAdjust: set factor to 0.0206
ElecMinimize: Iter:   2  F: -2737.990800970088912  |grad|_K:  2.272e-06  alpha:  1.431e-01  linmin: -2.552e-04  t[s]:   4043.21
	FillingsUpdate:  mu: +0.089662350  nElectrons: 390.000000
	SubspaceRotationAdjust: set factor to 0.0264
ElecMinimize: Iter:   3  F: -2737.990891990607452  |grad|_K:  1.008e-06  alpha:  2.088e-01  linmin: -1.323e-04  t[s]:   4075.97
	FillingsUpdate:  mu: +0.089815932  nElectrons: 390.000000
	SubspaceRotationAdjust: set factor to 0.0216
ElecMinimize: Iter:   4  F: -2737.990919107708123  |grad|_K:  5.361e-07  alpha:  3.164e-01  linmin:  3.851e-05  t[s]:   4107.65
	FillingsUpdate:  mu: +0.089850520  nElectrons: 390.000000
	SubspaceRotationAdjust: set factor to 0.0202
ElecMinimize: Iter:   5  F: -2737.990925628661444  |grad|_K:  3.426e-07  alpha:  2.689e-01  linmin:  4.216e-06  t[s]:   4139.12
	FillingsUpdate:  mu: +0.089875650  nElectrons: 390.000000
	SubspaceRotationAdjust: set factor to 0.0238
ElecMinimize: Iter:   6  F: -2737.990928678732871  |grad|_K:  2.106e-07  alpha:  3.079e-01  linmin: -3.671e-06  t[s]:   4171.80
	FillingsUpdate:  mu: +0.089891886  nElectrons: 390.000000
	SubspaceRotationAdjust: set factor to 0.0233
ElecMinimize: Iter:   7  F: -2737.990929994457929  |grad|_K:  1.583e-07  alpha:  3.515e-01  linmin: -6.901e-06  t[s]:   4204.45
	FillingsUpdate:  mu: +0.089892775  nElectrons: 390.000000
	SubspaceRotationAdjust: set factor to 0.0269
ElecMinimize: Iter:   8  F: -2737.990930775074958  |grad|_K:  1.213e-07  alpha:  3.692e-01  linmin:  3.117e-07  t[s]:   4236.39
	FillingsUpdate:  mu: +0.089894588  nElectrons: 390.000000
	SubspaceRotationAdjust: set factor to 0.0321
ElecMinimize: Iter:   9  F: -2737.990931288740740  |grad|_K:  1.183e-07  alpha:  4.138e-01  linmin:  5.500e-06  t[s]:   4268.86
	FillingsUpdate:  mu: +0.089896865  nElectrons: 390.000000
	SubspaceRotationAdjust: set factor to 0.0372
ElecMinimize: Iter:  10  F: -2737.990931724970778  |grad|_K:  1.195e-07  alpha:  3.697e-01  linmin:  1.033e-06  t[s]:   4301.67
	FillingsUpdate:  mu: +0.089894136  nElectrons: 390.000000
	SubspaceRotationAdjust: set factor to 0.0425
ElecMinimize: Iter:  11  F: -2737.990932256901033  |grad|_K:  1.348e-07  alpha:  4.414e-01  linmin:  6.878e-07  t[s]:   4334.58
	FillingsUpdate:  mu: +0.089890054  nElectrons: 390.000000
	SubspaceRotationAdjust: set factor to 0.0475
ElecMinimize: Iter:  12  F: -2737.990932902267559  |grad|_K:  1.483e-07  alpha:  4.208e-01  linmin:  1.017e-06  t[s]:   4366.81
ElecMinimize: Converged (|Delta F|<1.000000e-06 for 5 iters).
Setting wave functions to eigenvectors of Hamiltonian

# Ionic positions in lattice coordinates:
ion mix1   0.000000000000000   0.000000000000000   0.150000000000000 0
ion mix2   0.500000000000000   0.000000000000000   0.150000000000000 0
ion mix3   0.000000000000000   0.500000000000000   0.150000000000000 0
ion mix4   0.500000000000000   0.500000000000000   0.150000000000000 0
ion mix5   0.250000000000000   0.250000000000000   0.050000000000000 0
ion mix6   0.250000000000000   0.750000000000000   0.050000000000000 0
ion mix7  -0.250000000000000   0.250000000000000   0.050000000000000 0
ion mix8  -0.250000000000000   0.750000000000000   0.050000000000000 0
ion mix9   0.000000000000000   0.000000000000000  -0.050000000000000 0
ion mix10   0.500000000000000   0.000000000000000  -0.050000000000000 0
ion mix11   0.000000000000000   0.500000000000000  -0.050000000000000 0
ion mix12   0.500000000000000   0.500000000000000  -0.050000000000000 0
ion mix13   0.250000000000000   0.250000000000000  -0.150000000000000 0
ion mix14   0.250000000000000   0.750000000000000  -0.150000000000000 0
ion mix15  -0.250000000000000   0.250000000000000  -0.150000000000000 0
ion mix16  -0.250000000000000   0.750000000000000  -0.150000000000000 0
ion O   0.250000000000000   0.250000000000000   0.150000000000000 0
ion O   0.250000000000000   0.750000000000000   0.150000000000000 0
ion O  -0.250000000000000   0.250000000000000   0.150000000000000 0
ion O  -0.250000000000000   0.750000000000000   0.150000000000000 0
ion O   0.000000000000000   0.000000000000000   0.050000000000000 0
ion O   0.500000000000000   0.000000000000000   0.050000000000000 0
ion O   0.000000000000000   0.500000000000000   0.050000000000000 0
ion O   0.500000000000000   0.500000000000000   0.050000000000000 0
ion O   0.250000000000000   0.250000000000000  -0.050000000000000 0
ion O   0.250000000000000   0.750000000000000  -0.050000000000000 0
ion O  -0.250000000000000   0.250000000000000  -0.050000000000000 0
ion O  -0.250000000000000   0.750000000000000  -0.050000000000000 0
ion O   0.000000000000000   0.000000000000000  -0.150000000000000 0
ion O   0.500000000000000   0.000000000000000  -0.150000000000000 0
ion O   0.000000000000000   0.500000000000000  -0.150000000000000 0
ion O   0.500000000000000   0.500000000000000  -0.150000000000000 0
ion O  -0.000000615871306   0.000000575914695   0.229791133410722 1

# Forces in Lattice coordinates:
force mix1  -0.000019043051513  -0.000010122209976   1.061274299483974 0
force mix2   0.000001512740218   0.000003218151405   0.306981860921999 0
force mix3  -0.000000527667333  -0.000000202823818   0.306989821818125 0
force mix4   0.000003382335982  -0.000004687893760   0.147326182455451 0
force mix5   0.009796807318381   0.009795597454383   0.325305933843476 0
force mix6   0.009789281378914  -0.009793823224665   0.325296608228050 0
force mix7  -0.009793601183440   0.009785637810898   0.325280976819000 0
force mix8  -0.009792428166741  -0.009791552528393   0.325328618262649 0
force mix9   0.000003019899888   0.000002461286786  -0.575206946183417 0
force mix10  -0.000002970743991   0.000003432841998  -0.299745755965078 0
force mix11   0.000004526235828  -0.000002970291811  -0.299743921591237 0
force mix12  -0.000000134615187  -0.000000822392257  -0.205178609083521 0
force mix13  -0.003080706161301  -0.003078539829574  -0.175174545777322 0
force mix14  -0.003085423982662   0.003078572875638  -0.175161418758702 0
force mix15   0.003085371125608  -0.003076216884628  -0.175218908873330 0
force mix16   0.003088907251111   0.003083106432186  -0.175156143082423 0
force O   0.093316589929646   0.093370246052246  -0.848088848956214 0
force O   0.093577605074615  -0.093437467948629  -0.848619555520198 0
force O  -0.093588347282908   0.093404262516768  -0.849022976058039 0
force O  -0.093357229049498  -0.093430742384671  -0.848338874136751 0
force O  -0.000056929587690  -0.000066255405086   0.155682925014051 0
force O  -0.000130373412605   0.000012920485971  -0.464906403401264 0
force O   0.000070342503345  -0.000088487434852  -0.464659880689070 0
force O  -0.000011260606302   0.000008893468229  -0.373654384940475 0
force O   0.007776170121200   0.007727146964680   0.548372314461522 0
force O   0.007339464633358  -0.007419733875647   0.548472799137857 0
force O  -0.007336842648549   0.007449779040891   0.548164451033526 0
force O  -0.007746812282191  -0.007777320411183   0.548586504576642 0
force O   0.000025833342538  -0.000104148250945   0.546598476299827 0
force O  -0.000031912471532  -0.000119371781393   0.457786721450262 0
force O   0.000025384395260   0.000152388600560   0.457594272148935 0
force O   0.000055042075517   0.000107183611506   0.475401969821382 0
force O   0.000217427058220  -0.000005536193507   0.119827777938522 1

# Energy components:
   Eewald =     7126.8192083250996802
       EH =     9602.3886986024499492
     Eloc =   -19543.8110903016822704
      Enl =     -855.7958746218728265
   Epulay =       -0.0001671297068720
      Exc =     -301.8301387507144113
       KE =     1234.2448515817613952
-------------------------------------
     Etot =    -2737.9845122946653646
       TS =        0.0064206076022163
-------------------------------------
        F =    -2737.9909329022675593

IonicMinimize: Iter:   1  F: -2737.990932902267559  |grad|_K:  1.718e-03  alpha:  1.000e+00  linmin:  4.003e-02  t[s]:   4407.13

-------- Electronic minimization -----------
	FillingsUpdate:  mu: +0.090459547  nElectrons: 390.000000
ElecMinimize: Iter:   0  F: -2737.990764880054940  |grad|_K:  2.996e-06  alpha:  1.000e+00
	FillingsUpdate:  mu: +0.090188018  nElectrons: 390.000000
	SubspaceRotationAdjust: set factor to 0.0437
ElecMinimize: Iter:   1  F: -2737.990898142702008  |grad|_K:  9.918e-07  alpha:  1.757e-01  linmin: -6.272e-04  t[s]:   4458.22
	FillingsUpdate:  mu: +0.090044487  nElectrons: 390.000000
	SubspaceRotationAdjust: set factor to 0.0295
ElecMinimize: Iter:   2  F: -2737.990914788578266  |grad|_K:  4.249e-07  alpha:  2.004e-01  linmin:  3.327e-05  t[s]:   4491.22
	FillingsUpdate:  mu: +0.089971396  nElectrons: 390.000000
	SubspaceRotationAdjust: set factor to 0.0189
ElecMinimize: Iter:   3  F: -2737.990917777535742  |grad|_K:  2.595e-07  alpha:  1.962e-01  linmin: -2.517e-05  t[s]:   4524.66
	FillingsUpdate:  mu: +0.089924247  nElectrons: 390.000000
	SubspaceRotationAdjust: set factor to 0.0261
ElecMinimize: Iter:   4  F: -2737.990919390346789  |grad|_K:  1.416e-07  alpha:  2.840e-01  linmin:  4.691e-05  t[s]:   4557.68
	FillingsUpdate:  mu: +0.089907055  nElectrons: 390.000000
	SubspaceRotationAdjust: set factor to 0.0227
ElecMinimize: Iter:   5  F: -2737.990919971327457  |grad|_K:  1.050e-07  alpha:  3.435e-01  linmin: -2.572e-05  t[s]:   4590.90
	FillingsUpdate:  mu: +0.089895976  nElectrons: 390.000000
	SubspaceRotationAdjust: set factor to 0.0225
ElecMinimize: Iter:   6  F: -2737.990920298682340  |grad|_K:  7.650e-08  alpha:  3.516e-01  linmin: -6.909e-06  t[s]:   4624.06
	FillingsUpdate:  mu: +0.089893156  nElectrons: 390.000000
	SubspaceRotationAdjust: set factor to 0.0268
ElecMinimize: Iter:   7  F: -2737.990920497348725  |grad|_K:  5.943e-08  alpha:  4.018e-01  linmin:  6.162e-06  t[s]:   4657.14
	FillingsUpdate:  mu: +0.089890784  nElectrons: 390.000000
	SubspaceRotationAdjust: set factor to 0.0304
ElecMinimize: Iter:   8  F: -2737.990920597567310  |grad|_K:  5.104e-08  alpha:  3.368e-01  linmin: -1.060e-05  t[s]:   4690.32
	FillingsUpdate:  mu: +0.089887327  nElectrons: 390.000000
	SubspaceRotationAdjust: set factor to 0.0366
ElecMinimize: Iter:   9  F: -2737.990920682735577  |grad|_K:  4.997e-08  alpha:  3.867e-01  linmin: -1.276e-05  t[s]:   4723.37
ElecMinimize: Converged (|Delta F|<1.000000e-06 for 5 iters).
Setting wave functions to eigenvectors of Hamiltonian
IonicMinimize: 	Wolfe criterion not satisfied: alpha: 1  (E-E0)/|gdotd0|: 1.8686  gdotd/gdotd0: -3.8393 (taking cubic step)

-------- Electronic minimization -----------
	FillingsUpdate:  mu: +0.089608254  nElectrons: 390.000000
ElecMinimize: Iter:   0  F: -2737.990821031287396  |grad|_K:  2.600e-06  alpha:  1.000e+00
	FillingsUpdate:  mu: +0.089713458  nElectrons: 390.000000
	SubspaceRotationAdjust: set factor to 0.032
ElecMinimize: Iter:   1  F: -2737.990919186046540  |grad|_K:  8.141e-07  alpha:  1.721e-01  linmin:  6.982e-04  t[s]:   4816.02
	FillingsUpdate:  mu: +0.089802079  nElectrons: 390.000000
	SubspaceRotationAdjust: set factor to 0.0268
ElecMinimize: Iter:   2  F: -2737.990931436738720  |grad|_K:  2.849e-07  alpha:  2.191e-01  linmin: -4.572e-05  t[s]:   4849.07
	FillingsUpdate:  mu: +0.089856118  nElectrons: 390.000000
	SubspaceRotationAdjust: set factor to 0.0217
ElecMinimize: Iter:   3  F: -2737.990933659449638  |grad|_K:  1.713e-07  alpha:  3.245e-01  linmin:  5.454e-05  t[s]:   4882.09
	FillingsUpdate:  mu: +0.089874284  nElectrons: 390.000000
	SubspaceRotationAdjust: set factor to 0.0212
ElecMinimize: Iter:   4  F: -2737.990934297894000  |grad|_K:  1.022e-07  alpha:  2.579e-01  linmin:  2.663e-07  t[s]:   4914.83
	FillingsUpdate:  mu: +0.089886725  nElectrons: 390.000000
	SubspaceRotationAdjust: set factor to 0.0256
ElecMinimize: Iter:   5  F: -2737.990934604044014  |grad|_K:  7.099e-08  alpha:  3.476e-01  linmin:  2.185e-05  t[s]:   4947.93
	FillingsUpdate:  mu: +0.089892529  nElectrons: 390.000000
	SubspaceRotationAdjust: set factor to 0.0277
ElecMinimize: Iter:   6  F: -2737.990934730731169  |grad|_K:  5.969e-08  alpha:  2.983e-01  linmin:  1.233e-05  t[s]:   4981.42
	FillingsUpdate:  mu: +0.089895301  nElectrons: 390.000000
	SubspaceRotationAdjust: set factor to 0.035
ElecMinimize: Iter:   7  F: -2737.990934829808793  |grad|_K:  5.260e-08  alpha:  3.303e-01  linmin:  3.180e-05  t[s]:   5014.65
	FillingsUpdate:  mu: +0.089896599  nElectrons: 390.000000
	SubspaceRotationAdjust: set factor to 0.0388
ElecMinimize: Iter:   8  F: -2737.990934914623267  |grad|_K:  5.248e-08  alpha:  3.651e-01  linmin: -9.198e-06  t[s]:   5047.71
ElecMinimize: Converged (|Delta F|<1.000000e-06 for 5 iters).
Setting wave functions to eigenvectors of Hamiltonian

# Ionic positions in lattice coordinates:
ion mix1   0.000000000000000   0.000000000000000   0.150000000000000 0
ion mix2   0.500000000000000   0.000000000000000   0.150000000000000 0
ion mix3   0.000000000000000   0.500000000000000   0.150000000000000 0
ion mix4   0.500000000000000   0.500000000000000   0.150000000000000 0
ion mix5   0.250000000000000   0.250000000000000   0.050000000000000 0
ion mix6   0.250000000000000   0.750000000000000   0.050000000000000 0
ion mix7  -0.250000000000000   0.250000000000000   0.050000000000000 0
ion mix8  -0.250000000000000   0.750000000000000   0.050000000000000 0
ion mix9   0.000000000000000   0.000000000000000  -0.050000000000000 0
ion mix10   0.500000000000000   0.000000000000000  -0.050000000000000 0
ion mix11   0.000000000000000   0.500000000000000  -0.050000000000000 0
ion mix12   0.500000000000000   0.500000000000000  -0.050000000000000 0
ion mix13   0.250000000000000   0.250000000000000  -0.150000000000000 0
ion mix14   0.250000000000000   0.750000000000000  -0.150000000000000 0
ion mix15  -0.250000000000000   0.250000000000000  -0.150000000000000 0
ion mix16  -0.250000000000000   0.750000000000000  -0.150000000000000 0
ion O   0.250000000000000   0.250000000000000   0.150000000000000 0
ion O   0.250000000000000   0.750000000000000   0.150000000000000 0
ion O  -0.250000000000000   0.250000000000000   0.150000000000000 0
ion O  -0.250000000000000   0.750000000000000   0.150000000000000 0
ion O   0.000000000000000   0.000000000000000   0.050000000000000 0
ion O   0.500000000000000   0.000000000000000   0.050000000000000 0
ion O   0.000000000000000   0.500000000000000   0.050000000000000 0
ion O   0.500000000000000   0.500000000000000   0.050000000000000 0
ion O   0.250000000000000   0.250000000000000  -0.050000000000000 0
ion O   0.250000000000000   0.750000000000000  -0.050000000000000 0
ion O  -0.250000000000000   0.250000000000000  -0.050000000000000 0
ion O  -0.250000000000000   0.750000000000000  -0.050000000000000 0
ion O   0.000000000000000   0.000000000000000  -0.150000000000000 0
ion O   0.500000000000000   0.000000000000000  -0.150000000000000 0
ion O   0.000000000000000   0.500000000000000  -0.150000000000000 0
ion O   0.500000000000000   0.500000000000000  -0.150000000000000 0
ion O  -0.000000482233311   0.000000567168107   0.229798758720934 1

# Forces in Lattice coordinates:
force mix1  -0.000020084516295   0.000003597986705   1.066880414690372 0
force mix2   0.000011342730288   0.000005609656186   0.300523585799806 0
force mix3  -0.000011233796947  -0.000006406657820   0.300537624167333 0
force mix4   0.000013124069444  -0.000007343509169   0.143092848275011 0
force mix5   0.009794826915574   0.009799252981195   0.311268866794368 0
force mix6   0.009786716885049  -0.009792829208696   0.311323096753563 0
force mix7  -0.009786633657785   0.009790273533189   0.311334759742107 0
force mix8  -0.009793851546379  -0.009798383854113   0.311311607077901 0
force mix9   0.000002341323667   0.000002797730961  -0.585021931458130 0
force mix10  -0.000004171336433   0.000002349565487  -0.309576259507200 0
force mix11   0.000003059518783  -0.000002713655485  -0.309573502131877 0
force mix12  -0.000002205303219  -0.000001276590953  -0.215759091591831 0
force mix13  -0.003117744791174  -0.003107663822361  -0.178668895407889 0
force mix14  -0.003118738385007   0.003106226251982  -0.178716717186294 0
force mix15   0.003122223865130  -0.003102959224789  -0.178764310492291 0
force mix16   0.003115314252843   0.003106475330834  -0.178650934688381 0
force O   0.088631613257701   0.088730119966867  -0.850411157336865 0
force O   0.088700116376927  -0.088479819274715  -0.851393612091966 0
force O  -0.088650154785295   0.088453380607489  -0.851744405538380 0
force O  -0.088603499585277  -0.088702317196334  -0.850657284011779 0
force O  -0.000062888607135  -0.000090158733475   0.163739544474596 0
force O  -0.000107390441912   0.000047840660973  -0.459662385418211 0
force O   0.000116646697427  -0.000052241917489  -0.459511292789780 0
force O   0.000049235901945   0.000090271925121  -0.365884622376028 0
force O   0.009214341564694   0.009108534226914   0.549483568597600 0
force O   0.008521548837419  -0.008635461272175   0.550191028699837 0
force O  -0.008533457290585   0.008654865771013   0.549963867668935 0
force O  -0.009203896126799  -0.009129074732654   0.549851009736131 0
force O  -0.000014654126559  -0.000063064976442   0.533160387005317 0
force O  -0.000027450772566  -0.000121572607713   0.448207438915066 0
force O   0.000011301170099   0.000153648278853   0.447962348235194 0
force O   0.000023445864637   0.000054043754176   0.469403533120765 0
force O   0.000169586036255   0.000017790621980  -0.162312149395689 1

# Energy components:
   Eewald =     7126.7999328427958972
       EH =     9602.3698217440669396
     Eloc =   -19543.7729158540678327
      Enl =     -855.7952820414336657
   Epulay =       -0.0001671297068720
      Exc =     -301.8299895081170234
       KE =     1234.2440827926163820
-------------------------------------
     Etot =    -2737.9845171538463546
       TS =        0.0064177607767245
-------------------------------------
        F =    -2737.9909349146232671

IonicMinimize: Iter:   2  F: -2737.990934914623267  |grad|_K:  2.327e-03  alpha:  1.397e-01  linmin:  5.452e-02  t[s]:   5088.48

-------- Electronic minimization -----------
	FillingsUpdate:  mu: +0.091163048  nElectrons: 390.000000
ElecMinimize: Iter:   0  F: -2737.990771517461326  |grad|_K:  4.076e-06  alpha:  1.000e+00
	FillingsUpdate:  mu: +0.089877334  nElectrons: 390.000000
	SubspaceRotationAdjust: set factor to 0.0216
ElecMinimize: Iter:   1  F: -2737.990930849142842  |grad|_K:  4.526e-07  alpha:  1.175e-01  linmin:  3.701e-02  t[s]:   5141.06
	FillingsUpdate:  mu: +0.089909026  nElectrons: 390.000000
	SubspaceRotationAdjust: set factor to 0.0223
ElecMinimize: Iter:   2  F: -2737.990934316998391  |grad|_K:  1.742e-07  alpha:  2.070e-01  linmin:  6.981e-05  t[s]:   5174.14
	FillingsUpdate:  mu: +0.089912395  nElectrons: 390.000000
	SubspaceRotationAdjust: set factor to 0.0258
ElecMinimize: Iter:   3  F: -2737.990935286015429  |grad|_K:  1.193e-07  alpha:  3.786e-01  linmin: -3.138e-05  t[s]:   5206.32
	FillingsUpdate:  mu: +0.089911590  nElectrons: 390.000000
	SubspaceRotationAdjust: set factor to 0.0292
ElecMinimize: Iter:   4  F: -2737.990935693127994  |grad|_K:  9.310e-08  alpha:  3.390e-01  linmin:  1.245e-05  t[s]:   5238.93
	FillingsUpdate:  mu: +0.089907003  nElectrons: 390.000000
	SubspaceRotationAdjust: set factor to 0.0338
ElecMinimize: Iter:   5  F: -2737.990935957495822  |grad|_K:  7.648e-08  alpha:  3.617e-01  linmin:  6.158e-07  t[s]:   5271.81
	FillingsUpdate:  mu: +0.089902413  nElectrons: 390.000000
	SubspaceRotationAdjust: set factor to 0.0399
ElecMinimize: Iter:   6  F: -2737.990936157201304  |grad|_K:  7.093e-08  alpha:  4.044e-01  linmin: -5.334e-06  t[s]:   5303.85
	FillingsUpdate:  mu: +0.089902937  nElectrons: 390.000000
	SubspaceRotationAdjust: set factor to 0.0467
ElecMinimize: Iter:   7  F: -2737.990936330905697  |grad|_K:  6.973e-08  alpha:  4.088e-01  linmin:  8.803e-06  t[s]:   5336.72
ElecMinimize: Converged (|Delta F|<1.000000e-06 for 5 iters).
Setting wave functions to eigenvectors of Hamiltonian
IonicMinimize: 	Wolfe criterion not satisfied: alpha: 1  (E-E0)/|gdotd0|: -1.98913  gdotd/gdotd0: 1.87686 (taking cubic step)

-------- Electronic minimization -----------
	FillingsUpdate:  mu: +0.089991595  nElectrons: 390.000000
ElecMinimize: Iter:   0  F: -2737.990920198344611  |grad|_K:  1.199e-06  alpha:  1.000e+00
	FillingsUpdate:  mu: +0.089890350  nElectrons: 390.000000
	SubspaceRotationAdjust: set factor to 0.0282
ElecMinimize: Iter:   1  F: -2737.990932794716628  |grad|_K:  2.679e-07  alpha:  1.048e-01  linmin:  5.819e-03  t[s]:   5426.73
	FillingsUpdate:  mu: +0.089964839  nElectrons: 390.000000
	SubspaceRotationAdjust: set factor to 0.0346
ElecMinimize: Iter:   2  F: -2737.990934598705735  |grad|_K:  1.568e-07  alpha:  3.007e-01  linmin:  5.942e-05  t[s]:   5459.39
	FillingsUpdate:  mu: +0.089931654  nElectrons: 390.000000
	SubspaceRotationAdjust: set factor to 0.0436
ElecMinimize: Iter:   3  F: -2737.990935344275840  |grad|_K:  1.132e-07  alpha:  3.593e-01  linmin:  8.989e-07  t[s]:   5492.21
	FillingsUpdate:  mu: +0.089893534  nElectrons: 390.000000
	SubspaceRotationAdjust: set factor to 0.0524
ElecMinimize: Iter:   4  F: -2737.990935815494140  |grad|_K:  1.075e-07  alpha:  4.358e-01  linmin: -6.258e-07  t[s]:   5524.88
	FillingsUpdate:  mu: +0.089892700  nElectrons: 390.000000
	SubspaceRotationAdjust: set factor to 0.0603
ElecMinimize: Iter:   5  F: -2737.990936234305536  |grad|_K:  1.096e-07  alpha:  4.294e-01  linmin:  3.002e-06  t[s]:   5558.15
	FillingsUpdate:  mu: +0.089901433  nElectrons: 390.000000
	SubspaceRotationAdjust: set factor to 0.0652
ElecMinimize: Iter:   6  F: -2737.990936626099938  |grad|_K:  1.071e-07  alpha:  3.868e-01  linmin: -7.445e-07  t[s]:   5591.72
	FillingsUpdate:  mu: +0.089897811  nElectrons: 390.000000
	SubspaceRotationAdjust: set factor to 0.06
ElecMinimize: Iter:   7  F: -2737.990936966108166  |grad|_K:  1.066e-07  alpha:  3.513e-01  linmin: -2.629e-06  t[s]:   5624.41
ElecMinimize: Converged (|Delta F|<1.000000e-06 for 5 iters).
Setting wave functions to eigenvectors of Hamiltonian
IonicMinimize: 	Wolfe criterion not satisfied: alpha: 1.4711  (E-E0)/|gdotd0|: -2.88126  gdotd/gdotd0: 1.98349 (taking cubic step)

-------- Electronic minimization -----------
	FillingsUpdate:  mu: +0.094787686  nElectrons: 390.000000
ElecMinimize: Iter:   0  F: -2737.990031512505084  |grad|_K:  1.176e-05  alpha:  1.000e+00
	FillingsUpdate:  mu: +0.090089214  nElectrons: 390.000000
	SubspaceRotationAdjust: set factor to 0.0226
ElecMinimize: Iter:   1  F: -2737.990903050488669  |grad|_K:  2.025e-06  alpha:  8.910e-02  linmin:  1.442e-01  t[s]:   5716.42
	FillingsUpdate:  mu: +0.089898730  nElectrons: 390.000000
	SubspaceRotationAdjust: set factor to 0.0087
ElecMinimize: Iter:   2  F: -2737.990932821315710  |grad|_K:  3.209e-07  alpha:  1.016e-01  linmin:  3.199e-04  t[s]:   5748.86
ElecMinimize: 	Predicted alpha/alphaT>3.000000, increasing alphaT to 3.046824e-01.
[...]
ElecMinimize: Iter:   1  F: -2737.032931348426700  |grad|_K:  9.680e-05  alpha:  7.268e-03  linmin: -6.265e-02  t[s]:    107.58
	FillingsUpdate:  mu: +0.103514274  nElectrons: 390.922122
	SubspaceRotationAdjust: set factor to 0.295
ElecMinimize: Iter:   2  F: -2737.046083580359664  |grad|_K:  2.760e-05  alpha:  1.127e-02  linmin: -8.442e-04  t[s]:    141.25
	FillingsUpdate:  mu: +0.102502601  nElectrons: 390.922122
	SubspaceRotationAdjust: set factor to 0.164
ElecMinimize: Iter:   3  F: -2737.048278892010330  |grad|_K:  2.093e-05  alpha:  3.304e-02  linmin: -6.688e-04  t[s]:    175.63
	FillingsUpdate:  mu: +0.103089395  nElectrons: 390.922122
	SubspaceRotationAdjust: set factor to 0.1
	SubspaceRotationAdjust: resetting CG because factor has changed by 0.0999629
ElecMinimize: 	State modified externally: resetting search direction.
ElecMinimize: Iter:   4  F: -2737.049769057838148  |grad|_K:  6.494e-06  alpha:  3.890e-02
ElecMinimize: 	Predicted alpha/alphaT>3.000000, increasing alphaT to 1.167118e-01.
	FillingsUpdate:  mu: +0.102607499  nElectrons: 390.922122
	SubspaceRotationAdjust: set factor to 0.077
ElecMinimize: Iter:   5  F: -2737.050897420225283  |grad|_K:  4.881e-06  alpha:  3.147e-01  linmin: -1.094e-04  t[s]:    273.27
	FillingsUpdate:  mu: +0.098182004  nElectrons: 390.922122
	SubspaceRotationAdjust: set factor to 0.0618
ElecMinimize: Iter:   6  F: -2737.051795003196276  |grad|_K:  5.737e-06  alpha:  4.394e-01  linmin: -9.637e-05  t[s]:    307.65
	FillingsUpdate:  mu: +0.098345555  nElectrons: 390.922122
	SubspaceRotationAdjust: set factor to 0.0464
ElecMinimize: Iter:   7  F: -2737.052583859914648  |grad|_K:  6.575e-06  alpha:  2.816e-01  linmin: -4.077e-06  t[s]:    342.51
	FillingsUpdate:  mu: +0.099007384  nElectrons: 390.922122
	SubspaceRotationAdjust: set factor to 0.0406
ElecMinimize: Iter:   8  F: -2737.053713404626251  |grad|_K:  4.859e-06  alpha:  3.061e-01  linmin: -1.447e-04  t[s]:    376.26
	FillingsUpdate:  mu: +0.097404423  nElectrons: 390.922122
	SubspaceRotationAdjust: set factor to 0.046
ElecMinimize: Iter:   9  F: -2737.054537405137580  |grad|_K:  4.213e-06  alpha:  3.963e-01  linmin:  2.582e-05  t[s]:    410.98
	FillingsUpdate:  mu: +0.097591698  nElectrons: 390.922122
	SubspaceRotationAdjust: set factor to 0.043
ElecMinimize: Iter:  10  F: -2737.055044359155545  |grad|_K:  3.504e-06  alpha:  3.389e-01  linmin:  1.371e-05  t[s]:    445.73
	FillingsUpdate:  mu: +0.098540198  nElectrons: 390.922122
	SubspaceRotationAdjust: set factor to 0.0361
ElecMinimize: Iter:  11  F: -2737.055354096182782  |grad|_K:  2.644e-06  alpha:  2.989e-01  linmin: -1.072e-05  t[s]:    479.55
	FillingsUpdate:  mu: +0.098709078  nElectrons: 390.922122
	SubspaceRotationAdjust: set factor to 0.0381
ElecMinimize: Iter:  12  F: -2737.055553394450271  |grad|_K:  2.033e-06  alpha:  3.357e-01  linmin:  9.639e-06  t[s]:    513.47
	FillingsUpdate:  mu: +0.098623112  nElectrons: 390.922122
	SubspaceRotationAdjust: set factor to 0.043
ElecMinimize: Iter:  13  F: -2737.055682960098238  |grad|_K:  1.838e-06  alpha:  3.706e-01  linmin: -7.827e-07  t[s]:    547.51
	FillingsUpdate:  mu: +0.098642801  nElectrons: 390.922122
	SubspaceRotationAdjust: set factor to 0.0456
ElecMinimize: Iter:  14  F: -2737.055784977320855  |grad|_K:  1.669e-06  alpha:  3.563e-01  linmin: -3.754e-06  t[s]:    582.18
	FillingsUpdate:  mu: +0.098595684  nElectrons: 390.922122
	SubspaceRotationAdjust: set factor to 0.0456
ElecMinimize: Iter:  15  F: -2737.055879285946503  |grad|_K:  1.641e-06  alpha:  3.989e-01  linmin:  1.070e-06  t[s]:    617.06
	FillingsUpdate:  mu: +0.098646851  nElectrons: 390.922122
	SubspaceRotationAdjust: set factor to 0.0459
ElecMinimize: Iter:  16  F: -2737.055971174205297  |grad|_K:  1.636e-06  alpha:  4.026e-01  linmin: -4.132e-06  t[s]:    651.57
	FillingsUpdate:  mu: +0.098997630  nElectrons: 390.922122
	SubspaceRotationAdjust: set factor to 0.0487
ElecMinimize: Iter:  17  F: -2737.056064534822326  |grad|_K:  1.530e-06  alpha:  4.106e-01  linmin: -1.032e-07  t[s]:    686.29
	FillingsUpdate:  mu: +0.099086464  nElectrons: 390.922122
	SubspaceRotationAdjust: set factor to 0.0527
ElecMinimize: Iter:  18  F: -2737.056137739966289  |grad|_K:  1.353e-06  alpha:  3.691e-01  linmin: -8.611e-07  t[s]:    720.60
	FillingsUpdate:  mu: +0.099047677  nElectrons: 390.922122
	SubspaceRotationAdjust: set factor to 0.052
ElecMinimize: Iter:  19  F: -2737.056193120902208  |grad|_K:  1.189e-06  alpha:  3.567e-01  linmin:  2.232e-07  t[s]:    753.52
	FillingsUpdate:  mu: +0.099176656  nElectrons: 390.922122
	SubspaceRotationAdjust: set factor to 0.0437
ElecMinimize: Iter:  20  F: -2737.056230883662465  |grad|_K:  1.013e-06  alpha:  3.152e-01  linmin:  2.839e-06  t[s]:    786.94
	FillingsUpdate:  mu: +0.099178883  nElectrons: 390.922122
	SubspaceRotationAdjust: set factor to 0.0354
ElecMinimize: Iter:  21  F: -2737.056254847699165  |grad|_K:  7.992e-07  alpha:  2.758e-01  linmin:  2.490e-06  t[s]:    821.00
	FillingsUpdate:  mu: +0.099146301  nElectrons: 390.922122
	SubspaceRotationAdjust: set factor to 0.0372
ElecMinimize: Iter:  22  F: -2737.056272785308010  |grad|_K:  6.409e-07  alpha:  3.316e-01  linmin:  2.990e-07  t[s]:    855.26
	FillingsUpdate:  mu: +0.099165114  nElectrons: 390.922122
	SubspaceRotationAdjust: set factor to 0.0403
ElecMinimize: Iter:  23  F: -2737.056283712339336  |grad|_K:  5.097e-07  alpha:  3.139e-01  linmin:  2.182e-08  t[s]:    889.35
	FillingsUpdate:  mu: +0.099180937  nElectrons: 390.922122
	SubspaceRotationAdjust: set factor to 0.0389
ElecMinimize: Iter:  24  F: -2737.056290756742328  |grad|_K:  4.166e-07  alpha:  3.198e-01  linmin:  1.690e-06  t[s]:    923.15
	FillingsUpdate:  mu: +0.099178770  nElectrons: 390.922122
	SubspaceRotationAdjust: set factor to 0.0399
ElecMinimize: Iter:  25  F: -2737.056295882061022  |grad|_K:  3.676e-07  alpha:  3.487e-01  linmin:  7.478e-07  t[s]:    957.73
	FillingsUpdate:  mu: +0.099166091  nElectrons: 390.922122
	SubspaceRotationAdjust: set factor to 0.0453
ElecMinimize: Iter:  26  F: -2737.056300137590370  |grad|_K:  3.444e-07  alpha:  3.715e-01  linmin:  3.245e-08  t[s]:    992.29
	FillingsUpdate:  mu: +0.099172598  nElectrons: 390.922122
	SubspaceRotationAdjust: set factor to 0.0483
ElecMinimize: Iter:  27  F: -2737.056303957834643  |grad|_K:  3.432e-07  alpha:  3.800e-01  linmin:  9.484e-07  t[s]:   1026.84
	FillingsUpdate:  mu: +0.099168240  nElectrons: 390.922122
	SubspaceRotationAdjust: set factor to 0.0452
ElecMinimize: Iter:  28  F: -2737.056307668205136  |grad|_K:  3.507e-07  alpha:  3.718e-01  linmin:  1.426e-07  t[s]:   1061.50
	FillingsUpdate:  mu: +0.099119804  nElectrons: 390.922122
	SubspaceRotationAdjust: set factor to 0.0412
ElecMinimize: Iter:  29  F: -2737.056311384507353  |grad|_K:  3.322e-07  alpha:  3.565e-01  linmin:  1.914e-06  t[s]:   1096.41
	FillingsUpdate:  mu: +0.099121212  nElectrons: 390.922122
	SubspaceRotationAdjust: set factor to 0.0426
ElecMinimize: Iter:  30  F: -2737.056314772050882  |grad|_K:  3.004e-07  alpha:  3.625e-01  linmin:  2.028e-07  t[s]:   1131.39
	FillingsUpdate:  mu: +0.099136647  nElectrons: 390.922122
	SubspaceRotationAdjust: set factor to 0.0447
ElecMinimize: Iter:  31  F: -2737.056317378044241  |grad|_K:  2.544e-07  alpha:  3.408e-01  linmin:  3.475e-07  t[s]:   1165.26
	FillingsUpdate:  mu: +0.099118309  nElectrons: 390.922122
	SubspaceRotationAdjust: set factor to 0.0409
ElecMinimize: Iter:  32  F: -2737.056319120197259  |grad|_K:  2.083e-07  alpha:  3.177e-01  linmin:  1.330e-06  t[s]:   1199.44
	FillingsUpdate:  mu: +0.099110476  nElectrons: 390.922122
	SubspaceRotationAdjust: set factor to 0.0366
ElecMinimize: Iter:  33  F: -2737.056320235887597  |grad|_K:  1.642e-07  alpha:  3.035e-01  linmin:  2.979e-07  t[s]:   1233.54
	FillingsUpdate:  mu: +0.099105363  nElectrons: 390.922122
	SubspaceRotationAdjust: set factor to 0.0387
ElecMinimize: Iter:  34  F: -2737.056320938184399  |grad|_K:  1.263e-07  alpha:  3.075e-01  linmin:  2.484e-07  t[s]:   1267.51
	FillingsUpdate:  mu: +0.099101423  nElectrons: 390.922122
	SubspaceRotationAdjust: set factor to 0.0417
ElecMinimize: Iter:  35  F: -2737.056321367394048  |grad|_K:  1.037e-07  alpha:  3.175e-01  linmin:  2.223e-06  t[s]:   1301.63
	FillingsUpdate:  mu: +0.099100232  nElectrons: 390.922122
	SubspaceRotationAdjust: set factor to 0.0417
ElecMinimize: Iter:  36  F: -2737.056321654422391  |grad|_K:  8.395e-08  alpha:  3.153e-01  linmin:  1.935e-06  t[s]:   1335.77
	FillingsUpdate:  mu: +0.099099377  nElectrons: 390.922122
	SubspaceRotationAdjust: set factor to 0.0428
ElecMinimize: Iter:  37  F: -2737.056321857305647  |grad|_K:  7.411e-08  alpha:  3.391e-01  linmin: -3.578e-06  t[s]:   1369.86
	FillingsUpdate:  mu: +0.099102249  nElectrons: 390.922122
	SubspaceRotationAdjust: set factor to 0.0474
ElecMinimize: Iter:  38  F: -2737.056322023714074  |grad|_K:  6.850e-08  alpha:  3.573e-01  linmin: -2.571e-06  t[s]:   1403.97
ElecMinimize: Converged (|Delta F|<1.000000e-06 for 5 iters).
Setting wave functions to eigenvectors of Hamiltonian

# Ionic positions in lattice coordinates:
ion mix1   0.000000000000000   0.000000000000000   0.150000000000000 0
ion mix2   0.500000000000000   0.000000000000000   0.150000000000000 0
ion mix3   0.000000000000000   0.500000000000000   0.150000000000000 0
ion mix4   0.500000000000000   0.500000000000000   0.150000000000000 0
ion mix5   0.250000000000000   0.250000000000000   0.050000000000000 0
ion mix6   0.250000000000000   0.750000000000000   0.050000000000000 0
ion mix7  -0.250000000000000   0.250000000000000   0.050000000000000 0
ion mix8  -0.250000000000000   0.750000000000000   0.050000000000000 0
ion mix9   0.000000000000000   0.000000000000000  -0.050000000000000 0
ion mix10   0.500000000000000   0.000000000000000  -0.050000000000000 0
ion mix11   0.000000000000000   0.500000000000000  -0.050000000000000 0
ion mix12   0.500000000000000   0.500000000000000  -0.050000000000000 0
ion mix13   0.250000000000000   0.250000000000000  -0.150000000000000 0
ion mix14   0.250000000000000   0.750000000000000  -0.150000000000000 0
ion mix15  -0.250000000000000   0.250000000000000  -0.150000000000000 0
ion mix16  -0.250000000000000   0.750000000000000  -0.150000000000000 0
ion O   0.250000000000000   0.250000000000000   0.150000000000000 0
ion O   0.250000000000000   0.750000000000000   0.150000000000000 0
ion O  -0.250000000000000   0.250000000000000   0.150000000000000 0
ion O  -0.250000000000000   0.750000000000000   0.150000000000000 0
ion O   0.000000000000000   0.000000000000000   0.050000000000000 0
ion O   0.500000000000000   0.000000000000000   0.050000000000000 0
ion O   0.000000000000000   0.500000000000000   0.050000000000000 0
ion O   0.500000000000000   0.500000000000000   0.050000000000000 0
ion O   0.250000000000000   0.250000000000000  -0.050000000000000 0
ion O   0.250000000000000   0.750000000000000  -0.050000000000000 0
ion O  -0.250000000000000   0.250000000000000  -0.050000000000000 0
ion O  -0.250000000000000   0.750000000000000  -0.050000000000000 0
ion O   0.000000000000000   0.000000000000000  -0.150000000000000 0
ion O   0.500000000000000   0.000000000000000  -0.150000000000000 0
ion O   0.000000000000000   0.500000000000000  -0.150000000000000 0
ion O   0.500000000000000   0.500000000000000  -0.150000000000000 0
ion O  -0.005880389816104  -0.005876302302327   0.236316797281248 1
ion H   0.103002131494085   0.103001851598741   0.249699301341092 1

# Forces in Lattice coordinates:
force mix1  -0.001619878631877  -0.001614105036407   0.613209994887947 0
force mix2   0.020521826132340  -0.013159572340962   0.194006074489040 0
force mix3  -0.013160535101928   0.020519658803127   0.194007576971879 0
force mix4   0.014566141303596   0.014564399315163   0.094133148413926 0
force mix5   0.009254999046649   0.009255722770720   0.230371847973928 0
force mix6   0.010185840875103  -0.009803573104900   0.280284601768662 0
force mix7  -0.009802633062068   0.010186083775534   0.280287356171756 0
force mix8  -0.010657791519390  -0.010658206488443   0.294927284312920 0
force mix9  -0.001695532182854  -0.001695672051948  -0.625772911097024 0
force mix10   0.000076790011809   0.000191539073116  -0.314924418279715 0
force mix11   0.000191610910006   0.000076680405636  -0.314921983301744 0
force mix12  -0.000147280229597  -0.000147227449702  -0.287827401714384 0
force mix13  -0.002575479314961  -0.002575758387730  -0.158966336852257 0
force mix14  -0.002843121902611   0.002837871965355  -0.164006228074908 0
force mix15   0.002837443547772  -0.002843217381285  -0.164008124747738 0
force mix16   0.002946012873337   0.002946261226166  -0.162204893776478 0
force O   0.039529665179706   0.039525595817756  -0.610470349766350 0
force O   0.057061899534194  -0.055065627332377  -0.810397416679690 0
force O  -0.055072253688446   0.057064025053354  -0.810422271940133 0
force O  -0.057353687398908  -0.057355419396788  -0.805090474557858 0
force O  -0.001586661369129  -0.001587622130293   0.158735530644687 0
force O  -0.001125340125401   0.000903676068982  -0.469372154041346 0
force O   0.000901695731014  -0.001124998220516  -0.469361086611473 0
force O  -0.001731918882012  -0.001730307669755  -0.421967379617858 0
force O   0.010264662041715   0.010264292473462   0.576032331482537 0
force O   0.010595790693769  -0.010381670744659   0.580030407183451 0
force O  -0.010381374312393   0.010596492783041   0.580030440791808 0
force O  -0.010529367553259  -0.010529384065378   0.572911457220572 0
force O  -0.000027197482141  -0.000025288090837   0.522479834999913 0
force O   0.000031930183301  -0.000027178904910   0.451940731242019 0
force O  -0.000025942274136   0.000033336184244   0.451926175090369 0
force O   0.000132593997982   0.000132513286983   0.489141696049565 0
force O  -0.008857114102662  -0.008864004110722  -0.017558901113626 1
force H   0.000586801411527   0.000587444024040   0.035703498989212 1

# Energy components:
   Eewald =     7105.5827921812824570
       EH =     9583.7764679680767586
     Eloc =   -19503.6068558582373953
      Enl =     -855.1631034145590320
   Epulay =       -0.0001672284552928
      Exc =     -302.1901244432605154
       KE =     1234.5507837318436941
-------------------------------------
     Etot =    -2737.0502070633101539
       TS =        0.0061149604037863
-------------------------------------
        F =    -2737.0563220237140740

IonicMinimize: Iter:   0  F: -2737.056322023714074  |grad|_K:  6.043e-04  t[s]:   1444.50
IonicMinimize: None of the convergence criteria satisfied after 0 iterations.

Dumping 'OH.fillings' ... done
Dumping 'OH.wfns' ... done
Dumping 'OH.ionpos' ... done
Dumping 'OH.lattice' ... done
Dumping 'OH.eigenvals' ... done
Dumping 'OH.Ecomponents' ... done
Dumping 'OH.mixgrad' ... done
End date and time: Thu Mar  6 06:57:30 2025  (Duration: 0-0:24:17.89)
Done!
File 'min_progress.txt' does not exist, so it cannot be deleted.
File 'min_details.txt' does not exist, so it cannot be deleted.
File 'O_pos.txt' does not exist, so it cannot be deleted.
File 'OH_pos.txt' does not exist, so it cannot be deleted.
Directory 'runs' does not exist, so it cannot be deleted.
File '/data2/jt577/March_2025/pure_RSO/no_ionic_relax/pure_NiO/runs/wavefunctions/O.wfns' does not exist and cannot be copied.
File '/data2/jt577/March_2025/pure_RSO/no_ionic_relax/pure_NiO/runs/wavefunctions/OH.wfns' does not exist and cannot be copied.
File '/data2/jt577/March_2025/pure_RSO/no_ionic_relax/pure_NiO/runs/calc_20250306-001439/O/O.wfns' has been copied to '/data2/jt577/March_2025/pure_RSO/no_ionic_relax/pure_NiO/runs/wavefunctions/O.wfns'.
File '/data2/jt577/March_2025/pure_RSO/no_ionic_relax/pure_NiO/runs/calc_20250306-001439/OH/OH.wfns' has been copied to '/data2/jt577/March_2025/pure_RSO/no_ionic_relax/pure_NiO/runs/wavefunctions/OH.wfns'.
File '/data2/jt577/March_2025/pure_RSO/no_ionic_relax/pure_NiO/runs/calc_20250306-001439/O/O.ionpos' has been copied to '/data2/jt577/March_2025/pure_RSO/no_ionic_relax/pure_NiO/runs/positions/O.ionpos'.
File '/data2/jt577/March_2025/pure_RSO/no_ionic_relax/pure_NiO/runs/calc_20250306-001439/O/O.lattice' has been copied to '/data2/jt577/March_2025/pure_RSO/no_ionic_relax/pure_NiO/runs/positions/O.lattice'.
File '/data2/jt577/March_2025/pure_RSO/no_ionic_relax/pure_NiO/runs/calc_20250306-001439/OH/OH.ionpos' has been copied to '/data2/jt577/March_2025/pure_RSO/no_ionic_relax/pure_NiO/runs/positions/OH.ionpos'.
File '/data2/jt577/March_2025/pure_RSO/no_ionic_relax/pure_NiO/runs/calc_20250306-001439/OH/OH.lattice' has been copied to '/data2/jt577/March_2025/pure_RSO/no_ionic_relax/pure_NiO/runs/positions/OH.lattice'.
File '/data2/jt577/March_2025/pure_RSO/no_ionic_relax/pure_NiO/runs/wavefunctions/O.wfns' has been copied to '/data2/jt577/March_2025/pure_RSO/no_ionic_relax/pure_NiO/runs/calc_20250306-052157/O/O.wfns'.
File '/data2/jt577/March_2025/pure_RSO/no_ionic_relax/pure_NiO/runs/wavefunctions/OH.wfns' has been copied to '/data2/jt577/March_2025/pure_RSO/no_ionic_relax/pure_NiO/runs/calc_20250306-052157/OH/OH.wfns'.
File '/data2/jt577/March_2025/pure_RSO/no_ionic_relax/pure_NiO/runs/calc_20250306-052157/O/O.wfns' has been copied to '/data2/jt577/March_2025/pure_RSO/no_ionic_relax/pure_NiO/runs/wavefunctions/O.wfns'.
File '/data2/jt577/March_2025/pure_RSO/no_ionic_relax/pure_NiO/runs/calc_20250306-052157/OH/OH.wfns' has been copied to '/data2/jt577/March_2025/pure_RSO/no_ionic_relax/pure_NiO/runs/wavefunctions/OH.wfns'.
File '/data2/jt577/March_2025/pure_RSO/no_ionic_relax/pure_NiO/runs/calc_20250306-052157/O/O.ionpos' has been copied to '/data2/jt577/March_2025/pure_RSO/no_ionic_relax/pure_NiO/runs/positions/O.ionpos'.
File '/data2/jt577/March_2025/pure_RSO/no_ionic_relax/pure_NiO/runs/calc_20250306-052157/O/O.lattice' has been copied to '/data2/jt577/March_2025/pure_RSO/no_ionic_relax/pure_NiO/runs/positions/O.lattice'.
File '/data2/jt577/March_2025/pure_RSO/no_ionic_relax/pure_NiO/runs/calc_20250306-052157/OH/OH.ionpos' has been copied to '/data2/jt577/March_2025/pure_RSO/no_ionic_relax/pure_NiO/runs/positions/OH.ionpos'.
File '/data2/jt577/March_2025/pure_RSO/no_ionic_relax/pure_NiO/runs/calc_20250306-052157/OH/OH.lattice' has been copied to '/data2/jt577/March_2025/pure_RSO/no_ionic_relax/pure_NiO/runs/positions/OH.lattice'.
File '/data2/jt577/March_2025/pure_RSO/no_ionic_relax/pure_NiO/runs/wavefunctions/O.wfns' has been copied to '/data2/jt577/March_2025/pure_RSO/no_ionic_relax/pure_NiO/runs/calc_20250306-060806/O/O.wfns'.
File '/data2/jt577/March_2025/pure_RSO/no_ionic_relax/pure_NiO/runs/wavefunctions/OH.wfns' has been copied to '/data2/jt577/March_2025/pure_RSO/no_ionic_relax/pure_NiO/runs/calc_20250306-060806/OH/OH.wfns'.
File '/data2/jt577/March_2025/pure_RSO/no_ionic_relax/pure_NiO/runs/calc_20250306-060806/O/O.wfns' has been copied to '/data2/jt577/March_2025/pure_RSO/no_ionic_relax/pure_NiO/runs/wavefunctions/O.wfns'.
File '/data2/jt577/March_2025/pure_RSO/no_ionic_relax/pure_NiO/runs/calc_20250306-060806/OH/OH.wfns' has been copied to '/data2/jt577/March_2025/pure_RSO/no_ionic_relax/pure_NiO/runs/wavefunctions/OH.wfns'.
File '/data2/jt577/March_2025/pure_RSO/no_ionic_relax/pure_NiO/runs/calc_20250306-060806/O/O.ionpos' has been copied to '/data2/jt577/March_2025/pure_RSO/no_ionic_relax/pure_NiO/runs/positions/O.ionpos'.
File '/data2/jt577/March_2025/pure_RSO/no_ionic_relax/pure_NiO/runs/calc_20250306-060806/O/O.lattice' has been copied to '/data2/jt577/March_2025/pure_RSO/no_ionic_relax/pure_NiO/runs/positions/O.lattice'.
File '/data2/jt577/March_2025/pure_RSO/no_ionic_relax/pure_NiO/runs/calc_20250306-060806/OH/OH.ionpos' has been copied to '/data2/jt577/March_2025/pure_RSO/no_ionic_relax/pure_NiO/runs/positions/OH.ionpos'.
File '/data2/jt577/March_2025/pure_RSO/no_ionic_relax/pure_NiO/runs/calc_20250306-060806/OH/OH.lattice' has been copied to '/data2/jt577/March_2025/pure_RSO/no_ionic_relax/pure_NiO/runs/positions/OH.lattice'.
