
*************** JDFTx 1.7.0  ***************

Start date and time: Wed Mar 26 15:07:10 2025
Executable /data2/jt577/jdftx_eat_withLibXC/build/jdftx with command-line: -i /data2/jt577/March_2025/pure_RSO/ionic_relax_magnetism/pure_NiO/runs/calc_20250326-150710/O/O.in
Running on hosts (process indices):  node3303 (0-8)
Divided in process groups (process indices):  0 (0)  1 (1)  2 (2)  3 (3)  4 (4)  5 (5)  6 (6)  7 (7)  8 (8)
Resource initialization completed at t[s]:      0.00
Run totals: 9 processes, 63 threads, 0 GPUs


Input parsed successfully to the following command list (including defaults):

add-mix 
add-U 	Ni d 0.22
basis kpoint-dependent
coords-type Lattice
core-overlap-check vector
coulomb-interaction Periodic
davidson-band-ratio 1.1
dump End IonicPositions Lattice Ecomponents
dump-name O.$VAR
elec-cutoff 30
elec-eigen-algo Davidson
elec-ex-corr gga-x-rpbe gga-c-pbe
elec-smearing Fermi 0.001
electronic-minimize  \
	dirUpdateScheme      FletcherReeves \
	linminMethod         DirUpdateRecommended \
	nIterations          1000 \
	history              15 \
	knormThreshold       0 \
	energyDiffThreshold  1e-06 \
	nEnergyDiff          5 \
	alphaTstart          1 \
	alphaTmin            1e-10 \
	updateTestStepSize   yes \
	alphaTreduceFactor   0.1 \
	alphaTincreaseFactor 3 \
	nAlphaAdjustMax      3 \
	wolfeEnergy          0.0001 \
	wolfeGradient        0.9 \
	fdTest               no
exchange-regularization WignerSeitzTruncated
fluid None
fluid-ex-corr (null) lda-PZ
fluid-gummel-loop 10 1.000000e-05
fluid-minimize  \
	dirUpdateScheme      PolakRibiere \
	linminMethod         DirUpdateRecommended \
	nIterations          100 \
	history              15 \
	knormThreshold       0 \
	energyDiffThreshold  0 \
	nEnergyDiff          2 \
	alphaTstart          1 \
	alphaTmin            1e-10 \
	updateTestStepSize   yes \
	alphaTreduceFactor   0.1 \
	alphaTincreaseFactor 3 \
	nAlphaAdjustMax      3 \
	wolfeEnergy          0.0001 \
	wolfeGradient        0.9 \
	fdTest               no
fluid-solvent H2O 55.338 ScalarEOS \
	epsBulk 78.4 \
	pMol 0.92466 \
	epsInf 1.77 \
	Pvap 1.06736e-10 \
	sigmaBulk 4.62e-05 \
	Rvdw 2.61727 \
	Res 1.42 \
	tauNuc 343133 \
	poleEl 15 7 1
forces-output-coords Positions
initial-magnetic-moments  \
	Ni 1 -1 1 -1 1 1 -1 -1 -1 1 -1 1 -1 -1 1 1
initial-state O.$VAR
ion Ni  0.000000000000000   0.000000000000000   0.150000000000000 1
ion Ni  0.500000000000000   0.000000000000000   0.150000000000000 1
ion Ni  0.000000000000000   0.500000000000000   0.150000000000000 1
ion Ni  0.500000000000000   0.500000000000000   0.150000000000000 1
ion Ni  0.250000000000000   0.250000000000000   0.050000000000000 1
ion Ni  0.250000000000000   0.750000000000000   0.050000000000000 1
ion Ni -0.250000000000000   0.250000000000000   0.050000000000000 1
ion Ni -0.250000000000000   0.750000000000000   0.050000000000000 1
ion Ni  0.000000000000000   0.000000000000000  -0.050000000000000 0
ion Ni  0.500000000000000   0.000000000000000  -0.050000000000000 0
ion Ni  0.000000000000000   0.500000000000000  -0.050000000000000 0
ion Ni  0.500000000000000   0.500000000000000  -0.050000000000000 0
ion Ni  0.250000000000000   0.250000000000000  -0.150000000000000 0
ion Ni  0.250000000000000   0.750000000000000  -0.150000000000000 0
ion Ni -0.250000000000000   0.250000000000000  -0.150000000000000 0
ion Ni -0.250000000000000   0.750000000000000  -0.150000000000000 0
ion O  0.250000000000000   0.250000000000000   0.150000000000000 1
ion O  0.250000000000000   0.750000000000000   0.150000000000000 1
ion O -0.250000000000000   0.250000000000000   0.150000000000000 1
ion O -0.250000000000000   0.750000000000000   0.150000000000000 1
ion O  0.000000000000000   0.000000000000000   0.050000000000000 1
ion O  0.500000000000000   0.000000000000000   0.050000000000000 1
ion O  0.000000000000000   0.500000000000000   0.050000000000000 1
ion O  0.500000000000000   0.500000000000000   0.050000000000000 1
ion O  0.250000000000000   0.250000000000000  -0.050000000000000 0
ion O  0.250000000000000   0.750000000000000  -0.050000000000000 0
ion O -0.250000000000000   0.250000000000000  -0.050000000000000 0
ion O -0.250000000000000   0.750000000000000  -0.050000000000000 0
ion O  0.000000000000000   0.000000000000000  -0.150000000000000 0
ion O  0.500000000000000   0.000000000000000  -0.150000000000000 0
ion O  0.000000000000000   0.500000000000000  -0.150000000000000 0
ion O  0.500000000000000   0.500000000000000  -0.150000000000000 0
ion O  0.000000000000000   0.000000000000000   0.230000000000000 1
ion-species SG15/$ID_ONCV_PBE.upf
ion-width 0
ionic-minimize  \
	dirUpdateScheme      L-BFGS \
	linminMethod         DirUpdateRecommended \
	nIterations          1000 \
	history              15 \
	knormThreshold       0.0001 \
	energyDiffThreshold  0.0001 \
	nEnergyDiff          3 \
	alphaTstart          1 \
	alphaTmin            1e-10 \
	updateTestStepSize   yes \
	alphaTreduceFactor   0.1 \
	alphaTincreaseFactor 3 \
	nAlphaAdjustMax      3 \
	wolfeEnergy          0.0001 \
	wolfeGradient        0.9 \
	fdTest               no
kpoint   0.500000000000   0.500000000000   0.500000000000  1.00000000000000
kpoint-folding 3 3 1 
latt-move-scale 1 1 1
latt-scale 1 1 1 
lattice  \
	   8.055000000000000    8.055000000000000    0.000000000000000  \
	   8.055000000000000   -8.055000000000000    0.000000000000000  \
	   0.000000000000000    0.000000000000000   40.274999999999999 
lattice-minimize  \
	dirUpdateScheme      L-BFGS \
	linminMethod         DirUpdateRecommended \
	nIterations          0 \
	history              15 \
	knormThreshold       0 \
	energyDiffThreshold  1e-06 \
	nEnergyDiff          2 \
	alphaTstart          1 \
	alphaTmin            1e-10 \
	updateTestStepSize   yes \
	alphaTreduceFactor   0.1 \
	alphaTincreaseFactor 3 \
	nAlphaAdjustMax      3 \
	wolfeEnergy          0.0001 \
	wolfeGradient        0.9 \
	fdTest               no
lcao-params -1 1e-06 0.001
pcm-variant GLSSA13
spintype z-spin
subspace-rotation-factor 1 yes
symmetries none
symmetry-threshold 0.0001


Applied RMS atom displacement 0 bohrs to make symmetries exact.

---------- Initializing the Grid ----------
R = 
[        8.055        8.055            0  ]
[        8.055       -8.055            0  ]
[            0            0       40.275  ]
unit cell volume = 5226.33
G =
[   0.390018   0.390018         -0  ]
[   0.390018  -0.390018         -0  ]
[         -0         -0   0.156007  ]
Minimum fftbox size, Smin = [  60  60  200  ]
Chosen fftbox size, S = [  60  60  200  ]

---------- Exchange Correlation functional ----------
Initialized LibXC exchange functional 'Hammer, Hansen, and Norskov'
Initialized LibXC correlation functional 'Perdew, Burke & Ernzerhof'

---------- Setting up pseudopotentials ----------
Width of ionic core gaussian charges (only for fluid interactions / plotting) set to 0

Reading pseudopotential file '/data2/jt577/jdftx_eat_withLibXC/build/pseudopotentials/SG15/Ni_ONCV_PBE.upf':
  'Ni' pseudopotential, 'PBE' functional
  Generated using ONCVPSP code by D. R. Hamann
  Author: Martin Schlipf and Francois Gygi  Date: 150915.
  18 valence electrons, 4 orbitals, 6 projectors, 1292 radial grid points, with lMax = 2
  Transforming local potential to a uniform radial grid of dG=0.02 with 1412 points.
  Transforming nonlocal projectors to a uniform radial grid of dG=0.02 with 528 points.
    3S    l: 0   occupation:  2.0   eigenvalue: -4.081355
    3P    l: 1   occupation:  6.0   eigenvalue: -2.623460
    4S    l: 0   occupation:  2.0   eigenvalue: -0.207378
    3D    l: 2   occupation:  8.0   eigenvalue: -0.326118
  Transforming atomic orbitals to a uniform radial grid of dG=0.02 with 528 points.
  WARNING: large normalization error in atomic orbital 1s (integral: 0.000006).
  Core radius for overlap checks: 1.99 bohrs.
  Reading pulay file /data2/jt577/jdftx_eat_withLibXC/build/pseudopotentials/SG15/Ni_ONCV_PBE.pulay ... using dE_dnG = -7.250568e-04 computed for Ecut = 30.

Reading pseudopotential file '/data2/jt577/jdftx_eat_withLibXC/build/pseudopotentials/SG15/O_ONCV_PBE.upf':
  'O' pseudopotential, 'PBE' functional
  Generated using ONCVPSP code by D. R. Hamann
  Author: Martin Schlipf and Francois Gygi  Date: 150915.
  6 valence electrons, 2 orbitals, 4 projectors, 936 radial grid points, with lMax = 1
  Transforming local potential to a uniform radial grid of dG=0.02 with 1412 points.
  Transforming nonlocal projectors to a uniform radial grid of dG=0.02 with 528 points.
    2S    l: 0   occupation:  2.0   eigenvalue: -0.880572
    2P    l: 1   occupation:  4.0   eigenvalue: -0.331869
  Transforming atomic orbitals to a uniform radial grid of dG=0.02 with 528 points.
  Core radius for overlap checks: 1.29 bohrs.
  Reading pulay file /data2/jt577/jdftx_eat_withLibXC/build/pseudopotentials/SG15/O_ONCV_PBE.pulay ... using dE_dnG = -8.209514e-03 computed for Ecut = 30.

Initialized 2 species with 33 total atoms.

Folded 1 k-points by 3x3x1 to 9 k-points.

---------- Setting up k-points, bands, fillings ----------
No reducable k-points. 
Computing the number of bands and number of electrons
Calculating initial fillings.
nElectrons: 390.000000   nBands: 228   nStates: 18

----- Setting up reduced wavefunction bases (one per k-point) -----
average nbasis = 41011.556 , ideal nbasis = 41017.814

---------- Setting up ewald sum ----------
Optimum gaussian width for ewald sums = 3.865657 bohr.
Real space sum over 605 unit cells with max indices [  5  5  2  ]
Reciprocal space sum over 5915 terms with max indices [  6  6  17  ]

---------- Allocating electronic variables ----------
Initializing wave functions:  linear combination of atomic orbitals
Ni (M=1) pseudo-atom majority spin occupations:   s ( 1 0.5 )  p ( 3 )  d ( 5 )
Ni (M=1) pseudo-atom minority spin occupations:   s ( 1 0 )  p ( 3 )  d ( 4.5 )
O pseudo-atom occupations:   s ( 2 )  p ( 4 )
	FillingsUpdate:  mu: +1.790796739  nElectrons: 390.000000  magneticMoment: [ Abs: 0.19692  Tot: +0.00000 ]
LCAOMinimize: Iter:   0  F: -2497.4225941749200501  |grad|_K:  2.455e-02  alpha:  1.000e+00
LCAOMinimize: 	Step increased F by 4.357416e+01, reducing alpha to 4.583307e-02.
LCAOMinimize: 	Step increased F by 7.696988e+00, reducing alpha to 4.583307e-03.
	FillingsUpdate:  mu: +1.618979637  nElectrons: 390.000000  magneticMoment: [ Abs: 0.20854  Tot: -0.00000 ]
LCAOMinimize: Iter:   1  F: -2500.9268243338797220  |grad|_K:  2.612e-02  alpha:  4.583e-03  linmin: -1.413e-01  cgtest:  7.864e-01  t[s]:     97.60
LCAOMinimize: 	Wrong curvature in test step, increasing alphaT to 1.374992e-02.
	FillingsUpdate:  mu: +1.259607092  nElectrons: 390.000000  magneticMoment: [ Abs: 0.22349  Tot: +0.00000 ]
LCAOMinimize: Iter:   2  F: -2505.5580708307070381  |grad|_K:  2.135e-02  alpha: -1.351e-02  linmin: -2.194e-01  cgtest:  9.100e-01  t[s]:    119.67
LCAOMinimize: Encountered beta<0, resetting CG.
LCAOMinimize: 	Step increased F by 3.910493e+01, reducing alpha to 4.507576e-02.
LCAOMinimize: 	Step increased F by 6.533598e+00, reducing alpha to 4.507576e-03.
	FillingsUpdate:  mu: +1.024756821  nElectrons: 390.000000  magneticMoment: [ Abs: 0.23138  Tot: +0.00000 ]
LCAOMinimize: Iter:   3  F: -2507.5418061937357379  |grad|_K:  2.037e-02  alpha:  4.508e-03  linmin: -1.928e-01  cgtest:  8.633e-01  t[s]:    174.34
LCAOMinimize: 	Wrong curvature in test step, increasing alphaT to 1.352273e-02.
	FillingsUpdate:  mu: +0.703127739  nElectrons: 390.000000  magneticMoment: [ Abs: 0.25671  Tot: +0.00000 ]
LCAOMinimize: Iter:   4  F: -2509.6254067685790687  |grad|_K:  1.748e-02  alpha: -3.278e-02  linmin: -1.887e-01  cgtest:  8.327e-01  t[s]:    193.72
LCAOMinimize: 	Step increased F by 4.070962e+01, reducing alpha to 4.246123e-02.
LCAOMinimize: 	Step increased F by 7.169905e-01, reducing alpha to 4.246123e-03.
	FillingsUpdate:  mu: +0.482575408  nElectrons: 390.000000  magneticMoment: [ Abs: 0.26561  Tot: +0.00000 ]
LCAOMinimize: Iter:   5  F: -2510.7280289128757431  |grad|_K:  1.307e-02  alpha:  4.246e-03  linmin: -1.960e-01  cgtest:  9.576e-01  t[s]:    243.79
LCAOMinimize: Encountered beta<0, resetting CG.
LCAOMinimize: 	Predicted alpha/alphaT>3.000000, increasing alphaT to 1.273837e-02.
	FillingsUpdate:  mu: -0.062135673  nElectrons: 390.000000  magneticMoment: [ Abs: 0.31887  Tot: +0.00000 ]
LCAOMinimize: Iter:   6  F: -2512.8901880731955316  |grad|_K:  6.904e-03  alpha:  2.821e-02  linmin:  6.343e-03  cgtest: -5.284e-01  t[s]:    269.98
	FillingsUpdate:  mu: -0.085371848  nElectrons: 390.000000  magneticMoment: [ Abs: 0.35304  Tot: -0.00000 ]
LCAOMinimize: Iter:   7  F: -2513.1334488408933794  |grad|_K:  5.950e-03  alpha:  8.575e-03  linmin: -5.779e-03  cgtest:  7.535e-01  t[s]:    290.03
	FillingsUpdate:  mu: -0.149022396  nElectrons: 390.000000  magneticMoment: [ Abs: 0.35523  Tot: +0.00000 ]
LCAOMinimize: Iter:   8  F: -2513.4813075230131290  |grad|_K:  1.584e-03  alpha:  1.911e-02  linmin: -3.365e-02  cgtest:  2.593e-01  t[s]:    310.51
	FillingsUpdate:  mu: -0.129924186  nElectrons: 390.000000  magneticMoment: [ Abs: 0.35635  Tot: +0.00000 ]
LCAOMinimize: Iter:   9  F: -2513.4957732411357938  |grad|_K:  8.408e-04  alpha:  1.216e-02  linmin:  2.823e-05  cgtest: -1.319e-02  t[s]:    331.18
LCAOMinimize: 	Predicted alpha/alphaT>3.000000, increasing alphaT to 3.646697e-02.
	FillingsUpdate:  mu: -0.108543577  nElectrons: 390.000000  magneticMoment: [ Abs: 0.37503  Tot: +0.00000 ]
LCAOMinimize: Iter:  10  F: -2513.5092012660816181  |grad|_K:  1.060e-03  alpha:  4.027e-02  linmin:  1.114e-05  cgtest: -6.378e-03  t[s]:    357.56
LCAOMinimize: 	Wrong curvature in test step, increasing alphaT to 1.208077e-01.
	FillingsUpdate:  mu: -0.106277287  nElectrons: 390.000000  magneticMoment: [ Abs: 0.45380  Tot: +0.00000 ]
LCAOMinimize: Iter:  11  F: -2513.5549971270143033  |grad|_K:  1.163e-03  alpha: -2.755e-01  linmin: -6.372e-03  cgtest:  8.801e-01  t[s]:    376.64
	FillingsUpdate:  mu: -0.128369378  nElectrons: 390.000000  magneticMoment: [ Abs: 0.51663  Tot: +0.00000 ]
LCAOMinimize: Iter:  12  F: -2513.5667834517976189  |grad|_K:  2.539e-03  alpha:  3.433e-02  linmin:  4.273e-03  cgtest: -4.213e-01  t[s]:    396.76
LCAOMinimize: 	Bad step direction: g.d > 0.
LCAOMinimize: 	Undoing step.
LCAOMinimize: 	Step failed: resetting search direction.
	FillingsUpdate:  mu: -0.128369378  nElectrons: 390.000000  magneticMoment: [ Abs: 0.51663  Tot: +0.00000 ]
LCAOMinimize: Iter:  13  F: -2513.5667834517976189  |grad|_K:  2.539e-03  alpha:  0.000e+00
	FillingsUpdate:  mu: -0.129177307  nElectrons: 390.000000  magneticMoment: [ Abs: 0.51286  Tot: -0.00000 ]
LCAOMinimize: Iter:  14  F: -2513.5873072991944355  |grad|_K:  1.285e-03  alpha:  9.657e-03  linmin:  1.771e-02  cgtest: -5.411e-01  t[s]:    431.35
	FillingsUpdate:  mu: -0.104029877  nElectrons: 390.000000  magneticMoment: [ Abs: 0.52941  Tot: +0.00000 ]
LCAOMinimize: Iter:  15  F: -2513.5940424774112216  |grad|_K:  1.404e-03  alpha:  1.644e-02  linmin: -4.011e-05  cgtest:  7.755e-01  t[s]:    451.69
	FillingsUpdate:  mu: -0.111195831  nElectrons: 390.000000  magneticMoment: [ Abs: 0.55168  Tot: +0.00000 ]
LCAOMinimize: Iter:  16  F: -2513.6040813311255988  |grad|_K:  9.239e-04  alpha:  1.024e-02  linmin: -2.686e-04  cgtest: -4.824e-02  t[s]:    471.98
LCAOMinimize: 	Predicted alpha/alphaT>3.000000, increasing alphaT to 3.070600e-02.
	FillingsUpdate:  mu: -0.135571910  nElectrons: 390.000000  magneticMoment: [ Abs: 0.63555  Tot: +0.00000 ]
LCAOMinimize: Iter:  17  F: -2513.6209759859802944  |grad|_K:  1.651e-03  alpha:  4.506e-02  linmin:  1.195e-03  cgtest:  2.806e-02  t[s]:    498.14
	FillingsUpdate:  mu: -0.135797137  nElectrons: 390.000000  magneticMoment: [ Abs: 0.77279  Tot: +0.00000 ]
LCAOMinimize: Iter:  18  F: -2513.6430208086153471  |grad|_K:  2.582e-03  alpha:  2.733e-02  linmin:  4.144e-05  cgtest:  6.139e-01  t[s]:    518.58
	FillingsUpdate:  mu: -0.090590990  nElectrons: 390.000000  magneticMoment: [ Abs: 1.03595  Tot: +0.00000 ]
LCAOMinimize: Iter:  19  F: -2513.7159830533000786  |grad|_K:  9.606e-04  alpha:  2.283e-02  linmin:  4.318e-04  cgtest: -7.333e-01  t[s]:    538.72
	FillingsUpdate:  mu: -0.082755615  nElectrons: 390.000000  magneticMoment: [ Abs: 1.13713  Tot: -0.00000 ]
LCAOMinimize: Iter:  20  F: -2513.7217108852728416  |grad|_K:  1.006e-03  alpha:  1.492e-02  linmin:  3.050e-06  cgtest:  1.498e-01  t[s]:    558.80
	FillingsUpdate:  mu: -0.099245566  nElectrons: 390.000000  magneticMoment: [ Abs: 1.49996  Tot: -0.00000 ]
LCAOMinimize: Iter:  21  F: -2513.7394568419108509  |grad|_K:  7.453e-04  alpha:  3.781e-02  linmin:  6.451e-04  cgtest: -4.636e-01  t[s]:    579.51
	FillingsUpdate:  mu: -0.099811004  nElectrons: 390.000000  magneticMoment: [ Abs: 1.71176  Tot: -0.00000 ]
LCAOMinimize: Iter:  22  F: -2513.7429106523200062  |grad|_K:  9.531e-04  alpha:  1.753e-02  linmin:  1.824e-04  cgtest:  6.586e-01  t[s]:    600.06
	FillingsUpdate:  mu: -0.082812292  nElectrons: 390.000000  magneticMoment: [ Abs: 1.96217  Tot: -0.00000 ]
LCAOMinimize: Iter:  23  F: -2513.7513444395945044  |grad|_K:  4.464e-04  alpha:  2.039e-02  linmin: -9.351e-05  cgtest: -2.065e-01  t[s]:    620.93
	FillingsUpdate:  mu: -0.077389378  nElectrons: 390.000000  magneticMoment: [ Abs: 2.08441  Tot: -0.00000 ]
LCAOMinimize: Iter:  24  F: -2513.7529697525351366  |grad|_K:  4.566e-04  alpha:  1.711e-02  linmin: -1.788e-05  cgtest: -1.397e-02  t[s]:    641.38
LCAOMinimize: 	Predicted alpha/alphaT>3.000000, increasing alphaT to 5.134112e-02.
	FillingsUpdate:  mu: -0.076481473  nElectrons: 390.000000  magneticMoment: [ Abs: 2.76035  Tot: -0.00000 ]
LCAOMinimize: Iter:  25  F: -2513.7596202225495290  |grad|_K:  6.000e-04  alpha:  6.662e-02  linmin: -1.763e-04  cgtest:  5.603e-01  t[s]:    667.58
	FillingsUpdate:  mu: -0.083267706  nElectrons: 390.000000  magneticMoment: [ Abs: 3.31149  Tot: -0.00000 ]
LCAOMinimize: Iter:  26  F: -2513.7669674366607069  |grad|_K:  9.545e-04  alpha:  4.550e-02  linmin: -7.344e-05  cgtest: -1.359e-01  t[s]:    687.85
	FillingsUpdate:  mu: -0.084267918  nElectrons: 390.000000  magneticMoment: [ Abs: 3.91914  Tot: -0.00000 ]
LCAOMinimize: Iter:  27  F: -2513.7756286439389442  |grad|_K:  6.716e-04  alpha:  1.998e-02  linmin:  1.533e-05  cgtest: -6.971e-02  t[s]:    708.07
	FillingsUpdate:  mu: -0.067839446  nElectrons: 390.000000  magneticMoment: [ Abs: 4.62957  Tot: +0.00000 ]
LCAOMinimize: Iter:  28  F: -2513.7841577977046654  |grad|_K:  6.949e-04  alpha:  4.021e-02  linmin:  5.254e-05  cgtest:  4.017e-01  t[s]:    728.41
	FillingsUpdate:  mu: -0.069052038  nElectrons: 390.000000  magneticMoment: [ Abs: 4.94398  Tot: -0.00000 ]
LCAOMinimize: Iter:  29  F: -2513.7890093166029146  |grad|_K:  7.583e-04  alpha:  2.281e-02  linmin:  2.428e-04  cgtest: -9.592e-02  t[s]:    748.81
	FillingsUpdate:  mu: -0.080907189  nElectrons: 390.000000  magneticMoment: [ Abs: 5.91086  Tot: -0.00000 ]
LCAOMinimize: Iter:  30  F: -2513.8023089368298315  |grad|_K:  5.921e-04  alpha:  4.875e-02  linmin: -1.523e-03  cgtest: -3.909e-02  t[s]:    769.17
LCAOMinimize: None of the convergence criteria satisfied after 30 iterations.


---- Citations for features of the code used in this run ----

   Software package:
      R. Sundararaman, K. Letchworth-Weaver, K.A. Schwarz, D. Gunceler, Y. Ozhabes and T.A. Arias, 'JDFTx: software for joint density-functional theory', SoftwareX 6, 278 (2017)

   Simplified rotationally-invariant DFT+U:
      S. L. Dudarev et al., Phys. Rev. B 57, 1505 (1998)

   LibXC library of exchange-correlation functions:
      M. A. L. Marques, M. J. T. Oliveira and T. Burnus, Comput. Phys. Commun. 183, 2272 (2012)

   Hammer, Hansen, and Norskov exchange functional:
      B. Hammer, L. B. Hansen, and J. K. Nørskov, Phys. Rev. B 59, 7413 (1999)

   Perdew, Burke & Ernzerhof correlation functional:
      J. P. Perdew, K. Burke, and M. Ernzerhof, Phys. Rev. Lett. 77, 3865 (1996)

   Pseudopotentials:
      M Schlipf and F Gygi, Comput. Phys. Commun. 196, 36 (2015)

   Total energy minimization with Auxiliary Hamiltonian:
      C. Freysoldt, S. Boeck, and J. Neugebauer, Phys. Rev. B 79, 241103(R) (2009)

This list may not be complete. Please suggest additional citations or
report any other bugs at https://github.com/shankar1729/jdftx/issues

Initialization completed successfully at t[s]:    775.72


-------- Electronic minimization -----------
	FillingsUpdate:  mu: -0.080907180  nElectrons: 390.000000  magneticMoment: [ Abs: 5.91086  Tot: -0.00000 ]
ElecMinimize: Iter:   0  F: -2513.802308936829377  |grad|_K:  1.681e-03  alpha:  1.000e+00
	FillingsUpdate:  mu: +1.106052096  nElectrons: 390.000000  magneticMoment: [ Abs: 7.69491  Tot: +0.00000 ]
	SubspaceRotationAdjust: set factor to 0.998
ElecMinimize: Iter:   1  F: -2635.424849403846565  |grad|_K:  2.174e-03  alpha:  4.773e-01  linmin:  4.834e-02  t[s]:    838.91
ElecMinimize: 	Step increased F by 2.529794e+01, reducing alpha to 1.836948e-02.
	FillingsUpdate:  mu: +0.872467206  nElectrons: 390.000000  magneticMoment: [ Abs: 7.66885  Tot: +0.00000 ]
	SubspaceRotationAdjust: set factor to 1.06
ElecMinimize: Iter:   2  F: -2643.251953741854777  |grad|_K:  1.319e-03  alpha:  1.837e-02  linmin: -2.898e-03  t[s]:    909.18
ElecMinimize: 	Predicted alpha/alphaT>3.000000, increasing alphaT to 5.510843e-02.
	FillingsUpdate:  mu: +0.846773060  nElectrons: 390.000000  magneticMoment: [ Abs: 5.99608  Tot: -0.00000 ]
	SubspaceRotationAdjust: set factor to 0.671
ElecMinimize: Iter:   3  F: -2683.171761727641297  |grad|_K:  1.856e-03  alpha:  1.100e-01  linmin:  5.612e-04  t[s]:    963.98
	FillingsUpdate:  mu: +1.072515286  nElectrons: 390.000000  magneticMoment: [ Abs: 7.59069  Tot: +0.00000 ]
	SubspaceRotationAdjust: set factor to 0.529
ElecMinimize: Iter:   4  F: -2698.234131638060717  |grad|_K:  1.170e-03  alpha:  3.807e-02  linmin:  7.203e-04  t[s]:   1006.23
	FillingsUpdate:  mu: +0.593429894  nElectrons: 390.000000  magneticMoment: [ Abs: 6.98715  Tot: +0.00000 ]
	SubspaceRotationAdjust: set factor to 0.399
ElecMinimize: Iter:   5  F: -2705.603131339604715  |grad|_K:  9.630e-04  alpha:  3.944e-02  linmin: -2.302e-05  t[s]:   1048.55
	FillingsUpdate:  mu: +0.369356609  nElectrons: 390.000000  magneticMoment: [ Abs: 3.21685  Tot: -0.00000 ]
	SubspaceRotationAdjust: set factor to 0.477
ElecMinimize: Iter:   6  F: -2718.543468421197758  |grad|_K:  6.480e-04  alpha:  8.647e-02  linmin:  4.739e-04  t[s]:   1090.79
	FillingsUpdate:  mu: +0.274618763  nElectrons: 390.000000  magneticMoment: [ Abs: 2.35134  Tot: +0.00000 ]
	SubspaceRotationAdjust: set factor to 0.427
ElecMinimize: Iter:   7  F: -2723.361123014822169  |grad|_K:  5.392e-04  alpha:  7.601e-02  linmin:  2.188e-04  t[s]:   1133.10
	FillingsUpdate:  mu: +0.151645641  nElectrons: 390.000000  magneticMoment: [ Abs: 1.99285  Tot: +0.00000 ]
	SubspaceRotationAdjust: set factor to 0.533
ElecMinimize: Iter:   8  F: -2727.220818624267849  |grad|_K:  3.992e-04  alpha:  8.321e-02  linmin: -4.837e-05  t[s]:   1176.04
	FillingsUpdate:  mu: +0.368918779  nElectrons: 390.000000  magneticMoment: [ Abs: 2.16609  Tot: +0.00000 ]
	SubspaceRotationAdjust: set factor to 0.409
ElecMinimize: Iter:   9  F: -2728.691730329141137  |grad|_K:  5.122e-04  alpha:  5.588e-02  linmin:  4.821e-04  t[s]:   1218.63
	FillingsUpdate:  mu: +0.280659153  nElectrons: 390.000000  magneticMoment: [ Abs: 2.41952  Tot: +0.00000 ]
	SubspaceRotationAdjust: set factor to 0.423
ElecMinimize: Iter:  10  F: -2730.159879168531461  |grad|_K:  3.652e-04  alpha:  3.920e-02  linmin: -1.869e-05  t[s]:   1261.33
	FillingsUpdate:  mu: +0.136470279  nElectrons: 390.000000  magneticMoment: [ Abs: 2.81546  Tot: +0.00000 ]
	SubspaceRotationAdjust: set factor to 0.366
ElecMinimize: Iter:  11  F: -2730.697784471327395  |grad|_K:  2.844e-04  alpha:  2.487e-02  linmin: -2.200e-05  t[s]:   1303.47
	FillingsUpdate:  mu: +0.382905486  nElectrons: 390.000000  magneticMoment: [ Abs: 3.47955  Tot: +0.00000 ]
	SubspaceRotationAdjust: set factor to 0.257
ElecMinimize: Iter:  12  F: -2731.470647334645491  |grad|_K:  3.871e-04  alpha:  6.561e-02  linmin:  4.254e-04  t[s]:   1346.11
	FillingsUpdate:  mu: +0.313794327  nElectrons: 390.000000  magneticMoment: [ Abs: 3.73681  Tot: +0.00000 ]
	SubspaceRotationAdjust: set factor to 0.286
ElecMinimize: Iter:  13  F: -2732.050670124120188  |grad|_K:  2.748e-04  alpha:  3.116e-02  linmin: -7.099e-06  t[s]:   1388.65
	FillingsUpdate:  mu: +0.199033459  nElectrons: 390.000000  magneticMoment: [ Abs: 3.69472  Tot: +0.00000 ]
	SubspaceRotationAdjust: set factor to 0.266
ElecMinimize: Iter:  14  F: -2732.466450787748272  |grad|_K:  2.223e-04  alpha:  3.258e-02  linmin:  6.122e-05  t[s]:   1430.94
	FillingsUpdate:  mu: +0.286197477  nElectrons: 390.000000  magneticMoment: [ Abs: 3.41496  Tot: -0.00000 ]
	SubspaceRotationAdjust: set factor to 0.204
ElecMinimize: Iter:  15  F: -2732.888086936834952  |grad|_K:  2.817e-04  alpha:  5.387e-02  linmin:  1.010e-04  t[s]:   1473.44
	FillingsUpdate:  mu: +0.213266145  nElectrons: 390.000000  magneticMoment: [ Abs: 3.06938  Tot: +0.00000 ]
	SubspaceRotationAdjust: set factor to 0.201
ElecMinimize: Iter:  16  F: -2733.304302430366079  |grad|_K:  2.239e-04  alpha:  3.284e-02  linmin:  3.875e-05  t[s]:   1516.22
	FillingsUpdate:  mu: +0.056084705  nElectrons: 390.000000  magneticMoment: [ Abs: 3.04365  Tot: -0.00000 ]
	SubspaceRotationAdjust: set factor to 0.234
ElecMinimize: Iter:  17  F: -2733.547050342560397  |grad|_K:  1.763e-04  alpha:  2.944e-02  linmin: -1.589e-05  t[s]:   1559.10
	FillingsUpdate:  mu: +0.191404914  nElectrons: 390.000000  magneticMoment: [ Abs: 3.20858  Tot: -0.00000 ]
	SubspaceRotationAdjust: set factor to 0.223
ElecMinimize: Iter:  18  F: -2733.846413733424924  |grad|_K:  2.014e-04  alpha:  5.427e-02  linmin: -1.119e-04  t[s]:   1601.73
	FillingsUpdate:  mu: +0.147702300  nElectrons: 390.000000  magneticMoment: [ Abs: 3.41908  Tot: -0.00000 ]
	SubspaceRotationAdjust: set factor to 0.293
ElecMinimize: Iter:  19  F: -2734.199990018217704  |grad|_K:  1.594e-04  alpha:  4.819e-02  linmin:  1.630e-05  t[s]:   1644.09
	FillingsUpdate:  mu: +0.130615576  nElectrons: 390.000000  magneticMoment: [ Abs: 3.45688  Tot: +0.00000 ]
	SubspaceRotationAdjust: set factor to 0.304
ElecMinimize: Iter:  20  F: -2734.366454831949341  |grad|_K:  1.355e-04  alpha:  3.969e-02  linmin: -2.251e-05  t[s]:   1686.50
	FillingsUpdate:  mu: +0.154204914  nElectrons: 390.000000  magneticMoment: [ Abs: 3.60796  Tot: +0.00000 ]
	SubspaceRotationAdjust: set factor to 0.295
ElecMinimize: Iter:  21  F: -2734.578732240023783  |grad|_K:  1.433e-04  alpha:  6.642e-02  linmin: -5.993e-05  t[s]:   1729.04
	FillingsUpdate:  mu: +0.078271024  nElectrons: 390.000000  magneticMoment: [ Abs: 3.91878  Tot: -0.00000 ]
	SubspaceRotationAdjust: set factor to 0.325
ElecMinimize: Iter:  22  F: -2734.726166602963076  |grad|_K:  1.048e-04  alpha:  4.005e-02  linmin: -2.295e-06  t[s]:   1771.90
	FillingsUpdate:  mu: +0.130473876  nElectrons: 390.000000  magneticMoment: [ Abs: 4.04255  Tot: -0.00000 ]
	SubspaceRotationAdjust: set factor to 0.278
ElecMinimize: Iter:  23  F: -2734.835143635372333  |grad|_K:  1.336e-04  alpha:  5.954e-02  linmin:  5.712e-05  t[s]:   1813.91
	FillingsUpdate:  mu: +0.079855428  nElectrons: 390.000000  magneticMoment: [ Abs: 3.86412  Tot: -0.00000 ]
	SubspaceRotationAdjust: set factor to 0.364
ElecMinimize: Iter:  24  F: -2734.961561770016033  |grad|_K:  1.055e-04  alpha:  4.279e-02  linmin:  8.989e-06  t[s]:   1856.20
	FillingsUpdate:  mu: +0.047387587  nElectrons: 390.000000  magneticMoment: [ Abs: 3.68873  Tot: -0.00000 ]
	SubspaceRotationAdjust: set factor to 0.376
ElecMinimize: Iter:  25  F: -2735.032085129153984  |grad|_K:  1.065e-04  alpha:  3.792e-02  linmin: -1.838e-05  t[s]:   1898.69
	FillingsUpdate:  mu: +0.075918260  nElectrons: 390.000000  magneticMoment: [ Abs: 3.82475  Tot: -0.00000 ]
	SubspaceRotationAdjust: set factor to 0.402
ElecMinimize: Iter:  26  F: -2735.149558737676671  |grad|_K:  1.081e-04  alpha:  6.025e-02  linmin: -1.972e-05  t[s]:   1940.96
	FillingsUpdate:  mu: +0.083939479  nElectrons: 390.000000  magneticMoment: [ Abs: 4.13824  Tot: +0.00000 ]
	SubspaceRotationAdjust: set factor to 0.363
ElecMinimize: Iter:  27  F: -2735.215062576178752  |grad|_K:  8.709e-05  alpha:  3.160e-02  linmin: -2.021e-05  t[s]:   1983.36
	FillingsUpdate:  mu: +0.153325854  nElectrons: 390.000000  magneticMoment: [ Abs: 4.50493  Tot: -0.00000 ]
	SubspaceRotationAdjust: set factor to 0.285
ElecMinimize: Iter:  28  F: -2735.296320214893512  |grad|_K:  1.227e-04  alpha:  6.732e-02  linmin:  2.298e-04  t[s]:   2026.18
	FillingsUpdate:  mu: +0.149303484  nElectrons: 390.000000  magneticMoment: [ Abs: 4.51893  Tot: +0.00000 ]
	SubspaceRotationAdjust: set factor to 0.256
ElecMinimize: Iter:  29  F: -2735.321653743859770  |grad|_K:  1.089e-04  alpha:  7.352e-03  linmin: -7.655e-04  t[s]:   2069.07
ElecMinimize: 	Predicted alpha/alphaT>3.000000, increasing alphaT to 2.205728e-02.
	FillingsUpdate:  mu: +0.092828168  nElectrons: 390.000000  magneticMoment: [ Abs: 4.37170  Tot: +0.00000 ]
	SubspaceRotationAdjust: set factor to 0.32
ElecMinimize: Iter:  30  F: -2735.390356063596755  |grad|_K:  7.155e-05  alpha:  2.250e-02  linmin:  3.046e-04  t[s]:   2123.59
	FillingsUpdate:  mu: +0.087166125  nElectrons: 390.000000  magneticMoment: [ Abs: 4.31349  Tot: -0.00000 ]
	SubspaceRotationAdjust: set factor to 0.361
ElecMinimize: Iter:  31  F: -2735.399248556666862  |grad|_K:  7.165e-05  alpha:  1.166e-02  linmin: -6.943e-05  t[s]:   2165.95
	FillingsUpdate:  mu: +0.083602320  nElectrons: 390.000000  magneticMoment: [ Abs: 4.26233  Tot: +0.00000 ]
	SubspaceRotationAdjust: set factor to 0.366
ElecMinimize: Iter:  32  F: -2735.411008261598454  |grad|_K:  7.745e-05  alpha:  1.314e-02  linmin:  9.973e-05  t[s]:   2208.57
	FillingsUpdate:  mu: +0.069022776  nElectrons: 390.000000  magneticMoment: [ Abs: 4.27309  Tot: -0.00000 ]
	SubspaceRotationAdjust: set factor to 0.318
ElecMinimize: Iter:  33  F: -2735.419982506266479  |grad|_K:  7.389e-05  alpha:  9.323e-03  linmin:  5.208e-07  t[s]:   2251.31
	FillingsUpdate:  mu: +0.056798926  nElectrons: 390.000000  magneticMoment: [ Abs: 4.33656  Tot: -0.00000 ]
	SubspaceRotationAdjust: set factor to 0.346
ElecMinimize: Iter:  34  F: -2735.427122429292922  |grad|_K:  5.713e-05  alpha:  7.711e-03  linmin:  1.602e-05  t[s]:   2294.08
	FillingsUpdate:  mu: +0.054476222  nElectrons: 390.000000  magneticMoment: [ Abs: 4.41119  Tot: +0.00000 ]
	SubspaceRotationAdjust: set factor to 0.418
ElecMinimize: Iter:  35  F: -2735.431457670152668  |grad|_K:  4.900e-05  alpha:  7.925e-03  linmin:  2.438e-06  t[s]:   2336.82
	FillingsUpdate:  mu: +0.059511102  nElectrons: 390.000000  magneticMoment: [ Abs: 4.49535  Tot: -0.00000 ]
	SubspaceRotationAdjust: set factor to 0.37
ElecMinimize: Iter:  36  F: -2735.435084233841280  |grad|_K:  5.029e-05  alpha:  8.942e-03  linmin: -2.837e-05  t[s]:   2379.07
	FillingsUpdate:  mu: +0.066463462  nElectrons: 390.000000  magneticMoment: [ Abs: 4.59404  Tot: +0.00000 ]
	SubspaceRotationAdjust: set factor to 0.275
ElecMinimize: Iter:  37  F: -2735.439254522611463  |grad|_K:  4.897e-05  alpha:  9.673e-03  linmin: -3.634e-05  t[s]:   2421.10
	FillingsUpdate:  mu: +0.064441561  nElectrons: 390.000000  magneticMoment: [ Abs: 4.67389  Tot: +0.00000 ]
	SubspaceRotationAdjust: set factor to 0.222
ElecMinimize: Iter:  38  F: -2735.443137541346459  |grad|_K:  3.859e-05  alpha:  9.503e-03  linmin: -6.574e-06  t[s]:   2463.74
	FillingsUpdate:  mu: +0.061573055  nElectrons: 390.000000  magneticMoment: [ Abs: 4.72062  Tot: -0.00000 ]
	SubspaceRotationAdjust: set factor to 0.224
ElecMinimize: Iter:  39  F: -2735.445821182736381  |grad|_K:  3.046e-05  alpha:  1.066e-02  linmin: -6.655e-06  t[s]:   2506.00
	FillingsUpdate:  mu: +0.062492042  nElectrons: 390.000000  magneticMoment: [ Abs: 4.75421  Tot: +0.00000 ]
	SubspaceRotationAdjust: set factor to 0.219
ElecMinimize: Iter:  40  F: -2735.447906625865016  |grad|_K:  2.893e-05  alpha:  1.329e-02  linmin: -1.234e-05  t[s]:   2548.55
	FillingsUpdate:  mu: +0.069291360  nElectrons: 390.000000  magneticMoment: [ Abs: 4.79528  Tot: -0.00000 ]
	SubspaceRotationAdjust: set factor to 0.174
ElecMinimize: Iter:  41  F: -2735.450144142775116  |grad|_K:  3.163e-05  alpha:  1.580e-02  linmin: -1.251e-05  t[s]:   2590.92
	FillingsUpdate:  mu: +0.070197537  nElectrons: 390.000000  magneticMoment: [ Abs: 4.86327  Tot: +0.00000 ]
	SubspaceRotationAdjust: set factor to 0.134
	SubspaceRotationAdjust: resetting CG because factor has changed by 0.134085
ElecMinimize: 	State modified externally: resetting search direction.
ElecMinimize: Iter:  42  F: -2735.453047387620700  |grad|_K:  3.035e-05  alpha:  1.716e-02
ElecMinimize: 	Predicted alpha/alphaT>3.000000, increasing alphaT to 5.147694e-02.
	FillingsUpdate:  mu: +0.067177572  nElectrons: 390.000000  magneticMoment: [ Abs: 4.95833  Tot: -0.00000 ]
	SubspaceRotationAdjust: set factor to 0.08
ElecMinimize: Iter:  43  F: -2735.472346443720653  |grad|_K:  2.823e-05  alpha:  1.244e-01  linmin:  2.930e-04  t[s]:   2706.93
	FillingsUpdate:  mu: +0.051224823  nElectrons: 390.000000  magneticMoment: [ Abs: 4.98269  Tot: -0.00000 ]
	SubspaceRotationAdjust: set factor to 0.0783
ElecMinimize: Iter:  44  F: -2735.500477139107261  |grad|_K:  2.495e-05  alpha:  2.133e-01  linmin:  1.080e-03  t[s]:   2749.59
	FillingsUpdate:  mu: +0.068687609  nElectrons: 390.000000  magneticMoment: [ Abs: 5.51075  Tot: +0.00000 ]
	SubspaceRotationAdjust: set factor to 0.0928
ElecMinimize: Iter:  45  F: -2735.564416754117246  |grad|_K:  2.728e-05  alpha:  6.156e-01  linmin: -8.262e-04  t[s]:   2792.22
	FillingsUpdate:  mu: +0.074709787  nElectrons: 390.000000  magneticMoment: [ Abs: 5.94076  Tot: -0.00000 ]
	SubspaceRotationAdjust: set factor to 0.0685
ElecMinimize: Iter:  46  F: -2735.601792106488574  |grad|_K:  2.747e-05  alpha:  2.917e-01  linmin:  2.167e-04  t[s]:   2834.33
	FillingsUpdate:  mu: +0.057859541  nElectrons: 390.000000  magneticMoment: [ Abs: 6.13070  Tot: +0.00000 ]
	SubspaceRotationAdjust: set factor to 0.0472
ElecMinimize: Iter:  47  F: -2735.624270594848895  |grad|_K:  1.999e-05  alpha:  1.771e-01  linmin:  4.267e-05  t[s]:   2876.80
	FillingsUpdate:  mu: +0.058464788  nElectrons: 390.000000  magneticMoment: [ Abs: 6.56971  Tot: -0.00000 ]
	SubspaceRotationAdjust: set factor to 0.0578
ElecMinimize: Iter:  48  F: -2735.651298906203010  |grad|_K:  1.987e-05  alpha:  4.004e-01  linmin: -8.270e-05  t[s]:   2918.90
	FillingsUpdate:  mu: +0.066479703  nElectrons: 390.000000  magneticMoment: [ Abs: 7.00818  Tot: +0.00000 ]
	SubspaceRotationAdjust: set factor to 0.0525
ElecMinimize: Iter:  49  F: -2735.672308535359207  |grad|_K:  1.650e-05  alpha:  3.139e-01  linmin: -4.076e-05  t[s]:   2961.68
	FillingsUpdate:  mu: +0.063475333  nElectrons: 390.000000  magneticMoment: [ Abs: 7.31239  Tot: -0.00000 ]
	SubspaceRotationAdjust: set factor to 0.046
ElecMinimize: Iter:  50  F: -2735.686349828338734  |grad|_K:  1.416e-05  alpha:  3.051e-01  linmin: -1.337e-04  t[s]:   3004.27
	FillingsUpdate:  mu: +0.063699541  nElectrons: 390.000000  magneticMoment: [ Abs: 7.76103  Tot: -0.00000 ]
	SubspaceRotationAdjust: set factor to 0.0498
ElecMinimize: Iter:  51  F: -2735.701154525517268  |grad|_K:  1.435e-05  alpha:  4.345e-01  linmin: -6.898e-05  t[s]:   3046.54
	FillingsUpdate:  mu: +0.060253832  nElectrons: 390.000000  magneticMoment: [ Abs: 8.14507  Tot: -0.00000 ]
	SubspaceRotationAdjust: set factor to 0.0516
ElecMinimize: Iter:  52  F: -2735.711745483432423  |grad|_K:  1.120e-05  alpha:  3.038e-01  linmin: -2.314e-05  t[s]:   3088.67
	FillingsUpdate:  mu: +0.061245350  nElectrons: 390.000000  magneticMoment: [ Abs: 8.45600  Tot: -0.00000 ]
	SubspaceRotationAdjust: set factor to 0.0508
ElecMinimize: Iter:  53  F: -2735.718858972506951  |grad|_K:  9.948e-06  alpha:  3.359e-01  linmin:  7.434e-05  t[s]:   3130.55
	FillingsUpdate:  mu: +0.062893417  nElectrons: 390.000000  magneticMoment: [ Abs: 8.85824  Tot: +0.00000 ]
	SubspaceRotationAdjust: set factor to 0.0551
ElecMinimize: Iter:  54  F: -2735.725281274121244  |grad|_K:  9.721e-06  alpha:  3.856e-01  linmin:  5.580e-06  t[s]:   3172.86
	FillingsUpdate:  mu: +0.062370098  nElectrons: 390.000000  magneticMoment: [ Abs: 9.35030  Tot: -0.00000 ]
	SubspaceRotationAdjust: set factor to 0.0606
ElecMinimize: Iter:  55  F: -2735.731606623635344  |grad|_K:  9.753e-06  alpha:  3.967e-01  linmin:  4.248e-05  t[s]:   3215.73
	FillingsUpdate:  mu: +0.062240400  nElectrons: 390.000000  magneticMoment: [ Abs: 9.88063  Tot: -0.00000 ]
	SubspaceRotationAdjust: set factor to 0.0615
ElecMinimize: Iter:  56  F: -2735.737414996756343  |grad|_K:  9.910e-06  alpha:  3.620e-01  linmin:  1.750e-04  t[s]:   3258.38
	FillingsUpdate:  mu: +0.062627433  nElectrons: 390.000000  magneticMoment: [ Abs: 10.60174  Tot: +0.00000 ]
	SubspaceRotationAdjust: set factor to 0.062
ElecMinimize: Iter:  57  F: -2735.743815710965464  |grad|_K:  1.038e-05  alpha:  3.893e-01  linmin:  1.112e-05  t[s]:   3301.26
	FillingsUpdate:  mu: +0.066855627  nElectrons: 390.000000  magneticMoment: [ Abs: 11.53719  Tot: -0.00000 ]
	SubspaceRotationAdjust: set factor to 0.0678
ElecMinimize: Iter:  58  F: -2735.751479622651004  |grad|_K:  1.096e-05  alpha:  4.220e-01  linmin:  1.094e-04  t[s]:   3344.15
	FillingsUpdate:  mu: +0.066272860  nElectrons: 390.000000  magneticMoment: [ Abs: 12.62260  Tot: +0.00000 ]
	SubspaceRotationAdjust: set factor to 0.0735
ElecMinimize: Iter:  59  F: -2735.759773353955552  |grad|_K:  1.271e-05  alpha:  4.119e-01  linmin:  6.997e-05  t[s]:   3386.50
	FillingsUpdate:  mu: +0.064703404  nElectrons: 390.000000  magneticMoment: [ Abs: 14.04188  Tot: -0.00000 ]
	SubspaceRotationAdjust: set factor to 0.0745
ElecMinimize: Iter:  60  F: -2735.770473072694131  |grad|_K:  1.325e-05  alpha:  3.951e-01  linmin: -2.480e-04  t[s]:   3428.92
	FillingsUpdate:  mu: +0.065840755  nElectrons: 390.000000  magneticMoment: [ Abs: 15.44492  Tot: +0.00000 ]
	SubspaceRotationAdjust: set factor to 0.0737
ElecMinimize: Iter:  61  F: -2735.781857825043971  |grad|_K:  1.476e-05  alpha:  3.756e-01  linmin:  1.475e-04  t[s]:   3471.10
	FillingsUpdate:  mu: +0.067939718  nElectrons: 390.000000  magneticMoment: [ Abs: 17.03639  Tot: +0.00000 ]
	SubspaceRotationAdjust: set factor to 0.0821
ElecMinimize: Iter:  62  F: -2735.795084083406891  |grad|_K:  1.465e-05  alpha:  3.648e-01  linmin: -1.826e-04  t[s]:   3513.13
	FillingsUpdate:  mu: +0.064283609  nElectrons: 390.000000  magneticMoment: [ Abs: 18.35220  Tot: -0.00000 ]
	SubspaceRotationAdjust: set factor to 0.0904
ElecMinimize: Iter:  63  F: -2735.807663731781759  |grad|_K:  1.442e-05  alpha:  3.409e-01  linmin: -1.081e-04  t[s]:   3555.28
	FillingsUpdate:  mu: +0.068669155  nElectrons: 390.000000  magneticMoment: [ Abs: 19.37166  Tot: +0.00000 ]
	SubspaceRotationAdjust: set factor to 0.097
ElecMinimize: Iter:  64  F: -2735.818306265524825  |grad|_K:  1.299e-05  alpha:  3.006e-01  linmin: -2.084e-04  t[s]:   3597.35
	FillingsUpdate:  mu: +0.067652290  nElectrons: 390.000000  magneticMoment: [ Abs: 20.24964  Tot: +0.00000 ]
	SubspaceRotationAdjust: set factor to 0.112
ElecMinimize: Iter:  65  F: -2735.827854040426701  |grad|_K:  1.307e-05  alpha:  3.302e-01  linmin: -2.172e-04  t[s]:   3639.66
	FillingsUpdate:  mu: +0.066909039  nElectrons: 390.000000  magneticMoment: [ Abs: 21.16448  Tot: +0.00000 ]
	SubspaceRotationAdjust: set factor to 0.136
ElecMinimize: Iter:  66  F: -2735.838180777317575  |grad|_K:  1.320e-05  alpha:  3.526e-01  linmin: -1.961e-04  t[s]:   3682.53
	FillingsUpdate:  mu: +0.072057949  nElectrons: 390.000000  magneticMoment: [ Abs: 22.05046  Tot: -0.00000 ]
	SubspaceRotationAdjust: set factor to 0.157
ElecMinimize: Iter:  67  F: -2735.848616902697813  |grad|_K:  1.451e-05  alpha:  3.500e-01  linmin: -2.768e-04  t[s]:   3725.21
	FillingsUpdate:  mu: +0.063978054  nElectrons: 390.000000  magneticMoment: [ Abs: 22.86420  Tot: +0.00000 ]
	SubspaceRotationAdjust: set factor to 0.165
ElecMinimize: Iter:  68  F: -2735.858905981142016  |grad|_K:  1.530e-05  alpha:  2.852e-01  linmin: -2.427e-04  t[s]:   3767.28
	FillingsUpdate:  mu: +0.071894192  nElectrons: 390.000000  magneticMoment: [ Abs: 23.63220  Tot: +0.00000 ]
	SubspaceRotationAdjust: set factor to 0.177
ElecMinimize: Iter:  69  F: -2735.869535820149395  |grad|_K:  1.467e-05  alpha:  2.647e-01  linmin: -3.264e-04  t[s]:   3809.56
	FillingsUpdate:  mu: +0.071351873  nElectrons: 390.000000  magneticMoment: [ Abs: 24.27751  Tot: +0.00000 ]
	SubspaceRotationAdjust: set factor to 0.213
ElecMinimize: Iter:  70  F: -2735.879915941933632  |grad|_K:  1.342e-05  alpha:  2.771e-01  linmin: -1.930e-04  t[s]:   3852.11
	FillingsUpdate:  mu: +0.065480184  nElectrons: 390.000000  magneticMoment: [ Abs: 24.79155  Tot: +0.00000 ]
	SubspaceRotationAdjust: set factor to 0.249
ElecMinimize: Iter:  71  F: -2735.889602217724132  |grad|_K:  1.380e-05  alpha:  3.121e-01  linmin: -1.106e-04  t[s]:   3894.18
	FillingsUpdate:  mu: +0.073533658  nElectrons: 390.000000  magneticMoment: [ Abs: 25.15838  Tot: +0.00000 ]
	SubspaceRotationAdjust: set factor to 0.271
ElecMinimize: Iter:  72  F: -2735.897687716930250  |grad|_K:  1.353e-05  alpha:  2.552e-01  linmin: -3.000e-04  t[s]:   3936.68
	FillingsUpdate:  mu: +0.063632469  nElectrons: 390.000000  magneticMoment: [ Abs: 25.39601  Tot: +0.00000 ]
	SubspaceRotationAdjust: set factor to 0.289
ElecMinimize: Iter:  73  F: -2735.904955847536712  |grad|_K:  1.206e-05  alpha:  2.280e-01  linmin: -1.131e-04  t[s]:   3978.87
	FillingsUpdate:  mu: +0.066896366  nElectrons: 390.000000  magneticMoment: [ Abs: 25.53454  Tot: +0.00000 ]
	SubspaceRotationAdjust: set factor to 0.362
ElecMinimize: Iter:  74  F: -2735.911383715171723  |grad|_K:  1.070e-05  alpha:  2.567e-01  linmin: -1.790e-04  t[s]:   4021.26
	FillingsUpdate:  mu: +0.078315271  nElectrons: 390.000000  magneticMoment: [ Abs: 25.55002  Tot: -0.00000 ]
	SubspaceRotationAdjust: set factor to 0.314
ElecMinimize: Iter:  75  F: -2735.915441899981943  |grad|_K:  1.194e-05  alpha:  1.900e-01  linmin:  6.083e-04  t[s]:   4063.92
	FillingsUpdate:  mu: +0.079737412  nElectrons: 390.000000  magneticMoment: [ Abs: 25.51229  Tot: -0.00000 ]
	SubspaceRotationAdjust: set factor to 0.359
ElecMinimize: Iter:  76  F: -2735.918239876232747  |grad|_K:  1.146e-05  alpha:  1.353e-01  linmin: -1.536e-04  t[s]:   4105.98
	FillingsUpdate:  mu: +0.066647099  nElectrons: 390.000000  magneticMoment: [ Abs: 25.41552  Tot: -0.00000 ]
	SubspaceRotationAdjust: set factor to 0.379
ElecMinimize: Iter:  77  F: -2735.921915954961605  |grad|_K:  9.405e-06  alpha:  1.648e-01  linmin:  5.023e-04  t[s]:   4148.40
	FillingsUpdate:  mu: +0.065693368  nElectrons: 390.000000  magneticMoment: [ Abs: 25.31095  Tot: -0.00000 ]
	SubspaceRotationAdjust: set factor to 0.324
ElecMinimize: Iter:  78  F: -2735.923951110530197  |grad|_K:  1.046e-05  alpha:  1.494e-01  linmin:  5.321e-05  t[s]:   4190.69
	FillingsUpdate:  mu: +0.066287502  nElectrons: 390.000000  magneticMoment: [ Abs: 25.17819  Tot: -0.00000 ]
	SubspaceRotationAdjust: set factor to 0.467
ElecMinimize: Iter:  79  F: -2735.925983021137199  |grad|_K:  9.052e-06  alpha:  1.112e-01  linmin: -6.890e-05  t[s]:   4233.04
	FillingsUpdate:  mu: +0.065566284  nElectrons: 390.000000  magneticMoment: [ Abs: 25.02182  Tot: -0.00000 ]
	SubspaceRotationAdjust: set factor to 0.52
ElecMinimize: Iter:  80  F: -2735.927859774152239  |grad|_K:  8.922e-06  alpha:  1.324e-01  linmin: -3.195e-04  t[s]:   4275.42
	FillingsUpdate:  mu: +0.067531216  nElectrons: 390.000000  magneticMoment: [ Abs: 24.83157  Tot: +0.00000 ]
	SubspaceRotationAdjust: set factor to 0.714
ElecMinimize: Iter:  81  F: -2735.929833805949329  |grad|_K:  8.045e-06  alpha:  1.395e-01  linmin: -5.955e-05  t[s]:   4317.52
	FillingsUpdate:  mu: +0.076037536  nElectrons: 390.000000  magneticMoment: [ Abs: 24.63428  Tot: -0.00000 ]
	SubspaceRotationAdjust: set factor to 0.826
ElecMinimize: Iter:  82  F: -2735.931428290928579  |grad|_K:  8.830e-06  alpha:  1.447e-01  linmin:  9.615e-05  t[s]:   4359.93
	FillingsUpdate:  mu: +0.078244560  nElectrons: 390.000000  magneticMoment: [ Abs: 24.40400  Tot: -0.00000 ]
	SubspaceRotationAdjust: set factor to 0.903
ElecMinimize: Iter:  83  F: -2735.932947821630478  |grad|_K:  8.537e-06  alpha:  1.175e-01  linmin:  8.147e-06  t[s]:   4401.85
	FillingsUpdate:  mu: +0.070588047  nElectrons: 390.000000  magneticMoment: [ Abs: 24.21601  Tot: +0.00000 ]
	SubspaceRotationAdjust: set factor to 1.23
	SubspaceRotationAdjust: resetting CG because factor has changed by 9.17974
ElecMinimize: 	State modified externally: resetting search direction.
ElecMinimize: Iter:  84  F: -2735.934083825678044  |grad|_K:  7.555e-06  alpha:  9.426e-02
	FillingsUpdate:  mu: +0.064885155  nElectrons: 390.000000  magneticMoment: [ Abs: 24.22914  Tot: -0.00000 ]
	SubspaceRotationAdjust: set factor to 1.01
ElecMinimize: Iter:  85  F: -2735.936231385693645  |grad|_K:  6.030e-06  alpha:  2.206e-01  linmin: -2.493e-04  t[s]:   4506.45
	FillingsUpdate:  mu: +0.075002032  nElectrons: 390.000000  magneticMoment: [ Abs: 24.21443  Tot: +0.00000 ]
	SubspaceRotationAdjust: set factor to 0.711
ElecMinimize: Iter:  86  F: -2735.937738533036736  |grad|_K:  5.731e-06  alpha:  2.457e-01  linmin:  7.690e-04  t[s]:   4549.46
	FillingsUpdate:  mu: +0.066842523  nElectrons: 390.000000  magneticMoment: [ Abs: 24.18950  Tot: +0.00000 ]
	SubspaceRotationAdjust: set factor to 0.815
ElecMinimize: Iter:  87  F: -2735.938764442146294  |grad|_K:  3.531e-06  alpha:  2.098e-01  linmin:  9.292e-06  t[s]:   4592.15
	FillingsUpdate:  mu: +0.065318838  nElectrons: 390.000000  magneticMoment: [ Abs: 24.18155  Tot: -0.00000 ]
	SubspaceRotationAdjust: set factor to 0.803
ElecMinimize: Iter:  88  F: -2735.939187977911388  |grad|_K:  2.273e-06  alpha:  2.016e-01  linmin: -1.857e-05  t[s]:   4634.73
	FillingsUpdate:  mu: +0.070366938  nElectrons: 390.000000  magneticMoment: [ Abs: 24.17776  Tot: +0.00000 ]
	SubspaceRotationAdjust: set factor to 0.632
ElecMinimize: Iter:  89  F: -2735.939373957654880  |grad|_K:  2.258e-06  alpha:  2.139e-01  linmin:  7.875e-04  t[s]:   4677.18
	FillingsUpdate:  mu: +0.067332505  nElectrons: 390.000000  magneticMoment: [ Abs: 24.16742  Tot: +0.00000 ]
	SubspaceRotationAdjust: set factor to 0.656
ElecMinimize: Iter:  90  F: -2735.939544132008905  |grad|_K:  1.642e-06  alpha:  2.068e-01  linmin:  2.278e-04  t[s]:   4719.81
	FillingsUpdate:  mu: +0.065099978  nElectrons: 390.000000  magneticMoment: [ Abs: 24.15808  Tot: -0.00000 ]
	SubspaceRotationAdjust: set factor to 0.681
ElecMinimize: Iter:  91  F: -2735.939665377315123  |grad|_K:  1.531e-06  alpha:  2.696e-01  linmin:  2.958e-05  t[s]:   4762.76
	FillingsUpdate:  mu: +0.067217712  nElectrons: 390.000000  magneticMoment: [ Abs: 24.15324  Tot: -0.00000 ]
	SubspaceRotationAdjust: set factor to 0.578
ElecMinimize: Iter:  92  F: -2735.939746848561299  |grad|_K:  1.270e-06  alpha:  2.048e-01  linmin:  6.424e-05  t[s]:   4805.54
	FillingsUpdate:  mu: +0.067692787  nElectrons: 390.000000  magneticMoment: [ Abs: 24.14901  Tot: +0.00000 ]
	SubspaceRotationAdjust: set factor to 0.669
ElecMinimize: Iter:  93  F: -2735.939807871035555  |grad|_K:  9.637e-07  alpha:  2.251e-01  linmin: -4.325e-05  t[s]:   4848.22
	FillingsUpdate:  mu: +0.066431059  nElectrons: 390.000000  magneticMoment: [ Abs: 24.14699  Tot: +0.00000 ]
	SubspaceRotationAdjust: set factor to 0.686
ElecMinimize: Iter:  94  F: -2735.939843836007640  |grad|_K:  7.726e-07  alpha:  2.286e-01  linmin: -2.712e-05  t[s]:   4890.54
	FillingsUpdate:  mu: +0.067096278  nElectrons: 390.000000  magneticMoment: [ Abs: 24.14769  Tot: +0.00000 ]
	SubspaceRotationAdjust: set factor to 0.641
ElecMinimize: Iter:  95  F: -2735.939864336486607  |grad|_K:  6.675e-07  alpha:  2.028e-01  linmin:  3.219e-05  t[s]:   4933.45
	FillingsUpdate:  mu: +0.067544420  nElectrons: 390.000000  magneticMoment: [ Abs: 24.14927  Tot: -0.00000 ]
	SubspaceRotationAdjust: set factor to 0.818
ElecMinimize: Iter:  96  F: -2735.939886167832810  |grad|_K:  6.688e-07  alpha:  2.907e-01  linmin: -3.310e-05  t[s]:   4976.39
	FillingsUpdate:  mu: +0.066956118  nElectrons: 390.000000  magneticMoment: [ Abs: 24.15108  Tot: -0.00000 ]
	SubspaceRotationAdjust: set factor to 0.836
ElecMinimize: Iter:  97  F: -2735.939907550219232  |grad|_K:  6.711e-07  alpha:  2.820e-01  linmin: -1.105e-04  t[s]:   5019.50
	FillingsUpdate:  mu: +0.067724887  nElectrons: 390.000000  magneticMoment: [ Abs: 24.15327  Tot: +0.00000 ]
	SubspaceRotationAdjust: set factor to 0.836
ElecMinimize: Iter:  98  F: -2735.939925494538329  |grad|_K:  6.043e-07  alpha:  2.300e-01  linmin:  1.935e-05  t[s]:   5062.23
	FillingsUpdate:  mu: +0.067879814  nElectrons: 390.000000  magneticMoment: [ Abs: 24.15482  Tot: +0.00000 ]
	SubspaceRotationAdjust: set factor to 1.13
ElecMinimize: Iter:  99  F: -2735.939940607820972  |grad|_K:  4.878e-07  alpha:  2.459e-01  linmin: -7.432e-05  t[s]:   5105.22
	FillingsUpdate:  mu: +0.067608391  nElectrons: 390.000000  magneticMoment: [ Abs: 24.15562  Tot: +0.00000 ]
	SubspaceRotationAdjust: set factor to 1.07
ElecMinimize: Iter: 100  F: -2735.939949451335451  |grad|_K:  4.188e-07  alpha:  2.160e-01  linmin: -1.925e-05  t[s]:   5147.55
	FillingsUpdate:  mu: +0.068079306  nElectrons: 390.000000  magneticMoment: [ Abs: 24.15585  Tot: +0.00000 ]
	SubspaceRotationAdjust: set factor to 1.09
ElecMinimize: Iter: 101  F: -2735.939955338497839  |grad|_K:  3.359e-07  alpha:  1.982e-01  linmin: -2.658e-05  t[s]:   5189.66
	FillingsUpdate:  mu: +0.067716731  nElectrons: 390.000000  magneticMoment: [ Abs: 24.15546  Tot: +0.00000 ]
	SubspaceRotationAdjust: set factor to 1.03
ElecMinimize: Iter: 102  F: -2735.939959639918015  |grad|_K:  3.202e-07  alpha:  2.241e-01  linmin:  5.049e-06  t[s]:   5232.44
	FillingsUpdate:  mu: +0.068051740  nElectrons: 390.000000  magneticMoment: [ Abs: 24.15505  Tot: +0.00000 ]
	SubspaceRotationAdjust: set factor to 0.892
ElecMinimize: Iter: 103  F: -2735.939962773830757  |grad|_K:  2.665e-07  alpha:  1.811e-01  linmin:  4.769e-06  t[s]:   5275.34
	FillingsUpdate:  mu: +0.067818303  nElectrons: 390.000000  magneticMoment: [ Abs: 24.15413  Tot: +0.00000 ]
	SubspaceRotationAdjust: set factor to 1.09
ElecMinimize: Iter: 104  F: -2735.939966033847668  |grad|_K:  2.385e-07  alpha:  2.727e-01  linmin:  6.375e-06  t[s]:   5317.91
	FillingsUpdate:  mu: +0.067848687  nElectrons: 390.000000  magneticMoment: [ Abs: 24.15357  Tot: +0.00000 ]
	SubspaceRotationAdjust: set factor to 1.12
ElecMinimize: Iter: 105  F: -2735.939968752648838  |grad|_K:  2.422e-07  alpha:  2.839e-01  linmin: -3.923e-06  t[s]:   5360.27
	FillingsUpdate:  mu: +0.068048266  nElectrons: 390.000000  magneticMoment: [ Abs: 24.15337  Tot: +0.00000 ]
	SubspaceRotationAdjust: set factor to 1.19
ElecMinimize: Iter: 106  F: -2735.939971343859270  |grad|_K:  2.528e-07  alpha:  2.614e-01  linmin: -8.968e-07  t[s]:   5403.03
	FillingsUpdate:  mu: +0.067620838  nElectrons: 390.000000  magneticMoment: [ Abs: 24.15272  Tot: -0.00000 ]
	SubspaceRotationAdjust: set factor to 1.15
ElecMinimize: Iter: 107  F: -2735.939974114700362  |grad|_K:  2.774e-07  alpha:  2.568e-01  linmin:  2.713e-06  t[s]:   5445.78
	FillingsUpdate:  mu: +0.067953918  nElectrons: 390.000000  magneticMoment: [ Abs: 24.15266  Tot: +0.00000 ]
	SubspaceRotationAdjust: set factor to 0.973
ElecMinimize: Iter: 108  F: -2735.939976196752013  |grad|_K:  2.414e-07  alpha:  1.607e-01  linmin: -2.111e-06  t[s]:   5488.55
	FillingsUpdate:  mu: +0.067785459  nElectrons: 390.000000  magneticMoment: [ Abs: 24.15352  Tot: +0.00000 ]
	SubspaceRotationAdjust: set factor to 1.09
ElecMinimize: Iter: 109  F: -2735.939978912447259  |grad|_K:  2.197e-07  alpha:  2.764e-01  linmin:  7.382e-06  t[s]:   5531.15
	FillingsUpdate:  mu: +0.067624103  nElectrons: 390.000000  magneticMoment: [ Abs: 24.15429  Tot: +0.00000 ]
	SubspaceRotationAdjust: set factor to 1.19
ElecMinimize: Iter: 110  F: -2735.939981659140358  |grad|_K:  2.594e-07  alpha:  3.389e-01  linmin:  1.307e-05  t[s]:   5573.48
	FillingsUpdate:  mu: +0.067848874  nElectrons: 390.000000  magneticMoment: [ Abs: 24.15498  Tot: +0.00000 ]
	SubspaceRotationAdjust: set factor to 1.12
ElecMinimize: Iter: 111  F: -2735.939984523940439  |grad|_K:  3.068e-07  alpha:  2.544e-01  linmin: -1.972e-06  t[s]:   5616.43
	FillingsUpdate:  mu: +0.067298064  nElectrons: 390.000000  magneticMoment: [ Abs: 24.15659  Tot: +0.00000 ]
	SubspaceRotationAdjust: set factor to 1.07
ElecMinimize: Iter: 112  F: -2735.939988320941666  |grad|_K:  3.445e-07  alpha:  2.382e-01  linmin:  1.474e-05  t[s]:   5659.15
	FillingsUpdate:  mu: +0.067673515  nElectrons: 390.000000  magneticMoment: [ Abs: 24.15919  Tot: +0.00000 ]
	SubspaceRotationAdjust: set factor to 1.01
ElecMinimize: Iter: 113  F: -2735.939992491068097  |grad|_K:  3.383e-07  alpha:  2.102e-01  linmin:  2.473e-06  t[s]:   5701.65
	FillingsUpdate:  mu: +0.067614009  nElectrons: 390.000000  magneticMoment: [ Abs: 24.16185  Tot: -0.00000 ]
	SubspaceRotationAdjust: set factor to 1.19
ElecMinimize: Iter: 114  F: -2735.939998089961136  |grad|_K:  3.190e-07  alpha:  2.909e-01  linmin:  1.698e-06  t[s]:   5744.00
	FillingsUpdate:  mu: +0.067093750  nElectrons: 390.000000  magneticMoment: [ Abs: 24.16293  Tot: -0.00000 ]
	SubspaceRotationAdjust: set factor to 1.05
ElecMinimize: Iter: 115  F: -2735.940002539394754  |grad|_K:  3.904e-07  alpha:  2.583e-01  linmin:  1.324e-05  t[s]:   5786.30
	FillingsUpdate:  mu: +0.067583428  nElectrons: 390.000000  magneticMoment: [ Abs: 24.16355  Tot: +0.00000 ]
	SubspaceRotationAdjust: set factor to 1.03
ElecMinimize: Iter: 116  F: -2735.940006660879590  |grad|_K:  3.447e-07  alpha:  1.623e-01  linmin: -4.273e-06  t[s]:   5828.62
	FillingsUpdate:  mu: +0.067484313  nElectrons: 390.000000  magneticMoment: [ Abs: 24.16323  Tot: -0.00000 ]
	SubspaceRotationAdjust: set factor to 1.23
ElecMinimize: Iter: 117  F: -2735.940012392898552  |grad|_K:  3.707e-07  alpha:  2.866e-01  linmin:  1.018e-05  t[s]:   5870.67
	FillingsUpdate:  mu: +0.067019574  nElectrons: 390.000000  magneticMoment: [ Abs: 24.16194  Tot: -0.00000 ]
	SubspaceRotationAdjust: set factor to 1.29
ElecMinimize: Iter: 118  F: -2735.940018115441944  |grad|_K:  4.396e-07  alpha:  2.489e-01  linmin:  1.418e-06  t[s]:   5912.90
	FillingsUpdate:  mu: +0.067544319  nElectrons: 390.000000  magneticMoment: [ Abs: 24.16101  Tot: +0.00000 ]
	SubspaceRotationAdjust: set factor to 1.25
ElecMinimize: Iter: 119  F: -2735.940023882295463  |grad|_K:  4.468e-07  alpha:  1.786e-01  linmin: -5.030e-06  t[s]:   5955.53
	FillingsUpdate:  mu: +0.067149748  nElectrons: 390.000000  magneticMoment: [ Abs: 24.16015  Tot: -0.00000 ]
	SubspaceRotationAdjust: set factor to 1.25
ElecMinimize: Iter: 120  F: -2735.940030585225941  |grad|_K:  4.750e-07  alpha:  1.992e-01  linmin:  3.007e-05  t[s]:   5997.79
	FillingsUpdate:  mu: +0.067197098  nElectrons: 390.000000  magneticMoment: [ Abs: 24.15811  Tot: +0.00000 ]
	SubspaceRotationAdjust: set factor to 1.63
ElecMinimize: Iter: 121  F: -2735.940038033424116  |grad|_K:  4.697e-07  alpha:  2.061e-01  linmin: -7.439e-06  t[s]:   6039.91
	FillingsUpdate:  mu: +0.067575848  nElectrons: 390.000000  magneticMoment: [ Abs: 24.15473  Tot: +0.00000 ]
	SubspaceRotationAdjust: set factor to 1.62
ElecMinimize: Iter: 122  F: -2735.940045774803366  |grad|_K:  5.646e-07  alpha:  2.051e-01  linmin: -9.775e-06  t[s]:   6082.09
	FillingsUpdate:  mu: +0.066907878  nElectrons: 390.000000  magneticMoment: [ Abs: 24.15212  Tot: +0.00000 ]
	SubspaceRotationAdjust: set factor to 1.73
ElecMinimize: Iter: 123  F: -2735.940052310046667  |grad|_K:  5.569e-07  alpha:  1.077e-01  linmin: -4.497e-05  t[s]:   6124.54
	FillingsUpdate:  mu: +0.066890903  nElectrons: 390.000000  magneticMoment: [ Abs: 24.14944  Tot: +0.00000 ]
	SubspaceRotationAdjust: set factor to 1.46
ElecMinimize: Iter: 124  F: -2735.940061092343967  |grad|_K:  6.950e-07  alpha:  1.626e-01  linmin:  5.690e-05  t[s]:   6167.09
	FillingsUpdate:  mu: +0.067324429  nElectrons: 390.000000  magneticMoment: [ Abs: 24.14784  Tot: +0.00000 ]
	SubspaceRotationAdjust: set factor to 2.12
ElecMinimize: Iter: 125  F: -2735.940066692397068  |grad|_K:  5.925e-07  alpha:  7.581e-02  linmin: -2.723e-06  t[s]:   6209.34
	FillingsUpdate:  mu: +0.067405546  nElectrons: 390.000000  magneticMoment: [ Abs: 24.14693  Tot: +0.00000 ]
	SubspaceRotationAdjust: set factor to 2.22
ElecMinimize: Iter: 126  F: -2735.940073110629783  |grad|_K:  6.486e-07  alpha:  1.073e-01  linmin: -1.169e-05  t[s]:   6251.64
	FillingsUpdate:  mu: +0.066898419  nElectrons: 390.000000  magneticMoment: [ Abs: 24.14710  Tot: -0.00000 ]
	SubspaceRotationAdjust: set factor to 2.03
ElecMinimize: Iter: 127  F: -2735.940079147081178  |grad|_K:  6.822e-07  alpha:  8.126e-02  linmin:  6.027e-06  t[s]:   6293.95
	FillingsUpdate:  mu: +0.067081820  nElectrons: 390.000000  magneticMoment: [ Abs: 24.14811  Tot: +0.00000 ]
	SubspaceRotationAdjust: set factor to 2.04
ElecMinimize: Iter: 128  F: -2735.940084578414826  |grad|_K:  6.605e-07  alpha:  6.937e-02  linmin:  3.642e-06  t[s]:   6336.42
	FillingsUpdate:  mu: +0.067631956  nElectrons: 390.000000  magneticMoment: [ Abs: 24.14933  Tot: -0.00000 ]
	SubspaceRotationAdjust: set factor to 2.03
ElecMinimize: Iter: 129  F: -2735.940089540052213  |grad|_K:  6.604e-07  alpha:  6.790e-02  linmin: -1.033e-05  t[s]:   6378.68
	FillingsUpdate:  mu: +0.067571813  nElectrons: 390.000000  magneticMoment: [ Abs: 24.15057  Tot: +0.00000 ]
	SubspaceRotationAdjust: set factor to 2.9
ElecMinimize: Iter: 130  F: -2735.940095088033559  |grad|_K:  5.647e-07  alpha:  7.367e-02  linmin: -9.444e-06  t[s]:   6420.79
	FillingsUpdate:  mu: +0.067145646  nElectrons: 390.000000  magneticMoment: [ Abs: 24.15192  Tot: +0.00000 ]
	SubspaceRotationAdjust: set factor to 2.55
ElecMinimize: Iter: 131  F: -2735.940099473581540  |grad|_K:  6.738e-07  alpha:  8.006e-02  linmin:  2.479e-06  t[s]:   6463.31
	FillingsUpdate:  mu: +0.067442160  nElectrons: 390.000000  magneticMoment: [ Abs: 24.15419  Tot: -0.00000 ]
	SubspaceRotationAdjust: set factor to 3.75
ElecMinimize: Iter: 132  F: -2735.940103864236789  |grad|_K:  5.313e-07  alpha:  5.770e-02  linmin: -6.475e-06  t[s]:   6505.84
	FillingsUpdate:  mu: +0.067889264  nElectrons: 390.000000  magneticMoment: [ Abs: 24.15686  Tot: -0.00000 ]
	SubspaceRotationAdjust: set factor to 3.33
ElecMinimize: Iter: 133  F: -2735.940107356204408  |grad|_K:  6.249e-07  alpha:  7.204e-02  linmin: -1.553e-05  t[s]:   6548.06
	FillingsUpdate:  mu: +0.067520879  nElectrons: 390.000000  magneticMoment: [ Abs: 24.15933  Tot: +0.00000 ]
	SubspaceRotationAdjust: set factor to 3.61
ElecMinimize: Iter: 134  F: -2735.940110430979075  |grad|_K:  4.996e-07  alpha:  4.539e-02  linmin: -5.326e-06  t[s]:   6590.13
	FillingsUpdate:  mu: +0.067597621  nElectrons: 390.000000  magneticMoment: [ Abs: 24.16177  Tot: +0.00000 ]
	SubspaceRotationAdjust: set factor to 4.18
ElecMinimize: Iter: 135  F: -2735.940113525676679  |grad|_K:  4.798e-07  alpha:  7.209e-02  linmin: -2.045e-05  t[s]:   6632.14
	FillingsUpdate:  mu: +0.068008999  nElectrons: 390.000000  magneticMoment: [ Abs: 24.16333  Tot: -0.00000 ]
	SubspaceRotationAdjust: set factor to 4.02
ElecMinimize: Iter: 136  F: -2735.940116010381189  |grad|_K:  5.180e-07  alpha:  6.210e-02  linmin: -5.975e-06  t[s]:   6674.04
	FillingsUpdate:  mu: +0.067674463  nElectrons: 390.000000  magneticMoment: [ Abs: 24.16398  Tot: +0.00000 ]
	SubspaceRotationAdjust: set factor to 3.66
ElecMinimize: Iter: 137  F: -2735.940117948403440  |grad|_K:  4.468e-07  alpha:  4.240e-02  linmin: -1.773e-06  t[s]:   6716.52
	FillingsUpdate:  mu: +0.067814636  nElectrons: 390.000000  magneticMoment: [ Abs: 24.16446  Tot: +0.00000 ]
	SubspaceRotationAdjust: set factor to 4.29
ElecMinimize: Iter: 138  F: -2735.940120419715640  |grad|_K:  3.954e-07  alpha:  7.231e-02  linmin: -1.792e-05  t[s]:   6758.73
	FillingsUpdate:  mu: +0.068118105  nElectrons: 390.000000  magneticMoment: [ Abs: 24.16527  Tot: -0.00000 ]
	SubspaceRotationAdjust: set factor to 3.5
ElecMinimize: Iter: 139  F: -2735.940122508032800  |grad|_K:  4.754e-07  alpha:  7.705e-02  linmin: -3.330e-06  t[s]:   6801.38
	FillingsUpdate:  mu: +0.067747607  nElectrons: 390.000000  magneticMoment: [ Abs: 24.16564  Tot: +0.00000 ]
	SubspaceRotationAdjust: set factor to 3.19
ElecMinimize: Iter: 140  F: -2735.940123984392812  |grad|_K:  3.816e-07  alpha:  3.857e-02  linmin: -3.559e-07  t[s]:   6844.21
	FillingsUpdate:  mu: +0.067864136  nElectrons: 390.000000  magneticMoment: [ Abs: 24.16550  Tot: -0.00000 ]
	SubspaceRotationAdjust: set factor to 3.81
ElecMinimize: Iter: 141  F: -2735.940125825389259  |grad|_K:  3.246e-07  alpha:  7.467e-02  linmin: -4.276e-06  t[s]:   6887.04
	FillingsUpdate:  mu: +0.068130261  nElectrons: 390.000000  magneticMoment: [ Abs: 24.16486  Tot: -0.00000 ]
	SubspaceRotationAdjust: set factor to 3.29
ElecMinimize: Iter: 142  F: -2735.940127090141686  |grad|_K:  3.759e-07  alpha:  7.073e-02  linmin: -8.325e-07  t[s]:   6929.82
	FillingsUpdate:  mu: +0.067822156  nElectrons: 390.000000  magneticMoment: [ Abs: 24.16403  Tot: +0.00000 ]
	SubspaceRotationAdjust: set factor to 2.9
ElecMinimize: Iter: 143  F: -2735.940128061452924  |grad|_K:  2.746e-07  alpha:  4.067e-02  linmin: -2.095e-07  t[s]:   6971.95
	FillingsUpdate:  mu: +0.067792203  nElectrons: 390.000000  magneticMoment: [ Abs: 24.16278  Tot: -0.00000 ]
	SubspaceRotationAdjust: set factor to 3.47
ElecMinimize: Iter: 144  F: -2735.940129256618548  |grad|_K:  2.638e-07  alpha:  9.382e-02  linmin:  5.093e-07  t[s]:   7014.57
	FillingsUpdate:  mu: +0.068040044  nElectrons: 390.000000  magneticMoment: [ Abs: 24.16217  Tot: +0.00000 ]
	SubspaceRotationAdjust: set factor to 3.06
ElecMinimize: Iter: 145  F: -2735.940129913983128  |grad|_K:  2.680e-07  alpha:  5.599e-02  linmin:  5.299e-08  t[s]:   7057.24
	FillingsUpdate:  mu: +0.067856889  nElectrons: 390.000000  magneticMoment: [ Abs: 24.16160  Tot: +0.00000 ]
	SubspaceRotationAdjust: set factor to 3.14
ElecMinimize: Iter: 146  F: -2735.940130703055729  |grad|_K:  2.184e-07  alpha:  6.512e-02  linmin:  3.556e-07  t[s]:   7099.52
	FillingsUpdate:  mu: +0.067802885  nElectrons: 390.000000  magneticMoment: [ Abs: 24.16146  Tot: -0.00000 ]
	SubspaceRotationAdjust: set factor to 3.39
ElecMinimize: Iter: 147  F: -2735.940131462196405  |grad|_K:  2.252e-07  alpha:  9.448e-02  linmin:  1.922e-06  t[s]:   7141.84
	FillingsUpdate:  mu: +0.068034942  nElectrons: 390.000000  magneticMoment: [ Abs: 24.16134  Tot: -0.00000 ]
	SubspaceRotationAdjust: set factor to 3.18
ElecMinimize: Iter: 148  F: -2735.940132009583067  |grad|_K:  2.358e-07  alpha:  6.405e-02  linmin:  2.863e-07  t[s]:   7184.15
	FillingsUpdate:  mu: +0.067888694  nElectrons: 390.000000  magneticMoment: [ Abs: 24.16111  Tot: -0.00000 ]
	SubspaceRotationAdjust: set factor to 3.12
ElecMinimize: Iter: 149  F: -2735.940132565464410  |grad|_K:  1.973e-07  alpha:  5.930e-02  linmin:  1.653e-08  t[s]:   7226.13
ElecMinimize: Converged (|Delta F|<1.000000e-06 for 5 iters).
Setting wave functions to eigenvectors of Hamiltonian

# Ionic positions in lattice coordinates:
ion Ni   0.000000000000000   0.000000000000000   0.150000000000000 1
ion Ni   0.500000000000000   0.000000000000000   0.150000000000000 1
ion Ni   0.000000000000000   0.500000000000000   0.150000000000000 1
ion Ni   0.500000000000000   0.500000000000000   0.150000000000000 1
ion Ni   0.250000000000000   0.250000000000000   0.050000000000000 1
ion Ni   0.250000000000000   0.750000000000000   0.050000000000000 1
ion Ni  -0.250000000000000   0.250000000000000   0.050000000000000 1
ion Ni  -0.250000000000000   0.750000000000000   0.050000000000000 1
ion Ni   0.000000000000000   0.000000000000000  -0.050000000000000 0
ion Ni   0.500000000000000   0.000000000000000  -0.050000000000000 0
ion Ni   0.000000000000000   0.500000000000000  -0.050000000000000 0
ion Ni   0.500000000000000   0.500000000000000  -0.050000000000000 0
ion Ni   0.250000000000000   0.250000000000000  -0.150000000000000 0
ion Ni   0.250000000000000   0.750000000000000  -0.150000000000000 0
ion Ni  -0.250000000000000   0.250000000000000  -0.150000000000000 0
ion Ni  -0.250000000000000   0.750000000000000  -0.150000000000000 0
ion O   0.250000000000000   0.250000000000000   0.150000000000000 1
ion O   0.250000000000000   0.750000000000000   0.150000000000000 1
ion O  -0.250000000000000   0.250000000000000   0.150000000000000 1
ion O  -0.250000000000000   0.750000000000000   0.150000000000000 1
ion O   0.000000000000000   0.000000000000000   0.050000000000000 1
ion O   0.500000000000000   0.000000000000000   0.050000000000000 1
ion O   0.000000000000000   0.500000000000000   0.050000000000000 1
ion O   0.500000000000000   0.500000000000000   0.050000000000000 1
ion O   0.250000000000000   0.250000000000000  -0.050000000000000 0
ion O   0.250000000000000   0.750000000000000  -0.050000000000000 0
ion O  -0.250000000000000   0.250000000000000  -0.050000000000000 0
ion O  -0.250000000000000   0.750000000000000  -0.050000000000000 0
ion O   0.000000000000000   0.000000000000000  -0.150000000000000 0
ion O   0.500000000000000   0.000000000000000  -0.150000000000000 0
ion O   0.000000000000000   0.500000000000000  -0.150000000000000 0
ion O   0.500000000000000   0.500000000000000  -0.150000000000000 0
ion O   0.000000000000000   0.000000000000000   0.230000000000000 1

# Forces in Lattice coordinates:
force Ni   0.014904550160656  -0.003622279338663  -0.144420702361380 1
force Ni   0.002022662167748   0.001729330604476  -0.498974214199553 1
force Ni   0.000474225443992  -0.001640735302944  -0.545473454842488 1
force Ni  -0.000083789044722  -0.001690121854540  -0.564537944191943 1
force Ni   0.014198646596567   0.012805195334186   0.148715027731340 1
force Ni   0.015514411786351  -0.014332379506676   0.146751800354842 1
force Ni  -0.008657475847733   0.008479382148972   0.126170131545580 1
force Ni  -0.008076037812060  -0.007851319357427   0.134769065779938 1
force Ni  -0.003541525740690   0.000185148529946  -0.322247936459615 0
force Ni  -0.000267215559434   0.000380578708577  -0.196884184840379 0
force Ni   0.001329605297229  -0.000370728978300  -0.196559940548044 0
force Ni   0.000766680849858  -0.000444368528117  -0.186177818844131 0
force Ni   0.000396859708993   0.001048179494517   0.612675521003451 0
force Ni   0.000414234923548  -0.001043524732335   0.615296005751928 0
force Ni  -0.001235388568339   0.000786161779734   0.616906414954048 0
force Ni  -0.001199878866235  -0.000788341086456   0.617799027265951 0
force O   0.001961338399908   0.014293798170895  -0.572730954150224 1
force O   0.001353943998158  -0.014816955019732  -0.566164269914049 1
force O  -0.015878477634818   0.017377393022509  -0.554703686643826 1
force O  -0.016429132602436  -0.016188246575580  -0.568681172033221 1
force O  -0.004674422899015   0.003177360988313   0.539187700424562 1
force O   0.002863498084695  -0.000200512338417   0.002188567524247 1
force O   0.004596892830904   0.000230144856353  -0.005545910478774 1
force O  -0.002023850059922  -0.000262793774831  -0.025435813844015 1
force O  -0.005299119221435  -0.001470482433415   0.017868708383782 0
force O  -0.005641293547690   0.001753921211415   0.017552266956929 0
force O  -0.004173232162263  -0.000997297385162   0.017909864626985 0
force O  -0.004469735041163   0.000922189443017   0.014499354122123 0
force O   0.007292361814030   0.000166870055745   0.290791178836404 0
force O   0.007609323610650   0.000106954669187   0.272692292389983 0
force O   0.005541086849442  -0.000105526388029   0.272627192407902 0
force O   0.007244550546060  -0.000113172245984   0.265336619468522 0
force O  -0.006999750977077   0.003160145142600   0.061733452590563 1

# Energy components:
   Eewald =     7126.2915285048002261
       EH =     9596.0021904127333983
     Eloc =   -19535.4793888160820643
      Enl =     -851.7593586595089619
   Epulay =       -0.0001810221709924
      Exc =     -301.1803317236443149
       KE =     1228.0320997485246153
        U =        2.1538570236020700
-------------------------------------
     Etot =    -2735.9395845317444582
       TS =        0.0005480337201034
-------------------------------------
        F =    -2735.9401325654644097

IonicMinimize: Iter:   0  F: -2735.940132565464410  |grad|_K:  5.580e-03  t[s]:   7238.62

#--- Lowdin population analysis ---
# oxidation-state Ni +3.620 +3.862 +3.847 +3.788 +3.483 +3.486 +3.485 +3.484 +3.497 +3.490 +3.489 +3.489 +3.821 +3.821 +3.820 +3.819
# magnetic-moments Ni +0.370 -1.039 +1.018 -0.965 +0.933 +0.936 -0.937 -0.937 -0.959 +0.942 -0.943 +0.943 -1.029 -1.030 +1.028 +1.028
# oxidation-state O -0.588 -0.590 -0.593 -0.589 -0.594 -0.600 -0.599 -0.599 -0.600 -0.600 -0.600 -0.600 -0.647 -0.650 -0.650 -0.650 -0.256
# magnetic-moments O +0.134 +0.143 -0.147 -0.154 -0.064 -0.040 +0.042 -0.029 -0.051 -0.050 +0.045 +0.045 -0.151 +0.136 -0.139 +0.133 +0.900


-------- Electronic minimization -----------
	FillingsUpdate:  mu: +0.068515859  nElectrons: 390.000000  magneticMoment: [ Abs: 24.16058  Tot: -0.00000 ]
ElecMinimize: Iter:   0  F: -2735.917523371833340  |grad|_K:  2.982e-05  alpha:  1.000e+00
	FillingsUpdate:  mu: +0.068946672  nElectrons: 390.000000  magneticMoment: [ Abs: 24.17608  Tot: +0.00000 ]
	SubspaceRotationAdjust: set factor to 1.84
ElecMinimize: Iter:   1  F: -2735.938734293286871  |grad|_K:  1.640e-05  alpha:  1.311e-01  linmin: -2.812e-03  t[s]:   7313.88
	FillingsUpdate:  mu: +0.075199002  nElectrons: 390.000000  magneticMoment: [ Abs: 24.17051  Tot: -0.00000 ]
	SubspaceRotationAdjust: set factor to 0.845
ElecMinimize: Iter:   2  F: -2735.940469646204747  |grad|_K:  6.920e-06  alpha:  3.919e-02  linmin:  1.406e-03  t[s]:   7356.39
	FillingsUpdate:  mu: +0.067696050  nElectrons: 390.000000  magneticMoment: [ Abs: 24.16340  Tot: -0.00000 ]
	SubspaceRotationAdjust: set factor to 0.689
ElecMinimize: Iter:   3  F: -2735.940990125192457  |grad|_K:  3.541e-06  alpha:  6.688e-02  linmin: -1.731e-03  t[s]:   7398.33
	FillingsUpdate:  mu: +0.066634126  nElectrons: 390.000000  magneticMoment: [ Abs: 24.16206  Tot: +0.00000 ]
	SubspaceRotationAdjust: set factor to 0.825
ElecMinimize: Iter:   4  F: -2735.941395115031355  |grad|_K:  2.280e-06  alpha:  1.731e-01  linmin:  1.392e-04  t[s]:   7440.58
	FillingsUpdate:  mu: +0.069642076  nElectrons: 390.000000  magneticMoment: [ Abs: 24.16332  Tot: -0.00000 ]
	SubspaceRotationAdjust: set factor to 0.689
ElecMinimize: Iter:   5  F: -2735.941535885251142  |grad|_K:  1.704e-06  alpha:  1.608e-01  linmin:  3.302e-04  t[s]:   7483.09
	FillingsUpdate:  mu: +0.068331561  nElectrons: 390.000000  magneticMoment: [ Abs: 24.16370  Tot: +0.00000 ]
	SubspaceRotationAdjust: set factor to 0.808
ElecMinimize: Iter:   6  F: -2735.941617793779187  |grad|_K:  1.086e-06  alpha:  1.706e-01  linmin: -1.179e-05  t[s]:   7524.91
	FillingsUpdate:  mu: +0.067038961  nElectrons: 390.000000  magneticMoment: [ Abs: 24.16386  Tot: +0.00000 ]
	SubspaceRotationAdjust: set factor to 0.766
ElecMinimize: Iter:   7  F: -2735.941657265271715  |grad|_K:  8.962e-07  alpha:  1.979e-01  linmin: -6.093e-05  t[s]:   7567.18
	FillingsUpdate:  mu: +0.068080364  nElectrons: 390.000000  magneticMoment: [ Abs: 24.16412  Tot: +0.00000 ]
	SubspaceRotationAdjust: set factor to 0.64
ElecMinimize: Iter:   8  F: -2735.941678331413641  |grad|_K:  5.621e-07  alpha:  1.541e-01  linmin:  2.941e-05  t[s]:   7609.43
	FillingsUpdate:  mu: +0.068168501  nElectrons: 390.000000  magneticMoment: [ Abs: 24.16370  Tot: -0.00000 ]
	SubspaceRotationAdjust: set factor to 0.752
ElecMinimize: Iter:   9  F: -2735.941689553210381  |grad|_K:  4.360e-07  alpha:  2.110e-01  linmin:  2.763e-07  t[s]:   7651.42
	FillingsUpdate:  mu: +0.067593223  nElectrons: 390.000000  magneticMoment: [ Abs: 24.16333  Tot: -0.00000 ]
	SubspaceRotationAdjust: set factor to 0.608
ElecMinimize: Iter:  10  F: -2735.941695509563488  |grad|_K:  2.949e-07  alpha:  1.858e-01  linmin: -1.879e-05  t[s]:   7693.59
	FillingsUpdate:  mu: +0.067931644  nElectrons: 390.000000  magneticMoment: [ Abs: 24.16345  Tot: +0.00000 ]
	SubspaceRotationAdjust: set factor to 0.592
ElecMinimize: Iter:  11  F: -2735.941698237551918  |grad|_K:  2.134e-07  alpha:  1.856e-01  linmin:  4.653e-06  t[s]:   7736.00
	FillingsUpdate:  mu: +0.068033663  nElectrons: 390.000000  magneticMoment: [ Abs: 24.16358  Tot: -0.00000 ]
	SubspaceRotationAdjust: set factor to 0.644
ElecMinimize: Iter:  12  F: -2735.941699972408514  |grad|_K:  1.558e-07  alpha:  2.257e-01  linmin:  1.023e-06  t[s]:   7778.04
	FillingsUpdate:  mu: +0.067765191  nElectrons: 390.000000  magneticMoment: [ Abs: 24.16349  Tot: -0.00000 ]
	SubspaceRotationAdjust: set factor to 0.576
ElecMinimize: Iter:  13  F: -2735.941700895911254  |grad|_K:  1.331e-07  alpha:  2.255e-01  linmin: -3.731e-06  t[s]:   7820.07
	FillingsUpdate:  mu: +0.067850576  nElectrons: 390.000000  magneticMoment: [ Abs: 24.16341  Tot: +0.00000 ]
	SubspaceRotationAdjust: set factor to 0.659
ElecMinimize: Iter:  14  F: -2735.941701599772387  |grad|_K:  1.056e-07  alpha:  2.351e-01  linmin:  1.155e-06  t[s]:   7862.72
	FillingsUpdate:  mu: +0.067982373  nElectrons: 390.000000  magneticMoment: [ Abs: 24.16345  Tot: +0.00000 ]
	SubspaceRotationAdjust: set factor to 0.696
ElecMinimize: Iter:  15  F: -2735.941702099319173  |grad|_K:  9.493e-08  alpha:  2.653e-01  linmin: -2.480e-06  t[s]:   7905.61
	FillingsUpdate:  mu: +0.067831140  nElectrons: 390.000000  magneticMoment: [ Abs: 24.16349  Tot: -0.00000 ]
	SubspaceRotationAdjust: set factor to 0.655
ElecMinimize: Iter:  16  F: -2735.941702451304536  |grad|_K:  8.639e-08  alpha:  2.310e-01  linmin: -2.334e-07  t[s]:   7949.15
	FillingsUpdate:  mu: +0.067862601  nElectrons: 390.000000  magneticMoment: [ Abs: 24.16351  Tot: +0.00000 ]
	SubspaceRotationAdjust: set factor to 0.779
ElecMinimize: Iter:  17  F: -2735.941702805132991  |grad|_K:  7.843e-08  alpha:  2.806e-01  linmin: -2.908e-06  t[s]:   7992.71
ElecMinimize: Converged (|Delta F|<1.000000e-06 for 5 iters).
Setting wave functions to eigenvectors of Hamiltonian
IonicMinimize: 	Wolfe criterion not satisfied: alpha: 1  (E-E0)/|gdotd0|: -0.988816  gdotd/gdotd0: 0.996894 (taking cubic step)

-------- Electronic minimization -----------
	FillingsUpdate:  mu: +0.043979898  nElectrons: 390.000000  magneticMoment: [ Abs: 24.16340  Tot: +0.00000 ]
ElecMinimize: Iter:   0  F: -2735.393155008752728  |grad|_K:  1.388e-04  alpha:  1.000e+00
	FillingsUpdate:  mu: +0.075888657  nElectrons: 390.000000  magneticMoment: [ Abs: 24.17129  Tot: +0.00000 ]
	SubspaceRotationAdjust: set factor to 0.546
ElecMinimize: Iter:   1  F: -2735.901120517538857  |grad|_K:  3.438e-05  alpha:  1.452e-01  linmin: -9.155e-03  t[s]:   8079.27
	FillingsUpdate:  mu: +0.080131528  nElectrons: 390.000000  magneticMoment: [ Abs: 24.17826  Tot: -0.00000 ]
	SubspaceRotationAdjust: set factor to 0.419
ElecMinimize: Iter:   2  F: -2735.930640170251081  |grad|_K:  1.397e-05  alpha:  1.393e-01  linmin: -3.068e-03  t[s]:   8121.20
	FillingsUpdate:  mu: +0.067109251  nElectrons: 390.000000  magneticMoment: [ Abs: 24.16607  Tot: +0.00000 ]
	SubspaceRotationAdjust: set factor to 0.517
ElecMinimize: Iter:   3  F: -2735.939169018603479  |grad|_K:  6.925e-06  alpha:  2.350e-01  linmin: -5.944e-04  t[s]:   8163.41
	FillingsUpdate:  mu: +0.069118855  nElectrons: 390.000000  magneticMoment: [ Abs: 24.16548  Tot: -0.00000 ]
	SubspaceRotationAdjust: set factor to 0.642
ElecMinimize: Iter:   4  F: -2735.941669111727151  |grad|_K:  4.975e-06  alpha:  3.017e-01  linmin:  4.050e-05  t[s]:   8206.27
	FillingsUpdate:  mu: +0.069359368  nElectrons: 390.000000  magneticMoment: [ Abs: 24.16509  Tot: +0.00000 ]
	SubspaceRotationAdjust: set factor to 0.833
ElecMinimize: Iter:   5  F: -2735.943242420584284  |grad|_K:  3.921e-06  alpha:  3.776e-01  linmin: -6.827e-06  t[s]:   8248.87
	FillingsUpdate:  mu: +0.067232017  nElectrons: 390.000000  magneticMoment: [ Abs: 24.16366  Tot: -0.00000 ]
	SubspaceRotationAdjust: set factor to 0.911
ElecMinimize: Iter:   6  F: -2735.944171382953755  |grad|_K:  3.158e-06  alpha:  3.577e-01  linmin: -4.405e-06  t[s]:   8291.76
	FillingsUpdate:  mu: +0.070715630  nElectrons: 390.000000  magneticMoment: [ Abs: 24.16412  Tot: -0.00000 ]
	SubspaceRotationAdjust: set factor to 0.689
ElecMinimize: Iter:   7  F: -2735.944503643474036  |grad|_K:  2.234e-06  alpha:  1.904e-01  linmin: -1.141e-04  t[s]:   8334.45
	FillingsUpdate:  mu: +0.066647165  nElectrons: 390.000000  magneticMoment: [ Abs: 24.16314  Tot: +0.00000 ]
	SubspaceRotationAdjust: set factor to 0.467
ElecMinimize: Iter:   8  F: -2735.944641855398459  |grad|_K:  1.315e-06  alpha:  1.621e-01  linmin: -6.502e-05  t[s]:   8377.39
	FillingsUpdate:  mu: +0.067629832  nElectrons: 390.000000  magneticMoment: [ Abs: 24.16337  Tot: -0.00000 ]
	SubspaceRotationAdjust: set factor to 0.465
ElecMinimize: Iter:   9  F: -2735.944710211339952  |grad|_K:  6.959e-07  alpha:  2.324e-01  linmin:  8.262e-06  t[s]:   8420.19
	FillingsUpdate:  mu: +0.068223422  nElectrons: 390.000000  magneticMoment: [ Abs: 24.16373  Tot: -0.00000 ]
	SubspaceRotationAdjust: set factor to 0.488
ElecMinimize: Iter:  10  F: -2735.944731959034470  |grad|_K:  4.523e-07  alpha:  2.662e-01  linmin:  9.020e-06  t[s]:   8462.67
	FillingsUpdate:  mu: +0.067626711  nElectrons: 390.000000  magneticMoment: [ Abs: 24.16360  Tot: -0.00000 ]
	SubspaceRotationAdjust: set factor to 0.487
ElecMinimize: Iter:  11  F: -2735.944740905164053  |grad|_K:  3.005e-07  alpha:  2.592e-01  linmin: -1.045e-05  t[s]:   8504.99
	FillingsUpdate:  mu: +0.067772935  nElectrons: 390.000000  magneticMoment: [ Abs: 24.16348  Tot: +0.00000 ]
	SubspaceRotationAdjust: set factor to 0.592
ElecMinimize: Iter:  12  F: -2735.944745257590967  |grad|_K:  2.186e-07  alpha:  2.854e-01  linmin: -3.492e-07  t[s]:   8547.58
	FillingsUpdate:  mu: +0.067900560  nElectrons: 390.000000  magneticMoment: [ Abs: 24.16353  Tot: +0.00000 ]
	SubspaceRotationAdjust: set factor to 0.709
ElecMinimize: Iter:  13  F: -2735.944747948814438  |grad|_K:  1.781e-07  alpha:  3.335e-01  linmin:  8.919e-07  t[s]:   8589.79
	FillingsUpdate:  mu: +0.067699413  nElectrons: 390.000000  magneticMoment: [ Abs: 24.16358  Tot: +0.00000 ]
	SubspaceRotationAdjust: set factor to 0.752
ElecMinimize: Iter:  14  F: -2735.944749564810081  |grad|_K:  1.618e-07  alpha:  3.019e-01  linmin: -2.961e-07  t[s]:   8632.42
	FillingsUpdate:  mu: +0.067937564  nElectrons: 390.000000  magneticMoment: [ Abs: 24.16366  Tot: -0.00000 ]
	SubspaceRotationAdjust: set factor to 0.688
ElecMinimize: Iter:  15  F: -2735.944750706008563  |grad|_K:  1.299e-07  alpha:  2.582e-01  linmin:  9.392e-07  t[s]:   8675.18
	FillingsUpdate:  mu: +0.067769943  nElectrons: 390.000000  magneticMoment: [ Abs: 24.16370  Tot: -0.00000 ]
	SubspaceRotationAdjust: set factor to 0.657
ElecMinimize: Iter:  16  F: -2735.944751419772274  |grad|_K:  9.708e-08  alpha:  2.508e-01  linmin:  4.117e-07  t[s]:   8718.17
	FillingsUpdate:  mu: +0.067833300  nElectrons: 390.000000  magneticMoment: [ Abs: 24.16379  Tot: +0.00000 ]
	SubspaceRotationAdjust: set factor to 0.783
ElecMinimize: Iter:  17  F: -2735.944751926303070  |grad|_K:  7.767e-08  alpha:  3.181e-01  linmin: -4.184e-06  t[s]:   8761.16
	FillingsUpdate:  mu: +0.067826352  nElectrons: 390.000000  magneticMoment: [ Abs: 24.16384  Tot: -0.00000 ]
	SubspaceRotationAdjust: set factor to 0.954
ElecMinimize: Iter:  18  F: -2735.944752305528709  |grad|_K:  7.698e-08  alpha:  3.725e-01  linmin:  3.068e-06  t[s]:   8804.59
	FillingsUpdate:  mu: +0.067772791  nElectrons: 390.000000  magneticMoment: [ Abs: 24.16396  Tot: -0.00000 ]
	SubspaceRotationAdjust: set factor to 1.12
ElecMinimize: Iter:  19  F: -2735.944752711320689  |grad|_K:  8.729e-08  alpha:  4.061e-01  linmin:  1.254e-06  t[s]:   8848.27
	FillingsUpdate:  mu: +0.067891993  nElectrons: 390.000000  magneticMoment: [ Abs: 24.16413  Tot: +0.00000 ]
[...]
	FillingsUpdate:  mu: +0.079092391  nElectrons: 391.000000  magneticMoment: [ Abs: 23.48551  Tot: +0.00000 ]
	SubspaceRotationAdjust: set factor to 0.714
ElecMinimize: Iter:  10  F: -2736.628369251533513  |grad|_K:  2.507e-06  alpha:  1.204e-01  linmin: -4.339e-05  t[s]:  21555.14
	FillingsUpdate:  mu: +0.079314063  nElectrons: 391.000000  magneticMoment: [ Abs: 23.48832  Tot: -0.00000 ]
	SubspaceRotationAdjust: set factor to 0.818
ElecMinimize: Iter:  11  F: -2736.628558775753390  |grad|_K:  1.634e-06  alpha:  1.768e-01  linmin: -1.251e-06  t[s]:  21598.36
	FillingsUpdate:  mu: +0.077517344  nElectrons: 391.000000  magneticMoment: [ Abs: 23.49179  Tot: +0.00000 ]
	SubspaceRotationAdjust: set factor to 0.72
ElecMinimize: Iter:  12  F: -2736.628640685285063  |grad|_K:  1.392e-06  alpha:  1.810e-01  linmin: -1.369e-05  t[s]:  21641.81
	FillingsUpdate:  mu: +0.078301225  nElectrons: 391.000000  magneticMoment: [ Abs: 23.48404  Tot: +0.00000 ]
	SubspaceRotationAdjust: set factor to 0.619
ElecMinimize: Iter:  13  F: -2736.628686490068048  |grad|_K:  8.489e-07  alpha:  1.391e-01  linmin:  2.075e-05  t[s]:  21685.89
	FillingsUpdate:  mu: +0.078691370  nElectrons: 391.000000  magneticMoment: [ Abs: 23.48118  Tot: +0.00000 ]
	SubspaceRotationAdjust: set factor to 0.694
ElecMinimize: Iter:  14  F: -2736.628714365956512  |grad|_K:  7.174e-07  alpha:  2.285e-01  linmin:  7.549e-06  t[s]:  21729.97
	FillingsUpdate:  mu: +0.078133762  nElectrons: 391.000000  magneticMoment: [ Abs: 23.48273  Tot: -0.00000 ]
	SubspaceRotationAdjust: set factor to 0.613
ElecMinimize: Iter:  15  F: -2736.628731455842626  |grad|_K:  6.027e-07  alpha:  1.959e-01  linmin: -5.977e-06  t[s]:  21773.50
	FillingsUpdate:  mu: +0.078434093  nElectrons: 391.000000  magneticMoment: [ Abs: 23.47998  Tot: -0.00000 ]
	SubspaceRotationAdjust: set factor to 0.648
ElecMinimize: Iter:  16  F: -2736.628743291613773  |grad|_K:  4.450e-07  alpha:  1.921e-01  linmin:  7.096e-06  t[s]:  21816.80
	FillingsUpdate:  mu: +0.078472165  nElectrons: 391.000000  magneticMoment: [ Abs: 23.47741  Tot: +0.00000 ]
	SubspaceRotationAdjust: set factor to 0.689
ElecMinimize: Iter:  17  F: -2736.628751666102744  |grad|_K:  3.708e-07  alpha:  2.495e-01  linmin:  3.276e-06  t[s]:  21859.92
	FillingsUpdate:  mu: +0.078161311  nElectrons: 391.000000  magneticMoment: [ Abs: 23.47774  Tot: +0.00000 ]
	SubspaceRotationAdjust: set factor to 0.59
ElecMinimize: Iter:  18  F: -2736.628755499373710  |grad|_K:  2.672e-07  alpha:  1.645e-01  linmin: -1.745e-07  t[s]:  21903.19
	FillingsUpdate:  mu: +0.078413669  nElectrons: 391.000000  magneticMoment: [ Abs: 23.47650  Tot: +0.00000 ]
	SubspaceRotationAdjust: set factor to 0.634
ElecMinimize: Iter:  19  F: -2736.628757976776797  |grad|_K:  1.901e-07  alpha:  2.047e-01  linmin:  1.057e-06  t[s]:  21946.62
	FillingsUpdate:  mu: +0.078484199  nElectrons: 391.000000  magneticMoment: [ Abs: 23.47549  Tot: +0.00000 ]
	SubspaceRotationAdjust: set factor to 0.675
ElecMinimize: Iter:  20  F: -2736.628759326217732  |grad|_K:  1.479e-07  alpha:  2.202e-01  linmin:  3.472e-06  t[s]:  21989.71
	FillingsUpdate:  mu: +0.078286273  nElectrons: 391.000000  magneticMoment: [ Abs: 23.47550  Tot: +0.00000 ]
	SubspaceRotationAdjust: set factor to 0.595
ElecMinimize: Iter:  21  F: -2736.628760009712551  |grad|_K:  1.156e-07  alpha:  1.845e-01  linmin: -1.143e-06  t[s]:  22033.15
	FillingsUpdate:  mu: +0.078334962  nElectrons: 391.000000  magneticMoment: [ Abs: 23.47483  Tot: -0.00000 ]
	SubspaceRotationAdjust: set factor to 0.674
ElecMinimize: Iter:  22  F: -2736.628760510226130  |grad|_K:  8.852e-08  alpha:  2.207e-01  linmin: -1.904e-05  t[s]:  22076.40
	FillingsUpdate:  mu: +0.078421491  nElectrons: 391.000000  magneticMoment: [ Abs: 23.47427  Tot: +0.00000 ]
	SubspaceRotationAdjust: set factor to 0.722
ElecMinimize: Iter:  23  F: -2736.628760847147532  |grad|_K:  7.788e-08  alpha:  2.539e-01  linmin:  2.153e-05  t[s]:  22120.04
	FillingsUpdate:  mu: +0.078345160  nElectrons: 391.000000  magneticMoment: [ Abs: 23.47423  Tot: -0.00000 ]
	SubspaceRotationAdjust: set factor to 0.68
ElecMinimize: Iter:  24  F: -2736.628761052488244  |grad|_K:  6.757e-08  alpha:  1.999e-01  linmin:  2.096e-05  t[s]:  22163.41
	FillingsUpdate:  mu: +0.078360434  nElectrons: 391.000000  magneticMoment: [ Abs: 23.47369  Tot: -0.00000 ]
	SubspaceRotationAdjust: set factor to 0.728
ElecMinimize: Iter:  25  F: -2736.628761228425901  |grad|_K:  5.563e-08  alpha:  2.277e-01  linmin:  2.410e-05  t[s]:  22207.57
ElecMinimize: Converged (|Delta F|<1.000000e-06 for 5 iters).
Setting wave functions to eigenvectors of Hamiltonian
IonicMinimize: 	Wolfe criterion not satisfied: alpha: 1  (E-E0)/|gdotd0|: 0.0228948  gdotd/gdotd0: -1.13763 (taking cubic step)

-------- Electronic minimization -----------
	FillingsUpdate:  mu: +0.076018914  nElectrons: 391.000000  magneticMoment: [ Abs: 23.47570  Tot: +0.00000 ]
ElecMinimize: Iter:   0  F: -2736.586212073969364  |grad|_K:  3.886e-05  alpha:  1.000e+00
	FillingsUpdate:  mu: +0.088300896  nElectrons: 391.000000  magneticMoment: [ Abs: 23.43599  Tot: +0.00000 ]
	SubspaceRotationAdjust: set factor to 0.573
ElecMinimize: Iter:   1  F: -2736.625623200950940  |grad|_K:  1.018e-05  alpha:  1.535e-01  linmin: -4.135e-04  t[s]:  22297.72
	FillingsUpdate:  mu: +0.075439647  nElectrons: 391.000000  magneticMoment: [ Abs: 23.48512  Tot: +0.00000 ]
	SubspaceRotationAdjust: set factor to 0.308
ElecMinimize: Iter:   2  F: -2736.627559455610026  |grad|_K:  4.615e-06  alpha:  1.126e-01  linmin: -2.913e-04  t[s]:  22341.58
	FillingsUpdate:  mu: +0.078145430  nElectrons: 391.000000  magneticMoment: [ Abs: 23.47369  Tot: +0.00000 ]
	SubspaceRotationAdjust: set factor to 0.3
ElecMinimize: Iter:   3  F: -2736.628297467425909  |grad|_K:  2.733e-06  alpha:  2.034e-01  linmin:  1.722e-04  t[s]:  22385.27
	FillingsUpdate:  mu: +0.079185229  nElectrons: 391.000000  magneticMoment: [ Abs: 23.47154  Tot: -0.00000 ]
	SubspaceRotationAdjust: set factor to 0.331
ElecMinimize: Iter:   4  F: -2736.628543371039996  |grad|_K:  1.678e-06  alpha:  1.954e-01  linmin:  3.619e-06  t[s]:  22429.32
	FillingsUpdate:  mu: +0.077593790  nElectrons: 391.000000  magneticMoment: [ Abs: 23.47802  Tot: -0.00000 ]
	SubspaceRotationAdjust: set factor to 0.332
ElecMinimize: Iter:   5  F: -2736.628668967688100  |grad|_K:  1.141e-06  alpha:  2.630e-01  linmin: -1.752e-05  t[s]:  22472.97
	FillingsUpdate:  mu: +0.077710391  nElectrons: 391.000000  magneticMoment: [ Abs: 23.48000  Tot: -0.00000 ]
	SubspaceRotationAdjust: set factor to 0.383
ElecMinimize: Iter:   6  F: -2736.628727495824023  |grad|_K:  8.438e-07  alpha:  2.650e-01  linmin:  1.734e-08  t[s]:  22516.72
	FillingsUpdate:  mu: +0.078170721  nElectrons: 391.000000  magneticMoment: [ Abs: 23.48106  Tot: +0.00000 ]
	SubspaceRotationAdjust: set factor to 0.42
ElecMinimize: Iter:   7  F: -2736.628758597096748  |grad|_K:  6.953e-07  alpha:  2.577e-01  linmin:  2.006e-07  t[s]:  22560.17
	FillingsUpdate:  mu: +0.077891960  nElectrons: 391.000000  magneticMoment: [ Abs: 23.48497  Tot: +0.00000 ]
	SubspaceRotationAdjust: set factor to 0.494
ElecMinimize: Iter:   8  F: -2736.628780217044095  |grad|_K:  4.950e-07  alpha:  2.638e-01  linmin: -1.351e-07  t[s]:  22603.53
	FillingsUpdate:  mu: +0.077783685  nElectrons: 391.000000  magneticMoment: [ Abs: 23.48813  Tot: -0.00000 ]
	SubspaceRotationAdjust: set factor to 0.568
ElecMinimize: Iter:   9  F: -2736.628792371398049  |grad|_K:  4.101e-07  alpha:  2.926e-01  linmin:  1.819e-07  t[s]:  22647.10
	FillingsUpdate:  mu: +0.078009296  nElectrons: 391.000000  magneticMoment: [ Abs: 23.48966  Tot: -0.00000 ]
	SubspaceRotationAdjust: set factor to 0.612
ElecMinimize: Iter:  10  F: -2736.628799176018219  |grad|_K:  3.162e-07  alpha:  2.386e-01  linmin: -1.767e-07  t[s]:  22690.76
	FillingsUpdate:  mu: +0.077821117  nElectrons: 391.000000  magneticMoment: [ Abs: 23.49257  Tot: -0.00000 ]
	SubspaceRotationAdjust: set factor to 0.642
ElecMinimize: Iter:  11  F: -2736.628803475002314  |grad|_K:  2.334e-07  alpha:  2.536e-01  linmin: -7.731e-07  t[s]:  22733.96
	FillingsUpdate:  mu: +0.077896415  nElectrons: 391.000000  magneticMoment: [ Abs: 23.49401  Tot: -0.00000 ]
	SubspaceRotationAdjust: set factor to 0.702
ElecMinimize: Iter:  12  F: -2736.628805743426256  |grad|_K:  1.656e-07  alpha:  2.455e-01  linmin:  6.843e-07  t[s]:  22777.92
	FillingsUpdate:  mu: +0.077878869  nElectrons: 391.000000  magneticMoment: [ Abs: 23.49541  Tot: +0.00000 ]
	SubspaceRotationAdjust: set factor to 0.787
ElecMinimize: Iter:  13  F: -2736.628806887054907  |grad|_K:  1.273e-07  alpha:  2.460e-01  linmin: -5.624e-09  t[s]:  22821.79
	FillingsUpdate:  mu: +0.077841740  nElectrons: 391.000000  magneticMoment: [ Abs: 23.49681  Tot: +0.00000 ]
	SubspaceRotationAdjust: set factor to 0.906
ElecMinimize: Iter:  14  F: -2736.628807599484844  |grad|_K:  1.013e-07  alpha:  2.592e-01  linmin: -2.976e-06  t[s]:  22865.46
	FillingsUpdate:  mu: +0.077910300  nElectrons: 391.000000  magneticMoment: [ Abs: 23.49779  Tot: +0.00000 ]
	SubspaceRotationAdjust: set factor to 0.959
ElecMinimize: Iter:  15  F: -2736.628808079849932  |grad|_K:  9.306e-08  alpha:  2.759e-01  linmin: -2.326e-06  t[s]:  22909.30
	FillingsUpdate:  mu: +0.077798632  nElectrons: 391.000000  magneticMoment: [ Abs: 23.49908  Tot: -0.00000 ]
	SubspaceRotationAdjust: set factor to 0.83
ElecMinimize: Iter:  16  F: -2736.628808345245488  |grad|_K:  8.482e-08  alpha:  1.809e-01  linmin: -6.894e-06  t[s]:  22952.84
	FillingsUpdate:  mu: +0.077881076  nElectrons: 391.000000  magneticMoment: [ Abs: 23.49955  Tot: -0.00000 ]
	SubspaceRotationAdjust: set factor to 0.692
ElecMinimize: Iter:  17  F: -2736.628808551690327  |grad|_K:  6.262e-08  alpha:  1.692e-01  linmin:  4.418e-06  t[s]:  22997.20
	FillingsUpdate:  mu: +0.077843509  nElectrons: 391.000000  magneticMoment: [ Abs: 23.50029  Tot: -0.00000 ]
	SubspaceRotationAdjust: set factor to 0.742
ElecMinimize: Iter:  18  F: -2736.628808691410541  |grad|_K:  4.465e-08  alpha:  2.110e-01  linmin:  3.041e-05  t[s]:  23041.03
ElecMinimize: Converged (|Delta F|<1.000000e-06 for 5 iters).
Setting wave functions to eigenvectors of Hamiltonian

# Ionic positions in lattice coordinates:
ion Ni   0.004206436015377  -0.005693100244586   0.142515419870661 1
ion Ni   0.502409299215925   0.000764099955550   0.138810298745772 1
ion Ni  -0.003674930610963   0.499620846073485   0.138619871231360 1
ion Ni   0.497886520799491   0.501183492238189   0.138287623220427 1
ion Ni   0.248286015472452   0.249866856884469   0.045442632398154 1
ion Ni   0.250430316118280   0.749501553225128   0.044893069124935 1
ion Ni  -0.252271656656362   0.251760135990294   0.044918918105459 1
ion Ni  -0.250826942455129   0.750983317802922   0.044656255587332 1
ion Ni   0.000000000000000   0.000000000000000  -0.050000000000000 0
ion Ni   0.500000000000000   0.000000000000000  -0.050000000000000 0
ion Ni   0.000000000000000   0.500000000000000  -0.050000000000000 0
ion Ni   0.500000000000000   0.500000000000000  -0.050000000000000 0
ion Ni   0.250000000000000   0.250000000000000  -0.150000000000000 0
ion Ni   0.250000000000000   0.750000000000000  -0.150000000000000 0
ion Ni  -0.250000000000000   0.250000000000000  -0.150000000000000 0
ion Ni  -0.250000000000000   0.750000000000000  -0.150000000000000 0
ion O   0.241390519841178   0.246823059752043   0.139499754327102 1
ion O   0.257452512085297   0.742461667128651   0.137831888696236 1
ion O  -0.264683173543656   0.260772358498674   0.137556608289569 1
ion O  -0.249850896544494   0.752312691625349   0.137553054466668 1
ion O  -0.008524735566012   0.009057067822044   0.049259471953761 1
ion O   0.493784184017914  -0.003219821515706   0.044146025089408 1
ion O   0.004090218209269   0.505091675959157   0.044161596117155 1
ion O   0.503426848437742   0.493794493320329   0.043378859292231 1
ion O   0.250000000000000   0.250000000000000  -0.050000000000000 0
ion O   0.250000000000000   0.750000000000000  -0.050000000000000 0
ion O  -0.250000000000000   0.250000000000000  -0.050000000000000 0
ion O  -0.250000000000000   0.750000000000000  -0.050000000000000 0
ion O   0.000000000000000   0.000000000000000  -0.150000000000000 0
ion O   0.500000000000000   0.000000000000000  -0.150000000000000 0
ion O   0.000000000000000   0.500000000000000  -0.150000000000000 0
ion O   0.500000000000000   0.500000000000000  -0.150000000000000 0
ion O  -0.014297606009912  -0.007711467926302   0.228107857217432 1
ion H   0.098136268735098   0.094293367912387   0.243604851636131 1

# Forces in Lattice coordinates:
force Ni   0.003598224964129   0.001747948827997  -0.011789362874739 1
force Ni  -0.000992473903132  -0.004936865717814  -0.014331949636667 1
force Ni  -0.001320422403934   0.001931000919554   0.011285124728038 1
force Ni   0.000134766893636   0.001326592880997   0.001219712580872 1
force Ni   0.001842380783832   0.001130670574002   0.004947311707338 1
force Ni   0.000692500334776  -0.000250546598434   0.028895853651984 1
force Ni  -0.000067983606636  -0.000967387796117   0.016569883888669 1
force Ni  -0.000460316296455  -0.001714689643149   0.028996067671809 1
force Ni   0.004082909496328  -0.007703586733733  -0.516035363284401 0
force Ni  -0.000771476767089   0.003829194711333  -0.726682368747484 0
force Ni   0.002612272303563  -0.001242272380842  -0.732861895797572 0
force Ni  -0.000799364462887  -0.001137331382309  -0.814686403403296 0
force Ni   0.000814360627804   0.001765510309202   0.559455555215369 0
force Ni   0.000761156096006  -0.001911560166182   0.555263824587001 0
force Ni  -0.004401878115598   0.002581100798527   0.535308315161196 0
force Ni  -0.003016297364085  -0.001552972479969   0.557703716887675 0
force O   0.001053864829881  -0.013357295678043  -0.007623707314160 1
force O  -0.001001728798007  -0.005627575665781   0.016943953239767 1
force O  -0.001749365808375   0.000822772804788   0.006623154578325 1
force O   0.000771269633974   0.003270955156786   0.037902836023603 1
force O  -0.001172065879503   0.001696517358632  -0.034242249721763 1
force O   0.006206615902991   0.003842189781229  -0.001791590851153 1
force O  -0.001551810300719  -0.007037439028895  -0.020609511819396 1
force O  -0.002514944186898   0.000841722562604  -0.003798719821650 1
force O  -0.014340352138388  -0.010009036041127  -0.202608609176931 0
force O  -0.016633057583506   0.013109044657937  -0.235278967875044 0
force O   0.011319635528341  -0.014106880787448  -0.154364121963866 0
force O   0.006823729020449   0.011201418477229  -0.254936056075095 0
force O   0.007749283605389   0.001014263161311   0.295319414643199 0
force O   0.007776316837409   0.000805958048346   0.285216134858455 0
force O   0.005229412741838  -0.001028291965882   0.286440738995886 0
force O   0.006461089505634   0.000298737206940   0.278768785581946 0
force O  -0.005502390923485  -0.002321970196161   0.040335324629519 1
force H   0.007192573680249   0.005251537189717   0.003988883838085 1

# Energy components:
   Eewald =     7522.7000435034669863
       EH =     9995.3775628890834923
     Eloc =   -20332.6416555405266990
      Enl =     -852.2251583849289318
   Epulay =       -0.0001811209194131
      Exc =     -301.9048407355326162
       KE =     1229.9372284061801111
        U =        2.1290448432655023
-------------------------------------
     Etot =    -2736.6279561399105660
       TS =        0.0008525515000511
-------------------------------------
        F =    -2736.6288086914105406

IonicMinimize: Iter:  16  F: -2736.628808691410541  |grad|_K:  3.996e-04  alpha:  5.000e-01  linmin: -2.236e-03  t[s]:  23054.01
IonicMinimize: Converged (|Delta F|<1.000000e-04 for 3 iters).

#--- Lowdin population analysis ---
# oxidation-state Ni +3.622 +3.783 +3.782 +3.719 +3.402 +3.395 +3.387 +3.399 +3.453 +3.445 +3.445 +3.447 +3.816 +3.815 +3.821 +3.815
# magnetic-moments Ni +0.715 -1.009 +1.004 -0.951 +0.905 +0.901 -0.840 -0.906 -0.939 +0.927 -0.926 +0.932 -1.029 -1.027 +1.032 +1.028
# oxidation-state O -0.602 -0.599 -0.593 -0.583 -0.562 -0.582 -0.582 -0.574 -0.595 -0.595 -0.592 -0.594 -0.648 -0.653 -0.653 -0.654 -0.570
# magnetic-moments O +0.122 +0.186 -0.126 -0.190 -0.001 -0.043 +0.046 -0.017 -0.045 -0.048 +0.048 +0.046 -0.149 +0.125 -0.124 +0.121 +0.262
# oxidation-state H +0.384
# magnetic-moments H -0.005


Dumping 'OH.ionpos' ... done
Dumping 'OH.lattice' ... done
Dumping 'OH.Ecomponents' ... done
End date and time: Thu Mar 27 03:42:58 2025  (Duration: 0-6:24:18.00)
Done!
File 'min_progress.txt' has been deleted.
File 'min_details.txt' has been deleted.
File 'O_pos.txt' has been deleted.
File 'OH_pos.txt' has been deleted.
Directory 'runs' has been deleted.
File '/data2/jt577/March_2025/pure_RSO/ionic_relax_magnetism/pure_NiO/runs/wavefunctions/O.wfns' does not exist and cannot be copied.
File '/data2/jt577/March_2025/pure_RSO/ionic_relax_magnetism/pure_NiO/runs/wavefunctions/OH.wfns' does not exist and cannot be copied.
File '/data2/jt577/March_2025/pure_RSO/ionic_relax_magnetism/pure_NiO/runs/calc_20250326-150710/O/O.wfns' does not exist and cannot be copied.
File '/data2/jt577/March_2025/pure_RSO/ionic_relax_magnetism/pure_NiO/runs/calc_20250326-150710/OH/OH.wfns' does not exist and cannot be copied.
File '/data2/jt577/March_2025/pure_RSO/ionic_relax_magnetism/pure_NiO/runs/calc_20250326-150710/O/O.ionpos' has been copied to '/data2/jt577/March_2025/pure_RSO/ionic_relax_magnetism/pure_NiO/runs/positions/O.ionpos'.
File '/data2/jt577/March_2025/pure_RSO/ionic_relax_magnetism/pure_NiO/runs/calc_20250326-150710/O/O.lattice' has been copied to '/data2/jt577/March_2025/pure_RSO/ionic_relax_magnetism/pure_NiO/runs/positions/O.lattice'.
File '/data2/jt577/March_2025/pure_RSO/ionic_relax_magnetism/pure_NiO/runs/calc_20250326-150710/OH/OH.ionpos' has been copied to '/data2/jt577/March_2025/pure_RSO/ionic_relax_magnetism/pure_NiO/runs/positions/OH.ionpos'.
File '/data2/jt577/March_2025/pure_RSO/ionic_relax_magnetism/pure_NiO/runs/calc_20250326-150710/OH/OH.lattice' has been copied to '/data2/jt577/March_2025/pure_RSO/ionic_relax_magnetism/pure_NiO/runs/positions/OH.lattice'.
File '/data2/jt577/March_2025/pure_RSO/ionic_relax_magnetism/pure_NiO/runs/wavefunctions/O.wfns' does not exist and cannot be copied.
File '/data2/jt577/March_2025/pure_RSO/ionic_relax_magnetism/pure_NiO/runs/wavefunctions/OH.wfns' does not exist and cannot be copied.
Traceback (most recent call last):
  File "/data2/jt577/March_2025/pure_RSO/ionic_relax_magnetism/pure_NiO/main.py", line 247, in <module>
    x, _, unique_folder = mn.PBFGS(fun=cost, x0=x, jac=grad_cost, args=(elements, target, eta, q, first_iteration, generic_inputs, lattice, positions_ordered, ads_O_pos, ads_OH_pos), S=num_species, B=quasi_Hessian, folder=unique_folder, progress_file_path=progress_file_path, details_file_path=details_file_path, maxit=maxit, tol=1e-2, callback=callback_func)
  File "/data2/jt577/March_2025/pure_RSO/ionic_relax_magnetism/pure_NiO/modules/minimize.py", line 162, in PBFGS
    unique_folder = bs.perform_calc(x, *args)
  File "/data2/jt577/March_2025/pure_RSO/ionic_relax_magnetism/pure_NiO/modules/bsruncalc.py", line 152, in perform_calc
    energy_surface(w, adsorbate='O', elements=elements, folder=unique_folder, first_iteration=first_iteration, generic_inputs=generic_inputs, lattice=lattice, positions_ordered=positions_ordered, ads_O_pos=ads_O_pos, ads_OH_pos=ads_OH_pos)
  File "/data2/jt577/March_2025/pure_RSO/ionic_relax_magnetism/pure_NiO/modules/bsruncalc.py", line 128, in energy_surface
    write_input_surface(weights, adsorbate, elements, folder, first_iteration, generic_inputs, lattice, positions_ordered, ads_O_pos, ads_OH_pos)
  File "/data2/jt577/March_2025/pure_RSO/ionic_relax_magnetism/pure_NiO/modules/bsruncalc.py", line 82, in write_input_surface
    curr_line = mixed_lines[i]
IndexError: list index out of range
