
*************** JDFTx 1.7.0  ***************

Start date and time: Sat May 17 13:32:26 2025
Executable /data2/jt577/jdftx_eat_withLibXC/build/jdftx with command-line: -i /data2/jt577/May_2025/Relax_Mag_litU/pure_VO/runs/calc_20250516-211239/OH/OH.in
Running on hosts (process indices):  node3404 (0-8)
Divided in process groups (process indices):  0 (0)  1 (1)  2 (2)  3 (3)  4 (4)  5 (5)  6 (6)  7 (7)  8 (8)
Resource initialization completed at t[s]:      0.00
Run totals: 9 processes, 90 threads, 0 GPUs


Input parsed successfully to the following command list (including defaults):

add-mix 
add-U 	V d 0.113923
basis kpoint-dependent
coords-type Lattice
core-overlap-check vector
coulomb-interaction Periodic
davidson-band-ratio 1.1
dump End IonicPositions Lattice Ecomponents
dump-name OH.$VAR
elec-cutoff 30
elec-eigen-algo Davidson
elec-ex-corr gga-x-rpbe gga-c-pbe
elec-smearing Fermi 0.001
electronic-minimize  \
	dirUpdateScheme      FletcherReeves \
	linminMethod         DirUpdateRecommended \
	nIterations          1000 \
	history              15 \
	knormThreshold       0 \
	energyDiffThreshold  1e-06 \
	nEnergyDiff          5 \
	alphaTstart          1 \
	alphaTmin            1e-10 \
	updateTestStepSize   yes \
	alphaTreduceFactor   0.1 \
	alphaTincreaseFactor 3 \
	nAlphaAdjustMax      3 \
	wolfeEnergy          0.0001 \
	wolfeGradient        0.9 \
	fdTest               no
exchange-regularization WignerSeitzTruncated
fluid None
fluid-ex-corr (null) lda-PZ
fluid-gummel-loop 10 1.000000e-05
fluid-minimize  \
	dirUpdateScheme      PolakRibiere \
	linminMethod         DirUpdateRecommended \
	nIterations          100 \
	history              15 \
	knormThreshold       0 \
	energyDiffThreshold  0 \
	nEnergyDiff          2 \
	alphaTstart          1 \
	alphaTmin            1e-10 \
	updateTestStepSize   yes \
	alphaTreduceFactor   0.1 \
	alphaTincreaseFactor 3 \
	nAlphaAdjustMax      3 \
	wolfeEnergy          0.0001 \
	wolfeGradient        0.9 \
	fdTest               no
fluid-solvent H2O 55.338 ScalarEOS \
	epsBulk 78.4 \
	pMol 0.92466 \
	epsInf 1.77 \
	Pvap 1.06736e-10 \
	sigmaBulk 4.62e-05 \
	Rvdw 2.61727 \
	Res 1.42 \
	tauNuc 343133 \
	poleEl 15 7 1
forces-output-coords Positions
initial-magnetic-moments  \
	V 1 -1 1 -1 1 1 -1 -1 -1 1 -1 1 -1 -1 1 1
initial-state OH.$VAR
ion V  0.000000000000000   0.000000000000000   0.150000000000000 1
ion V  0.500000000000000   0.000000000000000   0.150000000000000 1
ion V  0.000000000000000   0.500000000000000   0.150000000000000 1
ion V  0.500000000000000   0.500000000000000   0.150000000000000 1
ion V  0.250000000000000   0.250000000000000   0.050000000000000 1
ion V  0.250000000000000   0.750000000000000   0.050000000000000 1
ion V -0.250000000000000   0.250000000000000   0.050000000000000 1
ion V -0.250000000000000   0.750000000000000   0.050000000000000 1
ion V  0.000000000000000   0.000000000000000  -0.050000000000000 0
ion V  0.500000000000000   0.000000000000000  -0.050000000000000 0
ion V  0.000000000000000   0.500000000000000  -0.050000000000000 0
ion V  0.500000000000000   0.500000000000000  -0.050000000000000 0
ion V  0.250000000000000   0.250000000000000  -0.150000000000000 0
ion V  0.250000000000000   0.750000000000000  -0.150000000000000 0
ion V -0.250000000000000   0.250000000000000  -0.150000000000000 0
ion V -0.250000000000000   0.750000000000000  -0.150000000000000 0
ion O  0.250000000000000   0.250000000000000   0.150000000000000 1
ion O  0.250000000000000   0.750000000000000   0.150000000000000 1
ion O -0.250000000000000   0.250000000000000   0.150000000000000 1
ion O -0.250000000000000   0.750000000000000   0.150000000000000 1
ion O  0.000000000000000   0.000000000000000   0.050000000000000 1
ion O  0.500000000000000   0.000000000000000   0.050000000000000 1
ion O  0.000000000000000   0.500000000000000   0.050000000000000 1
ion O  0.500000000000000   0.500000000000000   0.050000000000000 1
ion O  0.250000000000000   0.250000000000000  -0.050000000000000 0
ion O  0.250000000000000   0.750000000000000  -0.050000000000000 0
ion O -0.250000000000000   0.250000000000000  -0.050000000000000 0
ion O -0.250000000000000   0.750000000000000  -0.050000000000000 0
ion O  0.000000000000000   0.000000000000000  -0.150000000000000 0
ion O  0.500000000000000   0.000000000000000  -0.150000000000000 0
ion O  0.000000000000000   0.500000000000000  -0.150000000000000 0
ion O  0.500000000000000   0.500000000000000  -0.150000000000000 0
ion O  0.000000000000000   0.000000000000000   0.230000000000000 1
ion H  0.100000000000000   0.100000000000000   0.250000000000000 1
ion-species SG15/$ID_ONCV_PBE.upf
ion-width 0
ionic-minimize  \
	dirUpdateScheme      L-BFGS \
	linminMethod         DirUpdateRecommended \
	nIterations          1000 \
	history              15 \
	knormThreshold       0.0001 \
	energyDiffThreshold  0.0001 \
	nEnergyDiff          3 \
	alphaTstart          1 \
	alphaTmin            1e-10 \
	updateTestStepSize   yes \
	alphaTreduceFactor   0.1 \
	alphaTincreaseFactor 3 \
	nAlphaAdjustMax      3 \
	wolfeEnergy          0.0001 \
	wolfeGradient        0.9 \
	fdTest               no
kpoint   0.500000000000   0.500000000000   0.500000000000  1.00000000000000
kpoint-folding 3 3 1 
latt-move-scale 1 1 1
latt-scale 1 1 1 
lattice  \
	   8.260000000000000    8.260000000000000    0.000000000000000  \
	   8.260000000000000   -8.260000000000000    0.000000000000000  \
	   0.000000000000000    0.000000000000000   41.299999999999997 
lattice-minimize  \
	dirUpdateScheme      L-BFGS \
	linminMethod         DirUpdateRecommended \
	nIterations          0 \
	history              15 \
	knormThreshold       0 \
	energyDiffThreshold  1e-06 \
	nEnergyDiff          2 \
	alphaTstart          1 \
	alphaTmin            1e-10 \
	updateTestStepSize   yes \
	alphaTreduceFactor   0.1 \
	alphaTincreaseFactor 3 \
	nAlphaAdjustMax      3 \
	wolfeEnergy          0.0001 \
	wolfeGradient        0.9 \
	fdTest               no
lcao-params -1 1e-06 0.001
pcm-variant GLSSA13
spintype z-spin
subspace-rotation-factor 1 yes
symmetries none
symmetry-threshold 0.0001


Applied RMS atom displacement 0 bohrs to make symmetries exact.

---------- Initializing the Grid ----------
R = 
[         8.26         8.26            0  ]
[         8.26        -8.26            0  ]
[            0            0         41.3  ]
unit cell volume = 5635.6
G =
[   0.380338   0.380338         -0  ]
[   0.380338  -0.380338         -0  ]
[         -0         -0   0.152135  ]
Minimum fftbox size, Smin = [  60  60  204  ]
Chosen fftbox size, S = [  60  60  210  ]

---------- Exchange Correlation functional ----------
Initialized LibXC exchange functional 'Hammer, Hansen, and Norskov'
Initialized LibXC correlation functional 'Perdew, Burke & Ernzerhof'

---------- Setting up pseudopotentials ----------
Width of ionic core gaussian charges (only for fluid interactions / plotting) set to 0

Reading pseudopotential file '/data2/jt577/jdftx_eat_withLibXC/build/pseudopotentials/SG15/V_ONCV_PBE.upf':
  'V' pseudopotential, 'PBE' functional
  Generated using ONCVPSP code by D. R. Hamann
  Author: Martin Schlipf and Francois Gygi  Date: 150915.
  13 valence electrons, 4 orbitals, 6 projectors, 1536 radial grid points, with lMax = 2
  Transforming local potential to a uniform radial grid of dG=0.02 with 1398 points.
  Transforming nonlocal projectors to a uniform radial grid of dG=0.02 with 528 points.
    3S    l: 0   occupation:  2.0   eigenvalue: -2.581105
    3P    l: 1   occupation:  6.0   eigenvalue: -1.618486
    4S    l: 0   occupation:  2.0   eigenvalue: -0.172804
    3D    l: 2   occupation:  3.0   eigenvalue: -0.189795
  Transforming atomic orbitals to a uniform radial grid of dG=0.02 with 528 points.
  Core radius for overlap checks: 1.80 bohrs.
  Reading pulay file /data2/jt577/jdftx_eat_withLibXC/build/pseudopotentials/SG15/V_ONCV_PBE.pulay ... using dE_dnG = -1.698632e-04 computed for Ecut = 30.

Reading pseudopotential file '/data2/jt577/jdftx_eat_withLibXC/build/pseudopotentials/SG15/O_ONCV_PBE.upf':
  'O' pseudopotential, 'PBE' functional
  Generated using ONCVPSP code by D. R. Hamann
  Author: Martin Schlipf and Francois Gygi  Date: 150915.
  6 valence electrons, 2 orbitals, 4 projectors, 936 radial grid points, with lMax = 1
  Transforming local potential to a uniform radial grid of dG=0.02 with 1398 points.
  Transforming nonlocal projectors to a uniform radial grid of dG=0.02 with 528 points.
    2S    l: 0   occupation:  2.0   eigenvalue: -0.880572
    2P    l: 1   occupation:  4.0   eigenvalue: -0.331869
  Transforming atomic orbitals to a uniform radial grid of dG=0.02 with 528 points.
  Core radius for overlap checks: 1.29 bohrs.
  Reading pulay file /data2/jt577/jdftx_eat_withLibXC/build/pseudopotentials/SG15/O_ONCV_PBE.pulay ... using dE_dnG = -8.209514e-03 computed for Ecut = 30.

Reading pseudopotential file '/data2/jt577/jdftx_eat_withLibXC/build/pseudopotentials/SG15/H_ONCV_PBE.upf':
  'H' pseudopotential, 'PBE' functional
  Generated using ONCVPSP code by D. R. Hamann
  Author: Martin Schlipf and Francois Gygi  Date: 150915.
  1 valence electrons, 1 orbitals, 2 projectors, 1166 radial grid points, with lMax = 0
  Transforming local potential to a uniform radial grid of dG=0.02 with 1398 points.
  Transforming nonlocal projectors to a uniform radial grid of dG=0.02 with 528 points.
    1S    l: 0   occupation:  1.0   eigenvalue: -0.238602
  Transforming atomic orbitals to a uniform radial grid of dG=0.02 with 528 points.
  Core radius for overlap checks: 1.01 bohrs.
  Reading pulay file /data2/jt577/jdftx_eat_withLibXC/build/pseudopotentials/SG15/H_ONCV_PBE.pulay ... using dE_dnG = -8.245991e-05 computed for Ecut = 30.

Initialized 3 species with 34 total atoms.

Folded 1 k-points by 3x3x1 to 9 k-points.

---------- Setting up k-points, bands, fillings ----------
No reducable k-points. 
Computing the number of bands and number of electrons
Calculating initial fillings.
nElectrons: 311.000000   nBands: 229   nStates: 18

----- Setting up reduced wavefunction bases (one per k-point) -----
average nbasis = 44217.778 , ideal nbasis = 44229.907

---------- Setting up ewald sum ----------
Optimum gaussian width for ewald sums = 3.944364 bohr.
Real space sum over 605 unit cells with max indices [  5  5  2  ]
Reciprocal space sum over 5915 terms with max indices [  6  6  17  ]

---------- Allocating electronic variables ----------
Initializing wave functions:  linear combination of atomic orbitals
V (M=1) pseudo-atom majority spin occupations:   s ( 1 0 )  p ( 3 )  d ( 3 )
V (M=1) pseudo-atom minority spin occupations:   s ( 1 0 )  p ( 3 )  d ( 2 )
O pseudo-atom occupations:   s ( 2 )  p ( 4 )
H pseudo-atom occupations:   s ( 1 )
	FillingsUpdate:  mu: -0.326376260  nElectrons: 311.000000  magneticMoment: [ Abs: 6.13773  Tot: +0.00000 ]
LCAOMinimize: Iter:   0  F: -1384.5158658207594726  |grad|_K:  1.023e-02  alpha:  1.000e+00
	FillingsUpdate:  mu: +0.619869237  nElectrons: 311.000000  magneticMoment: [ Abs: 8.28108  Tot: -0.00000 ]
LCAOMinimize: Iter:   1  F: -1388.0933610709537334  |grad|_K:  1.782e-02  alpha:  9.498e-02  linmin:  3.051e-02  cgtest: -5.254e-01  t[s]:     42.85
	FillingsUpdate:  mu: +0.688572604  nElectrons: 311.000000  magneticMoment: [ Abs: 8.51216  Tot: -0.00000 ]
LCAOMinimize: Iter:   2  F: -1388.1522447876036495  |grad|_K:  1.911e-02  alpha:  1.755e-03  linmin: -1.343e-03  cgtest:  9.709e-01  t[s]:     57.65
LCAOMinimize: 	Wrong curvature in test step, increasing alphaT to 5.264723e-03.
	FillingsUpdate:  mu: +0.617663436  nElectrons: 311.000000  magneticMoment: [ Abs: 8.55372  Tot: -0.00000 ]
LCAOMinimize: Iter:   3  F: -1388.7733320070542504  |grad|_K:  1.869e-02  alpha: -6.609e-02  linmin: -1.083e-01  cgtest:  9.588e-01  t[s]:     71.45
LCAOMinimize: 	Step increased F by 1.907765e+02, reducing alpha to 1.256750e-02.
	FillingsUpdate:  mu: +0.198889301  nElectrons: 311.000000  magneticMoment: [ Abs: 8.80553  Tot: +0.00000 ]
LCAOMinimize: Iter:   4  F: -1392.9636454006622444  |grad|_K:  1.001e-02  alpha:  1.257e-02  linmin: -1.457e-01  cgtest:  6.951e-01  t[s]:     96.78
LCAOMinimize: Encountered beta<0, resetting CG.
LCAOMinimize: 	Predicted alpha/alphaT>3.000000, increasing alphaT to 3.770250e-02.
LCAOMinimize: 	Step increased F by 1.557046e+00, reducing alpha to 7.227630e-03.
	FillingsUpdate:  mu: +0.159279029  nElectrons: 311.000000  magneticMoment: [ Abs: 9.02210  Tot: -0.00000 ]
LCAOMinimize: Iter:   5  F: -1393.6366369126114932  |grad|_K:  9.297e-03  alpha:  7.228e-03  linmin: -1.487e-01  cgtest:  9.511e-01  t[s]:    126.44
LCAOMinimize: Encountered beta<0, resetting CG.
LCAOMinimize: 	Wrong curvature in test step, increasing alphaT to 2.168289e-02.
	FillingsUpdate:  mu: +0.123675331  nElectrons: 311.000000  magneticMoment: [ Abs: 9.29490  Tot: +0.00000 ]
LCAOMinimize: Iter:   6  F: -1394.2316494777178377  |grad|_K:  8.846e-03  alpha: -1.016e+01  linmin: -1.317e-01  cgtest:  9.464e-01  t[s]:    140.67
LCAOMinimize: 	Step increased F by 4.047297e+01, reducing alpha to 1.561448e-02.
	FillingsUpdate:  mu: +0.007849340  nElectrons: 311.000000  magneticMoment: [ Abs: 9.95368  Tot: +0.00000 ]
LCAOMinimize: Iter:   7  F: -1395.3429440715744931  |grad|_K:  7.726e-03  alpha:  1.561e-02  linmin: -1.384e-01  cgtest:  9.146e-01  t[s]:    166.83
LCAOMinimize: Encountered beta<0, resetting CG.
LCAOMinimize: 	Predicted alpha/alphaT>3.000000, increasing alphaT to 4.684343e-02.
LCAOMinimize: 	Predicted alpha/alphaT>3.000000, increasing alphaT to 1.405303e-01.
	FillingsUpdate:  mu: -0.076095402  nElectrons: 311.000000  magneticMoment: [ Abs: 14.24874  Tot: -0.00000 ]
LCAOMinimize: Iter:   8  F: -1398.9656465438079067  |grad|_K:  1.041e-02  alpha:  7.440e-02  linmin: -2.795e-02  cgtest:  2.384e-01  t[s]:    190.96
	FillingsUpdate:  mu: -0.212099090  nElectrons: 311.000000  magneticMoment: [ Abs: 20.58527  Tot: -0.00000 ]
LCAOMinimize: Iter:   9  F: -1402.8269650251074836  |grad|_K:  2.055e-02  alpha:  5.183e-02  linmin: -8.494e-04  cgtest:  2.278e-02  t[s]:    206.42
	FillingsUpdate:  mu: -0.081995325  nElectrons: 311.000000  magneticMoment: [ Abs: 21.74677  Tot: +0.00000 ]
LCAOMinimize: Iter:  10  F: -1404.4034776507353399  |grad|_K:  2.116e-02  alpha:  4.606e-03  linmin: -1.615e-02  cgtest:  9.267e-01  t[s]:    221.61
	FillingsUpdate:  mu: +0.008303969  nElectrons: 311.000000  magneticMoment: [ Abs: 22.16657  Tot: -0.00000 ]
LCAOMinimize: Iter:  11  F: -1406.3460518910335395  |grad|_K:  8.433e-03  alpha:  8.586e-03  linmin:  1.044e-02  cgtest: -3.219e-01  t[s]:    236.62
	FillingsUpdate:  mu: +0.242497806  nElectrons: 311.000000  magneticMoment: [ Abs: 23.19473  Tot: -0.00000 ]
LCAOMinimize: Iter:  12  F: -1406.8836820961068952  |grad|_K:  5.756e-03  alpha:  1.908e-02  linmin:  3.637e-02  cgtest:  2.059e-01  t[s]:    251.40
	FillingsUpdate:  mu: +0.219083013  nElectrons: 311.000000  magneticMoment: [ Abs: 24.27646  Tot: +0.00000 ]
LCAOMinimize: Iter:  13  F: -1407.0760797697905673  |grad|_K:  5.357e-03  alpha:  1.425e-02  linmin: -3.776e-04  cgtest:  2.239e-01  t[s]:    266.13
	FillingsUpdate:  mu: +0.139981136  nElectrons: 311.000000  magneticMoment: [ Abs: 26.42393  Tot: -0.00000 ]
LCAOMinimize: Iter:  14  F: -1407.4076315236968640  |grad|_K:  3.256e-03  alpha:  2.360e-02  linmin: -8.694e-03  cgtest: -1.947e-01  t[s]:    281.12
LCAOMinimize: 	Predicted alpha/alphaT>3.000000, increasing alphaT to 7.081421e-02.
	FillingsUpdate:  mu: +0.243891419  nElectrons: 311.000000  magneticMoment: [ Abs: 34.69564  Tot: +0.00000 ]
LCAOMinimize: Iter:  15  F: -1408.0799753322803554  |grad|_K:  2.094e-03  alpha:  1.135e-01  linmin: -1.906e-02  cgtest:  2.246e-01  t[s]:    300.26
	FillingsUpdate:  mu: +0.190556361  nElectrons: 311.000000  magneticMoment: [ Abs: 36.93310  Tot: -0.00000 ]
LCAOMinimize: Iter:  16  F: -1408.1157693721672786  |grad|_K:  3.415e-03  alpha:  6.132e-02  linmin:  7.279e-03  cgtest: -4.825e-01  t[s]:    315.13
	FillingsUpdate:  mu: +0.218865280  nElectrons: 311.000000  magneticMoment: [ Abs: 41.03485  Tot: +0.00000 ]
LCAOMinimize: Iter:  17  F: -1408.3271362281836900  |grad|_K:  1.678e-03  alpha:  4.948e-02  linmin: -1.672e-02  cgtest:  9.550e-01  t[s]:    330.04
LCAOMinimize: Encountered beta<0, resetting CG.
	FillingsUpdate:  mu: +0.237377333  nElectrons: 311.000000  magneticMoment: [ Abs: 41.51250  Tot: +0.00000 ]
LCAOMinimize: Iter:  18  F: -1408.3958262515191109  |grad|_K:  1.942e-03  alpha:  5.477e-02  linmin:  2.120e-02  cgtest:  1.292e-02  t[s]:    344.70
	FillingsUpdate:  mu: +0.241647220  nElectrons: 311.000000  magneticMoment: [ Abs: 42.55178  Tot: +0.00000 ]
LCAOMinimize: Iter:  19  F: -1408.4681704917302341  |grad|_K:  1.617e-03  alpha:  8.610e-02  linmin:  1.251e-02  cgtest: -5.399e-01  t[s]:    359.53
	FillingsUpdate:  mu: +0.261268481  nElectrons: 311.000000  magneticMoment: [ Abs: 43.17061  Tot: -0.00000 ]
LCAOMinimize: Iter:  20  F: -1408.5097340818433622  |grad|_K:  8.078e-04  alpha:  3.790e-02  linmin: -6.003e-03  cgtest:  4.818e-01  t[s]:    374.57
LCAOMinimize: 	Predicted alpha/alphaT>3.000000, increasing alphaT to 1.137139e-01.
	FillingsUpdate:  mu: +0.196675709  nElectrons: 311.000000  magneticMoment: [ Abs: 43.90883  Tot: -0.00000 ]
LCAOMinimize: Iter:  21  F: -1408.5339020955427713  |grad|_K:  8.637e-04  alpha:  2.098e-01  linmin:  2.301e-02  cgtest: -3.922e-01  t[s]:    393.94
	FillingsUpdate:  mu: +0.197233672  nElectrons: 311.000000  magneticMoment: [ Abs: 44.21607  Tot: -0.00000 ]
LCAOMinimize: Iter:  22  F: -1408.5364020134686598  |grad|_K:  7.400e-04  alpha:  3.982e-02  linmin:  7.943e-03  cgtest:  7.405e-01  t[s]:    408.78
LCAOMinimize: 	Predicted alpha/alphaT>3.000000, increasing alphaT to 1.194520e-01.
	FillingsUpdate:  mu: +0.236108619  nElectrons: 311.000000  magneticMoment: [ Abs: 44.64747  Tot: -0.00000 ]
LCAOMinimize: Iter:  23  F: -1408.5465755754933070  |grad|_K:  1.819e-03  alpha:  1.815e-01  linmin:  1.081e-02  cgtest: -2.925e-01  t[s]:    428.05
LCAOMinimize: 	Bad step direction: g.d > 0.
LCAOMinimize: 	Undoing step.
LCAOMinimize: 	Step failed: resetting search direction.
	FillingsUpdate:  mu: +0.236108619  nElectrons: 311.000000  magneticMoment: [ Abs: 44.64747  Tot: -0.00000 ]
LCAOMinimize: Iter:  24  F: -1408.5465755754933070  |grad|_K:  1.819e-03  alpha:  0.000e+00
LCAOMinimize: 	Step increased F by 4.568627e-02, reducing alpha to 7.959871e-03.
	FillingsUpdate:  mu: +0.237616817  nElectrons: 311.000000  magneticMoment: [ Abs: 44.67571  Tot: -0.00000 ]
LCAOMinimize: Iter:  25  F: -1408.5679879933964003  |grad|_K:  1.048e-03  alpha:  7.960e-03  linmin: -5.986e-02  cgtest:  8.931e-01  t[s]:    464.59
LCAOMinimize: Encountered beta<0, resetting CG.
	FillingsUpdate:  mu: +0.244832580  nElectrons: 311.000000  magneticMoment: [ Abs: 44.72415  Tot: -0.00000 ]
LCAOMinimize: Iter:  26  F: -1408.5767771068019556  |grad|_K:  4.746e-04  alpha:  1.744e-02  linmin:  9.287e-03  cgtest: -1.092e-01  t[s]:    479.49
LCAOMinimize: 	Predicted alpha/alphaT>3.000000, increasing alphaT to 5.230692e-02.
LCAOMinimize: 	Predicted alpha/alphaT>3.000000, increasing alphaT to 1.569208e-01.
	FillingsUpdate:  mu: +0.226117592  nElectrons: 311.000000  magneticMoment: [ Abs: 44.86025  Tot: -0.00000 ]
LCAOMinimize: Iter:  27  F: -1408.5899129623130648  |grad|_K:  3.232e-04  alpha:  6.956e-02  linmin: -3.542e-02  cgtest:  8.215e-01  t[s]:    503.06
LCAOMinimize: Encountered beta<0, resetting CG.
	FillingsUpdate:  mu: +0.212243895  nElectrons: 311.000000  magneticMoment: [ Abs: 44.89408  Tot: +0.00000 ]
LCAOMinimize: Iter:  28  F: -1408.5913909446614980  |grad|_K:  2.934e-04  alpha:  3.135e-02  linmin:  2.449e-03  cgtest: -8.099e-02  t[s]:    518.02
	FillingsUpdate:  mu: +0.212526383  nElectrons: 311.000000  magneticMoment: [ Abs: 45.03391  Tot: -0.00000 ]
LCAOMinimize: Iter:  29  F: -1408.5933536953943985  |grad|_K:  2.201e-04  alpha:  5.432e-02  linmin:  7.393e-03  cgtest:  2.834e-01  t[s]:    532.81
	FillingsUpdate:  mu: +0.219403860  nElectrons: 311.000000  magneticMoment: [ Abs: 45.22903  Tot: +0.00000 ]
LCAOMinimize: Iter:  30  F: -1408.5952957518884432  |grad|_K:  3.681e-04  alpha:  9.083e-02  linmin: -7.914e-04  cgtest:  6.971e-02  t[s]:    547.98
LCAOMinimize: None of the convergence criteria satisfied after 30 iterations.


---- Citations for features of the code used in this run ----

   Software package:
      R. Sundararaman, K. Letchworth-Weaver, K.A. Schwarz, D. Gunceler, Y. Ozhabes and T.A. Arias, 'JDFTx: software for joint density-functional theory', SoftwareX 6, 278 (2017)

   Simplified rotationally-invariant DFT+U:
      S. L. Dudarev et al., Phys. Rev. B 57, 1505 (1998)

   LibXC library of exchange-correlation functions:
      M. A. L. Marques, M. J. T. Oliveira and T. Burnus, Comput. Phys. Commun. 183, 2272 (2012)

   Hammer, Hansen, and Norskov exchange functional:
      B. Hammer, L. B. Hansen, and J. K. Nørskov, Phys. Rev. B 59, 7413 (1999)

   Perdew, Burke & Ernzerhof correlation functional:
      J. P. Perdew, K. Burke, and M. Ernzerhof, Phys. Rev. Lett. 77, 3865 (1996)

   Pseudopotentials:
      M Schlipf and F Gygi, Comput. Phys. Commun. 196, 36 (2015)

   Total energy minimization with Auxiliary Hamiltonian:
      C. Freysoldt, S. Boeck, and J. Neugebauer, Phys. Rev. B 79, 241103(R) (2009)

This list may not be complete. Please suggest additional citations or
report any other bugs at https://github.com/shankar1729/jdftx/issues

Initialization completed successfully at t[s]:    554.26


-------- Electronic minimization -----------
	FillingsUpdate:  mu: +0.219403923  nElectrons: 311.000000  magneticMoment: [ Abs: 45.22903  Tot: +0.00000 ]
ElecMinimize: Iter:   0  F: -1408.595295751890490  |grad|_K:  1.132e-04  alpha:  1.000e+00
	FillingsUpdate:  mu: +0.171214872  nElectrons: 311.000000  magneticMoment: [ Abs: 45.61241  Tot: -0.00000 ]
	SubspaceRotationAdjust: set factor to 0.722
ElecMinimize: Iter:   1  F: -1409.435684066301746  |grad|_K:  1.110e-04  alpha:  4.082e-01  linmin:  1.317e-04  t[s]:    647.08
	FillingsUpdate:  mu: +0.189852979  nElectrons: 311.000000  magneticMoment: [ Abs: 45.64979  Tot: +0.00000 ]
	SubspaceRotationAdjust: set factor to 0.514
ElecMinimize: Iter:   2  F: -1409.554740716601600  |grad|_K:  1.056e-04  alpha:  2.574e-02  linmin: -4.992e-03  t[s]:    721.71
	FillingsUpdate:  mu: +0.195773678  nElectrons: 311.000000  magneticMoment: [ Abs: 45.74226  Tot: +0.00000 ]
	SubspaceRotationAdjust: set factor to 0.302
ElecMinimize: Iter:   3  F: -1409.628289772352218  |grad|_K:  7.849e-05  alpha:  1.644e-02  linmin:  1.501e-03  t[s]:    798.18
ElecMinimize: 	Predicted alpha/alphaT>3.000000, increasing alphaT to 4.930704e-02.
ElecMinimize: 	Wrong curvature in test step, increasing alphaT to 1.479211e-01.
	FillingsUpdate:  mu: +0.173478322  nElectrons: 311.000000  magneticMoment: [ Abs: 45.78007  Tot: -0.00000 ]
	SubspaceRotationAdjust: set factor to 0.361
ElecMinimize: Iter:   4  F: -1409.695646994589197  |grad|_K:  5.616e-05  alpha: -7.025e-02  linmin: -2.102e-03  t[s]:    878.16
	FillingsUpdate:  mu: +0.179524482  nElectrons: 311.000000  magneticMoment: [ Abs: 45.87375  Tot: +0.00000 ]
	SubspaceRotationAdjust: set factor to 0.457
ElecMinimize: Iter:   5  F: -1409.909678732219163  |grad|_K:  5.291e-05  alpha:  2.261e-01  linmin:  2.720e-04  t[s]:    954.54
	FillingsUpdate:  mu: +0.170313924  nElectrons: 311.000000  magneticMoment: [ Abs: 45.95116  Tot: +0.00000 ]
	SubspaceRotationAdjust: set factor to 0.505
ElecMinimize: Iter:   6  F: -1409.980004183063329  |grad|_K:  5.562e-05  alpha:  1.716e-01  linmin: -4.310e-05  t[s]:   1031.36
	FillingsUpdate:  mu: +0.175558736  nElectrons: 311.000000  magneticMoment: [ Abs: 45.98338  Tot: -0.00000 ]
	SubspaceRotationAdjust: set factor to 0.475
ElecMinimize: Iter:   7  F: -1410.037971079599174  |grad|_K:  4.394e-05  alpha:  6.972e-02  linmin: -4.054e-04  t[s]:   1109.48
	FillingsUpdate:  mu: +0.185209183  nElectrons: 311.000000  magneticMoment: [ Abs: 46.00354  Tot: -0.00000 ]
	SubspaceRotationAdjust: set factor to 0.353
ElecMinimize: Iter:   8  F: -1410.077591462357304  |grad|_K:  4.809e-05  alpha:  9.034e-02  linmin: -7.320e-05  t[s]:   1187.72
	FillingsUpdate:  mu: +0.167512084  nElectrons: 311.000000  magneticMoment: [ Abs: 46.03023  Tot: -0.00000 ]
	SubspaceRotationAdjust: set factor to 0.403
ElecMinimize: Iter:   9  F: -1410.103524414876574  |grad|_K:  3.153e-05  alpha:  3.895e-02  linmin: -1.144e-03  t[s]:   1266.04
	FillingsUpdate:  mu: +0.176320687  nElectrons: 311.000000  magneticMoment: [ Abs: 46.04177  Tot: -0.00000 ]
	SubspaceRotationAdjust: set factor to 0.34
ElecMinimize: Iter:  10  F: -1410.112461192014280  |grad|_K:  2.484e-05  alpha:  3.180e-02  linmin:  2.524e-04  t[s]:   1346.59
	FillingsUpdate:  mu: +0.175967458  nElectrons: 311.000000  magneticMoment: [ Abs: 46.05283  Tot: +0.00000 ]
	SubspaceRotationAdjust: set factor to 0.278
ElecMinimize: Iter:  11  F: -1410.116324671522989  |grad|_K:  3.102e-05  alpha:  3.768e-02  linmin: -1.375e-04  t[s]:   1424.12
	FillingsUpdate:  mu: +0.177195437  nElectrons: 311.000000  magneticMoment: [ Abs: 46.08544  Tot: +0.00000 ]
	SubspaceRotationAdjust: set factor to 0.183
ElecMinimize: Iter:  12  F: -1410.128527246849671  |grad|_K:  2.975e-05  alpha:  6.365e-02  linmin: -3.100e-04  t[s]:   1503.17
	FillingsUpdate:  mu: +0.174499183  nElectrons: 311.000000  magneticMoment: [ Abs: 46.09902  Tot: +0.00000 ]
	SubspaceRotationAdjust: set factor to 0.255
ElecMinimize: Iter:  13  F: -1410.135932681993609  |grad|_K:  1.895e-05  alpha:  3.704e-02  linmin: -1.596e-04  t[s]:   1579.34
	FillingsUpdate:  mu: +0.151203401  nElectrons: 311.000000  magneticMoment: [ Abs: 46.10895  Tot: +0.00000 ]
	SubspaceRotationAdjust: set factor to 0.289
ElecMinimize: Iter:  14  F: -1410.138950102381841  |grad|_K:  1.971e-05  alpha:  4.463e-02  linmin:  1.739e-04  t[s]:   1656.83
	FillingsUpdate:  mu: +0.164172982  nElectrons: 311.000000  magneticMoment: [ Abs: 46.13241  Tot: +0.00000 ]
	SubspaceRotationAdjust: set factor to 0.199
ElecMinimize: Iter:  15  F: -1410.142062970948473  |grad|_K:  2.568e-05  alpha:  4.620e-02  linmin:  8.288e-05  t[s]:   1730.35
	FillingsUpdate:  mu: +0.169774185  nElectrons: 311.000000  magneticMoment: [ Abs: 46.17501  Tot: +0.00000 ]
	SubspaceRotationAdjust: set factor to 0.138
ElecMinimize: Iter:  16  F: -1410.146120735500745  |grad|_K:  2.294e-05  alpha:  3.442e-02  linmin:  1.866e-05  t[s]:   1808.39
	FillingsUpdate:  mu: +0.165098867  nElectrons: 311.000000  magneticMoment: [ Abs: 46.21589  Tot: +0.00000 ]
	SubspaceRotationAdjust: set factor to 0.142
ElecMinimize: Iter:  17  F: -1410.149342169281454  |grad|_K:  1.650e-05  alpha:  3.367e-02  linmin: -5.249e-05  t[s]:   1885.72
	FillingsUpdate:  mu: +0.173477318  nElectrons: 311.000000  magneticMoment: [ Abs: 46.24812  Tot: +0.00000 ]
	SubspaceRotationAdjust: set factor to 0.202
ElecMinimize: Iter:  18  F: -1410.151644665095773  |grad|_K:  1.314e-05  alpha:  4.480e-02  linmin: -3.436e-04  t[s]:   1962.67
	FillingsUpdate:  mu: +0.170704384  nElectrons: 311.000000  magneticMoment: [ Abs: 46.27717  Tot: +0.00000 ]
	SubspaceRotationAdjust: set factor to 0.232
ElecMinimize: Iter:  19  F: -1410.153742982030280  |grad|_K:  1.147e-05  alpha:  6.142e-02  linmin: -3.811e-04  t[s]:   2041.73
	FillingsUpdate:  mu: +0.166931445  nElectrons: 311.000000  magneticMoment: [ Abs: 46.30080  Tot: +0.00000 ]
	SubspaceRotationAdjust: set factor to 0.201
ElecMinimize: Iter:  20  F: -1410.155546526746548  |grad|_K:  1.209e-05  alpha:  7.141e-02  linmin:  8.206e-05  t[s]:   2118.10
	FillingsUpdate:  mu: +0.168404185  nElectrons: 311.000000  magneticMoment: [ Abs: 46.32224  Tot: +0.00000 ]
	SubspaceRotationAdjust: set factor to 0.224
ElecMinimize: Iter:  21  F: -1410.157370506444295  |grad|_K:  1.102e-05  alpha:  6.875e-02  linmin:  1.733e-04  t[s]:   2196.49
	FillingsUpdate:  mu: +0.164427014  nElectrons: 311.000000  magneticMoment: [ Abs: 46.33174  Tot: -0.00000 ]
	SubspaceRotationAdjust: set factor to 0.266
ElecMinimize: Iter:  22  F: -1410.158433331374454  |grad|_K:  9.053e-06  alpha:  4.595e-02  linmin:  7.421e-06  t[s]:   2273.66
	FillingsUpdate:  mu: +0.155658259  nElectrons: 311.000000  magneticMoment: [ Abs: 46.33768  Tot: +0.00000 ]
	SubspaceRotationAdjust: set factor to 0.268
ElecMinimize: Iter:  23  F: -1410.159096544963404  |grad|_K:  9.886e-06  alpha:  4.424e-02  linmin:  1.720e-04  t[s]:   2354.29
	FillingsUpdate:  mu: +0.153915853  nElectrons: 311.000000  magneticMoment: [ Abs: 46.34842  Tot: -0.00000 ]
	SubspaceRotationAdjust: set factor to 0.182
ElecMinimize: Iter:  24  F: -1410.159997163783601  |grad|_K:  1.234e-05  alpha:  5.179e-02  linmin:  6.696e-05  t[s]:   2431.71
	FillingsUpdate:  mu: +0.154136176  nElectrons: 311.000000  magneticMoment: [ Abs: 46.36370  Tot: -0.00000 ]
	SubspaceRotationAdjust: set factor to 0.143
ElecMinimize: Iter:  25  F: -1410.161063540901523  |grad|_K:  9.540e-06  alpha:  3.870e-02  linmin:  2.713e-07  t[s]:   2506.49
	FillingsUpdate:  mu: +0.156531131  nElectrons: 311.000000  magneticMoment: [ Abs: 46.37446  Tot: +0.00000 ]
	SubspaceRotationAdjust: set factor to 0.228
ElecMinimize: Iter:  26  F: -1410.161733828665547  |grad|_K:  6.916e-06  alpha:  4.027e-02  linmin: -5.326e-05  t[s]:   2586.42
	FillingsUpdate:  mu: +0.163887577  nElectrons: 311.000000  magneticMoment: [ Abs: 46.38208  Tot: -0.00000 ]
	SubspaceRotationAdjust: set factor to 0.223
ElecMinimize: Iter:  27  F: -1410.162218988358518  |grad|_K:  6.439e-06  alpha:  5.436e-02  linmin: -1.292e-04  t[s]:   2666.09
	FillingsUpdate:  mu: +0.167215158  nElectrons: 311.000000  magneticMoment: [ Abs: 46.38952  Tot: -0.00000 ]
	SubspaceRotationAdjust: set factor to 0.223
ElecMinimize: Iter:  28  F: -1410.162848314311532  |grad|_K:  7.107e-06  alpha:  7.946e-02  linmin: -1.421e-04  t[s]:   2746.23
	FillingsUpdate:  mu: +0.166693912  nElectrons: 311.000000  magneticMoment: [ Abs: 46.39303  Tot: +0.00000 ]
	SubspaceRotationAdjust: set factor to 0.254
ElecMinimize: Iter:  29  F: -1410.163505901038207  |grad|_K:  5.900e-06  alpha:  6.876e-02  linmin:  3.606e-06  t[s]:   2822.02
	FillingsUpdate:  mu: +0.164895771  nElectrons: 311.000000  magneticMoment: [ Abs: 46.39117  Tot: +0.00000 ]
	SubspaceRotationAdjust: set factor to 0.297
ElecMinimize: Iter:  30  F: -1410.163882771346834  |grad|_K:  5.134e-06  alpha:  5.901e-02  linmin:  3.480e-05  t[s]:   2898.61
	FillingsUpdate:  mu: +0.161461625  nElectrons: 311.000000  magneticMoment: [ Abs: 46.38590  Tot: -0.00000 ]
	SubspaceRotationAdjust: set factor to 0.26
ElecMinimize: Iter:  31  F: -1410.164218587695586  |grad|_K:  6.153e-06  alpha:  7.116e-02  linmin:  1.057e-04  t[s]:   2976.05
	FillingsUpdate:  mu: +0.158168780  nElectrons: 311.000000  magneticMoment: [ Abs: 46.37908  Tot: -0.00000 ]
	SubspaceRotationAdjust: set factor to 0.25
ElecMinimize: Iter:  32  F: -1410.164574840181558  |grad|_K:  5.629e-06  alpha:  5.338e-02  linmin:  8.101e-06  t[s]:   3053.19
	FillingsUpdate:  mu: +0.158440053  nElectrons: 311.000000  magneticMoment: [ Abs: 46.37418  Tot: +0.00000 ]
	SubspaceRotationAdjust: set factor to 0.327
ElecMinimize: Iter:  33  F: -1410.164823101740694  |grad|_K:  4.283e-06  alpha:  4.310e-02  linmin: -1.375e-06  t[s]:   3131.68
	FillingsUpdate:  mu: +0.163113689  nElectrons: 311.000000  magneticMoment: [ Abs: 46.36997  Tot: -0.00000 ]
	SubspaceRotationAdjust: set factor to 0.336
ElecMinimize: Iter:  34  F: -1410.165005582710819  |grad|_K:  4.653e-06  alpha:  5.429e-02  linmin: -1.460e-05  t[s]:   3207.56
	FillingsUpdate:  mu: +0.164647627  nElectrons: 311.000000  magneticMoment: [ Abs: 46.36202  Tot: -0.00000 ]
	SubspaceRotationAdjust: set factor to 0.246
ElecMinimize: Iter:  35  F: -1410.165276843117454  |grad|_K:  4.887e-06  alpha:  6.794e-02  linmin: -2.120e-05  t[s]:   3284.46
	FillingsUpdate:  mu: +0.160820982  nElectrons: 311.000000  magneticMoment: [ Abs: 46.35598  Tot: -0.00000 ]
	SubspaceRotationAdjust: set factor to 0.4
ElecMinimize: Iter:  36  F: -1410.165446925406059  |grad|_K:  3.079e-06  alpha:  3.808e-02  linmin: -1.104e-05  t[s]:   3361.02
	FillingsUpdate:  mu: +0.158722212  nElectrons: 311.000000  magneticMoment: [ Abs: 46.35186  Tot: +0.00000 ]
	SubspaceRotationAdjust: set factor to 0.369
ElecMinimize: Iter:  37  F: -1410.165543699480850  |grad|_K:  3.311e-06  alpha:  5.582e-02  linmin:  2.275e-05  t[s]:   3441.82
	FillingsUpdate:  mu: +0.159850561  nElectrons: 311.000000  magneticMoment: [ Abs: 46.34510  Tot: +0.00000 ]
	SubspaceRotationAdjust: set factor to 0.293
ElecMinimize: Iter:  38  F: -1410.165701633550952  |grad|_K:  3.748e-06  alpha:  7.973e-02  linmin:  3.201e-06  t[s]:   3519.69
	FillingsUpdate:  mu: +0.161344922  nElectrons: 311.000000  magneticMoment: [ Abs: 46.33978  Tot: +0.00000 ]
	SubspaceRotationAdjust: set factor to 0.426
ElecMinimize: Iter:  39  F: -1410.165823814518262  |grad|_K:  2.633e-06  alpha:  4.867e-02  linmin:  1.078e-05  t[s]:   3598.16
	FillingsUpdate:  mu: +0.161807708  nElectrons: 311.000000  magneticMoment: [ Abs: 46.33489  Tot: +0.00000 ]
	SubspaceRotationAdjust: set factor to 0.37
ElecMinimize: Iter:  40  F: -1410.165918147077491  |grad|_K:  2.955e-06  alpha:  7.441e-02  linmin: -2.880e-05  t[s]:   3675.82
	FillingsUpdate:  mu: +0.159873133  nElectrons: 311.000000  magneticMoment: [ Abs: 46.32891  Tot: +0.00000 ]
	SubspaceRotationAdjust: set factor to 0.513
ElecMinimize: Iter:  41  F: -1410.166006867439137  |grad|_K:  2.024e-06  alpha:  5.419e-02  linmin:  9.829e-06  t[s]:   3753.22
	FillingsUpdate:  mu: +0.158007710  nElectrons: 311.000000  magneticMoment: [ Abs: 46.32530  Tot: +0.00000 ]
	SubspaceRotationAdjust: set factor to 0.477
ElecMinimize: Iter:  42  F: -1410.166052518448851  |grad|_K:  2.362e-06  alpha:  6.149e-02  linmin:  4.098e-05  t[s]:   3830.45
	FillingsUpdate:  mu: +0.157435589  nElectrons: 311.000000  magneticMoment: [ Abs: 46.31948  Tot: +0.00000 ]
	SubspaceRotationAdjust: set factor to 0.376
ElecMinimize: Iter:  43  F: -1410.166134438818517  |grad|_K:  2.360e-06  alpha:  8.209e-02  linmin:  1.722e-05  t[s]:   3908.17
	FillingsUpdate:  mu: +0.159251134  nElectrons: 311.000000  magneticMoment: [ Abs: 46.31702  Tot: -0.00000 ]
	SubspaceRotationAdjust: set factor to 0.443
ElecMinimize: Iter:  44  F: -1410.166176053258596  |grad|_K:  1.663e-06  alpha:  4.167e-02  linmin:  1.483e-05  t[s]:   3983.93
	FillingsUpdate:  mu: +0.160214506  nElectrons: 311.000000  magneticMoment: [ Abs: 46.31447  Tot: -0.00000 ]
	SubspaceRotationAdjust: set factor to 0.454
ElecMinimize: Iter:  45  F: -1410.166217298102993  |grad|_K:  1.789e-06  alpha:  8.164e-02  linmin: -3.134e-05  t[s]:   4060.20
	FillingsUpdate:  mu: +0.159865185  nElectrons: 311.000000  magneticMoment: [ Abs: 46.31203  Tot: +0.00000 ]
	SubspaceRotationAdjust: set factor to 0.458
ElecMinimize: Iter:  46  F: -1410.166247031662351  |grad|_K:  1.475e-06  alpha:  5.002e-02  linmin: -2.037e-06  t[s]:   4138.99
	FillingsUpdate:  mu: +0.159333094  nElectrons: 311.000000  magneticMoment: [ Abs: 46.30804  Tot: +0.00000 ]
	SubspaceRotationAdjust: set factor to 0.323
ElecMinimize: Iter:  47  F: -1410.166285698064030  |grad|_K:  1.968e-06  alpha:  9.770e-02  linmin:  2.680e-05  t[s]:   4216.05
	FillingsUpdate:  mu: +0.159542176  nElectrons: 311.000000  magneticMoment: [ Abs: 46.30472  Tot: +0.00000 ]
	SubspaceRotationAdjust: set factor to 0.54
ElecMinimize: Iter:  48  F: -1410.166318344252886  |grad|_K:  1.172e-06  alpha:  4.693e-02  linmin:  8.069e-06  t[s]:   4295.64
	FillingsUpdate:  mu: +0.159888894  nElectrons: 311.000000  magneticMoment: [ Abs: 46.30296  Tot: -0.00000 ]
	SubspaceRotationAdjust: set factor to 0.494
ElecMinimize: Iter:  49  F: -1410.166336213011391  |grad|_K:  1.345e-06  alpha:  7.136e-02  linmin: -5.933e-06  t[s]:   4374.57
	FillingsUpdate:  mu: +0.159176580  nElectrons: 311.000000  magneticMoment: [ Abs: 46.30037  Tot: +0.00000 ]
	SubspaceRotationAdjust: set factor to 0.591
ElecMinimize: Iter:  50  F: -1410.166359294686799  |grad|_K:  1.057e-06  alpha:  6.964e-02  linmin:  9.716e-06  t[s]:   4451.71
	FillingsUpdate:  mu: +0.158602311  nElectrons: 311.000000  magneticMoment: [ Abs: 46.29881  Tot: -0.00000 ]
	SubspaceRotationAdjust: set factor to 0.46
ElecMinimize: Iter:  51  F: -1410.166377726787459  |grad|_K:  1.280e-06  alpha:  9.073e-02  linmin:  3.976e-06  t[s]:   4528.37
	FillingsUpdate:  mu: +0.159449280  nElectrons: 311.000000  magneticMoment: [ Abs: 46.29824  Tot: +0.00000 ]
	SubspaceRotationAdjust: set factor to 0.458
ElecMinimize: Iter:  52  F: -1410.166390639348492  |grad|_K:  7.934e-07  alpha:  4.330e-02  linmin:  1.340e-06  t[s]:   4605.88
	FillingsUpdate:  mu: +0.160071061  nElectrons: 311.000000  magneticMoment: [ Abs: 46.29799  Tot: -0.00000 ]
	SubspaceRotationAdjust: set factor to 0.385
ElecMinimize: Iter:  53  F: -1410.166403169855357  |grad|_K:  1.024e-06  alpha:  1.088e-01  linmin: -6.548e-06  t[s]:   4685.75
	FillingsUpdate:  mu: +0.159761423  nElectrons: 311.000000  magneticMoment: [ Abs: 46.29751  Tot: -0.00000 ]
	SubspaceRotationAdjust: set factor to 0.481
ElecMinimize: Iter:  54  F: -1410.166414615873009  |grad|_K:  7.506e-07  alpha:  5.941e-02  linmin: -9.781e-07  t[s]:   4761.45
	FillingsUpdate:  mu: +0.159289189  nElectrons: 311.000000  magneticMoment: [ Abs: 46.29700  Tot: +0.00000 ]
	SubspaceRotationAdjust: set factor to 0.46
ElecMinimize: Iter:  55  F: -1410.166424730390190  |grad|_K:  8.050e-07  alpha:  9.834e-02  linmin:  5.152e-06  t[s]:   4838.73
	FillingsUpdate:  mu: +0.159462941  nElectrons: 311.000000  magneticMoment: [ Abs: 46.29689  Tot: -0.00000 ]
	SubspaceRotationAdjust: set factor to 0.401
ElecMinimize: Iter:  56  F: -1410.166430297163970  |grad|_K:  5.788e-07  alpha:  4.727e-02  linmin:  1.684e-06  t[s]:   4919.18
	FillingsUpdate:  mu: +0.159609717  nElectrons: 311.000000  magneticMoment: [ Abs: 46.29691  Tot: -0.00000 ]
	SubspaceRotationAdjust: set factor to 0.32
ElecMinimize: Iter:  57  F: -1410.166437557137897  |grad|_K:  7.310e-07  alpha:  1.186e-01  linmin: -2.780e-06  t[s]:   4996.29
	FillingsUpdate:  mu: +0.159233691  nElectrons: 311.000000  magneticMoment: [ Abs: 46.29694  Tot: +0.00000 ]
	SubspaceRotationAdjust: set factor to 0.413
ElecMinimize: Iter:  58  F: -1410.166443304981385  |grad|_K:  5.030e-07  alpha:  5.850e-02  linmin: -3.967e-06  t[s]:   5073.65
	FillingsUpdate:  mu: +0.159144305  nElectrons: 311.000000  magneticMoment: [ Abs: 46.29724  Tot: -0.00000 ]
	SubspaceRotationAdjust: set factor to 0.41
ElecMinimize: Iter:  59  F: -1410.166448088792777  |grad|_K:  5.808e-07  alpha:  1.033e-01  linmin:  2.232e-06  t[s]:   5151.55
	FillingsUpdate:  mu: +0.159548609  nElectrons: 311.000000  magneticMoment: [ Abs: 46.29770  Tot: -0.00000 ]
	SubspaceRotationAdjust: set factor to 0.4
ElecMinimize: Iter:  60  F: -1410.166451647209442  |grad|_K:  4.352e-07  alpha:  5.798e-02  linmin:  1.599e-06  t[s]:   5227.70
	FillingsUpdate:  mu: +0.159797708  nElectrons: 311.000000  magneticMoment: [ Abs: 46.29830  Tot: +0.00000 ]
	SubspaceRotationAdjust: set factor to 0.311
ElecMinimize: Iter:  61  F: -1410.166455655079289  |grad|_K:  5.633e-07  alpha:  1.158e-01  linmin: -3.698e-06  t[s]:   5304.56
	FillingsUpdate:  mu: +0.159532729  nElectrons: 311.000000  magneticMoment: [ Abs: 46.29867  Tot: +0.00000 ]
	SubspaceRotationAdjust: set factor to 0.418
ElecMinimize: Iter:  62  F: -1410.166459070011797  |grad|_K:  3.534e-07  alpha:  5.859e-02  linmin: -1.664e-06  t[s]:   5381.47
	FillingsUpdate:  mu: +0.159238983  nElectrons: 311.000000  magneticMoment: [ Abs: 46.29892  Tot: -0.00000 ]
	SubspaceRotationAdjust: set factor to 0.396
ElecMinimize: Iter:  63  F: -1410.166461368674163  |grad|_K:  4.297e-07  alpha:  1.007e-01  linmin:  4.015e-06  t[s]:   5459.95
	FillingsUpdate:  mu: +0.159334214  nElectrons: 311.000000  magneticMoment: [ Abs: 46.29933  Tot: +0.00000 ]
	SubspaceRotationAdjust: set factor to 0.455
ElecMinimize: Iter:  64  F: -1410.166463603184866  |grad|_K:  3.100e-07  alpha:  6.641e-02  linmin:  7.469e-07  t[s]:   5540.21
	FillingsUpdate:  mu: +0.159535165  nElectrons: 311.000000  magneticMoment: [ Abs: 46.29976  Tot: -0.00000 ]
	SubspaceRotationAdjust: set factor to 0.369
ElecMinimize: Iter:  65  F: -1410.166465448575309  |grad|_K:  3.841e-07  alpha:  1.051e-01  linmin:  4.181e-07  t[s]:   5617.62
	FillingsUpdate:  mu: +0.159430574  nElectrons: 311.000000  magneticMoment: [ Abs: 46.30005  Tot: -0.00000 ]
	SubspaceRotationAdjust: set factor to 0.406
ElecMinimize: Iter:  66  F: -1410.166466932510048  |grad|_K:  2.449e-07  alpha:  5.503e-02  linmin:  4.018e-07  t[s]:   5693.73
	FillingsUpdate:  mu: +0.159336907  nElectrons: 311.000000  magneticMoment: [ Abs: 46.30024  Tot: -0.00000 ]
	SubspaceRotationAdjust: set factor to 0.342
ElecMinimize: Iter:  67  F: -1410.166468206542504  |grad|_K:  3.290e-07  alpha:  1.163e-01  linmin:  1.561e-06  t[s]:   5772.03
	FillingsUpdate:  mu: +0.159480157  nElectrons: 311.000000  magneticMoment: [ Abs: 46.30048  Tot: -0.00000 ]
	SubspaceRotationAdjust: set factor to 0.449
ElecMinimize: Iter:  68  F: -1410.166469550977354  |grad|_K:  2.286e-07  alpha:  6.810e-02  linmin:  1.489e-06  t[s]:   5852.75
	FillingsUpdate:  mu: +0.159534951  nElectrons: 311.000000  magneticMoment: [ Abs: 46.30058  Tot: -0.00000 ]
	SubspaceRotationAdjust: set factor to 0.404
ElecMinimize: Iter:  69  F: -1410.166470542722209  |grad|_K:  2.723e-07  alpha:  1.039e-01  linmin:  3.675e-08  t[s]:   5935.07
	FillingsUpdate:  mu: +0.159356579  nElectrons: 311.000000  magneticMoment: [ Abs: 46.30057  Tot: +0.00000 ]
	SubspaceRotationAdjust: set factor to 0.395
ElecMinimize: Iter:  70  F: -1410.166471316990737  |grad|_K:  1.866e-07  alpha:  5.702e-02  linmin:  4.461e-08  t[s]:   6013.55
	FillingsUpdate:  mu: +0.159217768  nElectrons: 311.000000  magneticMoment: [ Abs: 46.30060  Tot: +0.00000 ]
	SubspaceRotationAdjust: set factor to 0.319
ElecMinimize: Iter:  71  F: -1410.166472111178791  |grad|_K:  2.468e-07  alpha:  1.251e-01  linmin:  4.679e-06  t[s]:   6089.42
	FillingsUpdate:  mu: +0.159326711  nElectrons: 311.000000  magneticMoment: [ Abs: 46.30073  Tot: -0.00000 ]
	SubspaceRotationAdjust: set factor to 0.403
ElecMinimize: Iter:  72  F: -1410.166472804350178  |grad|_K:  1.630e-07  alpha:  6.282e-02  linmin:  1.696e-06  t[s]:   6164.12
	FillingsUpdate:  mu: +0.159447249  nElectrons: 311.000000  magneticMoment: [ Abs: 46.30086  Tot: -0.00000 ]
	SubspaceRotationAdjust: set factor to 0.384
ElecMinimize: Iter:  73  F: -1410.166473341742631  |grad|_K:  2.001e-07  alpha:  1.109e-01  linmin: -6.386e-07  t[s]:   6240.27
ElecMinimize: Converged (|Delta F|<1.000000e-06 for 5 iters).
Setting wave functions to eigenvectors of Hamiltonian

# Ionic positions in lattice coordinates:
ion V   0.000000000000000   0.000000000000000   0.150000000000000 1
ion V   0.500000000000000   0.000000000000000   0.150000000000000 1
ion V   0.000000000000000   0.500000000000000   0.150000000000000 1
ion V   0.500000000000000   0.500000000000000   0.150000000000000 1
ion V   0.250000000000000   0.250000000000000   0.050000000000000 1
ion V   0.250000000000000   0.750000000000000   0.050000000000000 1
ion V  -0.250000000000000   0.250000000000000   0.050000000000000 1
ion V  -0.250000000000000   0.750000000000000   0.050000000000000 1
ion V   0.000000000000000   0.000000000000000  -0.050000000000000 0
ion V   0.500000000000000   0.000000000000000  -0.050000000000000 0
ion V   0.000000000000000   0.500000000000000  -0.050000000000000 0
ion V   0.500000000000000   0.500000000000000  -0.050000000000000 0
ion V   0.250000000000000   0.250000000000000  -0.150000000000000 0
ion V   0.250000000000000   0.750000000000000  -0.150000000000000 0
ion V  -0.250000000000000   0.250000000000000  -0.150000000000000 0
ion V  -0.250000000000000   0.750000000000000  -0.150000000000000 0
ion O   0.250000000000000   0.250000000000000   0.150000000000000 1
ion O   0.250000000000000   0.750000000000000   0.150000000000000 1
ion O  -0.250000000000000   0.250000000000000   0.150000000000000 1
ion O  -0.250000000000000   0.750000000000000   0.150000000000000 1
ion O   0.000000000000000   0.000000000000000   0.050000000000000 1
ion O   0.500000000000000   0.000000000000000   0.050000000000000 1
ion O   0.000000000000000   0.500000000000000   0.050000000000000 1
ion O   0.500000000000000   0.500000000000000   0.050000000000000 1
ion O   0.250000000000000   0.250000000000000  -0.050000000000000 0
ion O   0.250000000000000   0.750000000000000  -0.050000000000000 0
ion O  -0.250000000000000   0.250000000000000  -0.050000000000000 0
ion O  -0.250000000000000   0.750000000000000  -0.050000000000000 0
ion O   0.000000000000000   0.000000000000000  -0.150000000000000 0
ion O   0.500000000000000   0.000000000000000  -0.150000000000000 0
ion O   0.000000000000000   0.500000000000000  -0.150000000000000 0
ion O   0.500000000000000   0.500000000000000  -0.150000000000000 0
ion O   0.000000000000000   0.000000000000000   0.230000000000000 1
ion H   0.100000000000000   0.100000000000000   0.250000000000000 1

# Forces in Lattice coordinates:
force V  -0.003728493567357  -0.017535482448385  -1.475379138231903 1
force V  -0.016556782793308  -0.015147794919814   0.427467521836639 1
force V  -0.052676029240833   0.027480684534818   0.547675359332103 1
force V  -0.030294090108477   0.014593022677845   0.284361954679163 1
force V  -0.005877466596062  -0.003029714047122   0.233380413289528 1
force V  -0.021548419659489   0.016578740278289   0.330060689561955 1
force V  -0.007150953147937   0.008656042042095   0.215767960639779 1
force V  -0.000270360824257  -0.000657909111660   0.280119160296415 1
force V   0.001936610174544   0.000118279159670  -0.119064041420104 0
force V   0.005102040547432   0.000837122283667  -0.167974909118760 0
force V   0.000191063131339  -0.001105594595978  -0.151155629173552 0
force V   0.004865003436221  -0.000378435812660  -0.172077494613668 0
force V   0.040279516451244  -0.000405226523232  -0.287471438241148 0
force V   0.040337854340903   0.000437975831887  -0.291566491742711 0
force V   0.035389267429512  -0.000645678030752  -0.414740674257080 0
force V   0.035216337492390   0.000273830951154  -0.413979445902255 0
force O   0.047629084403809   0.025006587682899  -0.170248752586554 1
force O   0.026585575987185  -0.004920566294640  -0.406548392009281 1
force O  -0.059153379973764  -0.006622412120006  -0.466917758332075 1
force O  -0.101245585547803  -0.030505491401117  -0.335213017544339 1
force O  -0.031569096020615  -0.000140991951835  -0.125991262905433 1
force O   0.016323036657696  -0.001942695818117   0.207762549136543 1
force O  -0.015045613042375  -0.000060990838186   0.065245185836137 1
force O   0.017072405435477   0.004063509495740   0.222630687829592 1
force O  -0.017112500619733   0.000917972663795  -0.223199149899639 0
force O  -0.016136519775435  -0.001656744066549  -0.197484441547544 0
force O   0.014673215823446   0.000415324543960  -0.106384624074595 0
force O   0.014422976599245  -0.000518024042859  -0.113135233548283 0
force O   0.046515676073223   0.000059765619363  -0.032368611305950 0
force O   0.002940741554688  -0.000242744384935  -0.058539641023097 0
force O   0.046796569297460   0.000225216764947  -0.023892978620010 0
force O   0.002991147060450  -0.000060536171262  -0.054773568055639 0
force O   0.038189334208061   0.046214942664558   3.503628644825403 1
force H  -0.061605301550803  -0.061568213687895  -0.121513333313944 1

# Energy components:
   Eewald =     4423.7279865912123569
       EH =     5692.6680934774849447
     Eloc =   -11783.9474017048705718
      Enl =     -217.5272075698557899
   Epulay =       -0.0003063872762097
      Exc =     -199.1877746442862076
       KE =      673.1537721084605437
        U =        0.9481755990963441
-------------------------------------
     Etot =    -1410.1646625300336382
       TS =        0.0018108117090162
-------------------------------------
        F =    -1410.1664733417426305

IonicMinimize: Iter:   0  F: -1410.166473341742631  |grad|_K:  1.336e-02  t[s]:   6250.17

#--- Lowdin population analysis ---
# oxidation-state V +1.180 +1.137 +1.095 +1.117 +0.986 +0.992 +1.003 +1.004 +1.001 +0.987 +1.001 +0.987 +1.075 +1.075 +1.050 +1.050
# magnetic-moments V +2.366 -2.855 +2.959 -2.856 +2.924 +2.906 -2.875 -2.873 -2.883 +2.926 -2.885 +2.926 -2.913 -2.913 +2.988 +2.988
# oxidation-state O -0.953 -0.941 -0.940 -0.943 -0.926 -0.919 -0.920 -0.917 -0.919 -0.919 -0.921 -0.921 -0.971 -0.971 -0.971 -0.971 -0.715
# magnetic-moments O -0.001 -0.011 +0.008 +0.021 +0.000 +0.013 -0.001 +0.013 +0.014 +0.013 -0.003 -0.003 +0.013 -0.003 +0.013 -0.003 -0.085
# oxidation-state H +0.363
# magnetic-moments H +0.022


-------- Electronic minimization -----------
	FillingsUpdate:  mu: +0.177688044  nElectrons: 311.000000  magneticMoment: [ Abs: 46.29865  Tot: +0.00000 ]
ElecMinimize: Iter:   0  F: -1409.806777991463832  |grad|_K:  8.575e-05  alpha:  1.000e+00
	FillingsUpdate:  mu: +0.178346190  nElectrons: 311.000000  magneticMoment: [ Abs: 46.29563  Tot: -0.00000 ]
	SubspaceRotationAdjust: set factor to 0.291
ElecMinimize: Iter:   1  F: -1410.121277801254791  |grad|_K:  4.311e-05  alpha:  2.644e-01  linmin:  1.516e-02  t[s]:   6353.83
	FillingsUpdate:  mu: +0.171366284  nElectrons: 311.000000  magneticMoment: [ Abs: 46.28935  Tot: -0.00000 ]
	SubspaceRotationAdjust: set factor to 0.164
ElecMinimize: Iter:   2  F: -1410.127695018423537  |grad|_K:  4.558e-05  alpha:  9.759e-02  linmin:  2.127e-02  t[s]:   6432.68
	FillingsUpdate:  mu: +0.174013121  nElectrons: 311.000000  magneticMoment: [ Abs: 46.29444  Tot: -0.00000 ]
	SubspaceRotationAdjust: set factor to 0.101
ElecMinimize: Iter:   3  F: -1410.143450712307185  |grad|_K:  3.094e-05  alpha:  1.205e-01  linmin:  8.438e-04  t[s]:   6512.05
	FillingsUpdate:  mu: +0.171817679  nElectrons: 311.000000  magneticMoment: [ Abs: 46.30649  Tot: -0.00000 ]
	SubspaceRotationAdjust: set factor to 0.142
ElecMinimize: Iter:   4  F: -1410.158050131622758  |grad|_K:  1.343e-05  alpha:  8.581e-02  linmin:  1.539e-03  t[s]:   6588.67
	FillingsUpdate:  mu: +0.167296186  nElectrons: 311.000000  magneticMoment: [ Abs: 46.30967  Tot: -0.00000 ]
	SubspaceRotationAdjust: set factor to 0.102
ElecMinimize: Iter:   5  F: -1410.164252201699128  |grad|_K:  1.189e-05  alpha:  1.968e-01  linmin:  1.870e-03  t[s]:   6666.33
	FillingsUpdate:  mu: +0.164355221  nElectrons: 311.000000  magneticMoment: [ Abs: 46.30221  Tot: -0.00000 ]
	SubspaceRotationAdjust: set factor to 0.141
ElecMinimize: Iter:   6  F: -1410.168127223046667  |grad|_K:  5.281e-06  alpha:  1.496e-01  linmin:  1.590e-03  t[s]:   6743.41
	FillingsUpdate:  mu: +0.154352428  nElectrons: 311.000000  magneticMoment: [ Abs: 46.29972  Tot: +0.00000 ]
	SubspaceRotationAdjust: set factor to 0.124
ElecMinimize: Iter:   7  F: -1410.168936505544934  |grad|_K:  4.440e-06  alpha:  1.620e-01  linmin:  8.948e-04  t[s]:   6822.10
	FillingsUpdate:  mu: +0.156490877  nElectrons: 311.000000  magneticMoment: [ Abs: 46.30143  Tot: +0.00000 ]
	SubspaceRotationAdjust: set factor to 0.118
ElecMinimize: Iter:   8  F: -1410.169835224439794  |grad|_K:  3.782e-06  alpha:  2.542e-01  linmin: -4.187e-05  t[s]:   6899.00
	FillingsUpdate:  mu: +0.161750892  nElectrons: 311.000000  magneticMoment: [ Abs: 46.30411  Tot: -0.00000 ]
	SubspaceRotationAdjust: set factor to 0.106
ElecMinimize: Iter:   9  F: -1410.170360091615521  |grad|_K:  3.585e-06  alpha:  2.009e-01  linmin: -2.824e-05  t[s]:   6977.68
	FillingsUpdate:  mu: +0.161931331  nElectrons: 311.000000  magneticMoment: [ Abs: 46.30508  Tot: -0.00000 ]
	SubspaceRotationAdjust: set factor to 0.125
ElecMinimize: Iter:  10  F: -1410.171155633133367  |grad|_K:  3.752e-06  alpha:  3.385e-01  linmin:  1.450e-05  t[s]:   7056.64
	FillingsUpdate:  mu: +0.152951365  nElectrons: 311.000000  magneticMoment: [ Abs: 46.30449  Tot: +0.00000 ]
	SubspaceRotationAdjust: set factor to 0.107
ElecMinimize: Iter:  11  F: -1410.171757436654389  |grad|_K:  3.743e-06  alpha:  2.309e-01  linmin:  1.223e-05  t[s]:   7134.79
	FillingsUpdate:  mu: +0.153468659  nElectrons: 311.000000  magneticMoment: [ Abs: 46.30753  Tot: -0.00000 ]
	SubspaceRotationAdjust: set factor to 0.124
ElecMinimize: Iter:  12  F: -1410.172518821168978  |grad|_K:  3.130e-06  alpha:  2.978e-01  linmin:  1.262e-07  t[s]:   7212.69
	FillingsUpdate:  mu: +0.158355018  nElectrons: 311.000000  magneticMoment: [ Abs: 46.31094  Tot: +0.00000 ]
	SubspaceRotationAdjust: set factor to 0.0952
ElecMinimize: Iter:  13  F: -1410.172858041002883  |grad|_K:  2.324e-06  alpha:  1.931e-01  linmin:  2.184e-05  t[s]:   7288.94
	FillingsUpdate:  mu: +0.158399466  nElectrons: 311.000000  magneticMoment: [ Abs: 46.31318  Tot: +0.00000 ]
	SubspaceRotationAdjust: set factor to 0.137
ElecMinimize: Iter:  14  F: -1410.173141613604457  |grad|_K:  1.609e-06  alpha:  2.878e-01  linmin: -3.075e-06  t[s]:   7365.04
	FillingsUpdate:  mu: +0.156028177  nElectrons: 311.000000  magneticMoment: [ Abs: 46.31360  Tot: -0.00000 ]
	SubspaceRotationAdjust: set factor to 0.108
ElecMinimize: Iter:  15  F: -1410.173259451373497  |grad|_K:  1.277e-06  alpha:  2.491e-01  linmin:  9.940e-06  t[s]:   7442.81
	FillingsUpdate:  mu: +0.157012721  nElectrons: 311.000000  magneticMoment: [ Abs: 46.31513  Tot: +0.00000 ]
	SubspaceRotationAdjust: set factor to 0.11
ElecMinimize: Iter:  16  F: -1410.173335937798811  |grad|_K:  7.984e-07  alpha:  2.569e-01  linmin: -2.537e-05  t[s]:   7521.70
	FillingsUpdate:  mu: +0.157626780  nElectrons: 311.000000  magneticMoment: [ Abs: 46.31685  Tot: +0.00000 ]
	SubspaceRotationAdjust: set factor to 0.127
ElecMinimize: Iter:  17  F: -1410.173384506061893  |grad|_K:  6.774e-07  alpha:  4.161e-01  linmin: -1.917e-05  t[s]:   7604.07
	FillingsUpdate:  mu: +0.156787174  nElectrons: 311.000000  magneticMoment: [ Abs: 46.31771  Tot: -0.00000 ]
	SubspaceRotationAdjust: set factor to 0.103
ElecMinimize: Iter:  18  F: -1410.173406569853341  |grad|_K:  5.304e-07  alpha:  2.631e-01  linmin:  1.687e-06  t[s]:   7683.91
	FillingsUpdate:  mu: +0.157315208  nElectrons: 311.000000  magneticMoment: [ Abs: 46.31939  Tot: +0.00000 ]
	SubspaceRotationAdjust: set factor to 0.118
ElecMinimize: Iter:  19  F: -1410.173425048800937  |grad|_K:  4.089e-07  alpha:  3.593e-01  linmin: -1.614e-05  t[s]:   7762.60
	FillingsUpdate:  mu: +0.157441508  nElectrons: 311.000000  magneticMoment: [ Abs: 46.32104  Tot: +0.00000 ]
	SubspaceRotationAdjust: set factor to 0.141
ElecMinimize: Iter:  20  F: -1410.173438631554745  |grad|_K:  3.784e-07  alpha:  4.436e-01  linmin: -3.235e-06  t[s]:   7842.22
	FillingsUpdate:  mu: +0.156803514  nElectrons: 311.000000  magneticMoment: [ Abs: 46.32261  Tot: -0.00000 ]
	SubspaceRotationAdjust: set factor to 0.132
ElecMinimize: Iter:  21  F: -1410.173449041646336  |grad|_K:  4.240e-07  alpha:  3.975e-01  linmin:  2.137e-06  t[s]:   7923.47
	FillingsUpdate:  mu: +0.157380119  nElectrons: 311.000000  magneticMoment: [ Abs: 46.32515  Tot: -0.00000 ]
	SubspaceRotationAdjust: set factor to 0.119
ElecMinimize: Iter:  22  F: -1410.173459818299534  |grad|_K:  3.920e-07  alpha:  3.291e-01  linmin: -1.086e-05  t[s]:   8000.73
	FillingsUpdate:  mu: +0.157283297  nElectrons: 311.000000  magneticMoment: [ Abs: 46.32862  Tot: -0.00000 ]
	SubspaceRotationAdjust: set factor to 0.13
ElecMinimize: Iter:  23  F: -1410.173472921025450  |grad|_K:  3.429e-07  alpha:  4.650e-01  linmin:  3.136e-06  t[s]:   8077.51
	FillingsUpdate:  mu: +0.157089253  nElectrons: 311.000000  magneticMoment: [ Abs: 46.33167  Tot: +0.00000 ]
	SubspaceRotationAdjust: set factor to 0.14
ElecMinimize: Iter:  24  F: -1410.173483253113091  |grad|_K:  3.234e-07  alpha:  4.815e-01  linmin:  4.648e-06  t[s]:   8155.47
	FillingsUpdate:  mu: +0.157418367  nElectrons: 311.000000  magneticMoment: [ Abs: 46.33394  Tot: -0.00000 ]
	SubspaceRotationAdjust: set factor to 0.117
ElecMinimize: Iter:  25  F: -1410.173489816336314  |grad|_K:  2.886e-07  alpha:  3.456e-01  linmin: -2.674e-06  t[s]:   8233.33
	FillingsUpdate:  mu: +0.157030199  nElectrons: 311.000000  magneticMoment: [ Abs: 46.33551  Tot: -0.00000 ]
	SubspaceRotationAdjust: set factor to 0.0988
ElecMinimize: Iter:  26  F: -1410.173494428427148  |grad|_K:  2.336e-07  alpha:  3.025e-01  linmin:  2.981e-06  t[s]:   8313.70
	FillingsUpdate:  mu: +0.157202103  nElectrons: 311.000000  magneticMoment: [ Abs: 46.33718  Tot: -0.00000 ]
	SubspaceRotationAdjust: set factor to 0.114
ElecMinimize: Iter:  27  F: -1410.173498417113478  |grad|_K:  1.737e-07  alpha:  4.001e-01  linmin: -7.409e-06  t[s]:   8390.21
	FillingsUpdate:  mu: +0.157331401  nElectrons: 311.000000  magneticMoment: [ Abs: 46.33816  Tot: -0.00000 ]
	SubspaceRotationAdjust: set factor to 0.121
ElecMinimize: Iter:  28  F: -1410.173500625080351  |grad|_K:  1.496e-07  alpha:  3.991e-01  linmin: -3.241e-06  t[s]:   8468.84
	FillingsUpdate:  mu: +0.157104663  nElectrons: 311.000000  magneticMoment: [ Abs: 46.33875  Tot: -0.00000 ]
	SubspaceRotationAdjust: set factor to 0.112
ElecMinimize: Iter:  29  F: -1410.173502047804504  |grad|_K:  1.282e-07  alpha:  3.475e-01  linmin:  1.141e-06  t[s]:   8550.17
	FillingsUpdate:  mu: +0.157212676  nElectrons: 311.000000  magneticMoment: [ Abs: 46.33938  Tot: -0.00000 ]
	SubspaceRotationAdjust: set factor to 0.122
ElecMinimize: Iter:  30  F: -1410.173503220421480  |grad|_K:  1.107e-07  alpha:  3.905e-01  linmin: -2.948e-06  t[s]:   8630.49
	FillingsUpdate:  mu: +0.157231585  nElectrons: 311.000000  magneticMoment: [ Abs: 46.34000  Tot: +0.00000 ]
	SubspaceRotationAdjust: set factor to 0.146
ElecMinimize: Iter:  31  F: -1410.173504304325888  |grad|_K:  1.016e-07  alpha:  4.829e-01  linmin: -6.584e-07  t[s]:   8710.36
	FillingsUpdate:  mu: +0.157100960  nElectrons: 311.000000  magneticMoment: [ Abs: 46.34045  Tot: -0.00000 ]
	SubspaceRotationAdjust: set factor to 0.146
ElecMinimize: Iter:  32  F: -1410.173505124873373  |grad|_K:  1.049e-07  alpha:  4.346e-01  linmin:  4.620e-07  t[s]:   8787.81
	FillingsUpdate:  mu: +0.157237714  nElectrons: 311.000000  magneticMoment: [ Abs: 46.34089  Tot: -0.00000 ]
	SubspaceRotationAdjust: set factor to 0.122
ElecMinimize: Iter:  33  F: -1410.173505755811675  |grad|_K:  9.723e-08  alpha:  3.145e-01  linmin: -4.978e-07  t[s]:   8862.89
	FillingsUpdate:  mu: +0.157152454  nElectrons: 311.000000  magneticMoment: [ Abs: 46.34132  Tot: -0.00000 ]
	SubspaceRotationAdjust: set factor to 0.123
ElecMinimize: Iter:  34  F: -1410.173506428185647  |grad|_K:  8.156e-08  alpha:  3.891e-01  linmin:  5.704e-07  t[s]:   8942.78
	FillingsUpdate:  mu: +0.157159281  nElectrons: 311.000000  magneticMoment: [ Abs: 46.34168  Tot: -0.00000 ]
	SubspaceRotationAdjust: set factor to 0.137
ElecMinimize: Iter:  35  F: -1410.173506958905591  |grad|_K:  6.747e-08  alpha:  4.368e-01  linmin: -1.090e-07  t[s]:   9023.15
	FillingsUpdate:  mu: +0.157212686  nElectrons: 311.000000  magneticMoment: [ Abs: 46.34192  Tot: -0.00000 ]
	SubspaceRotationAdjust: set factor to 0.132
ElecMinimize: Iter:  36  F: -1410.173507300497022  |grad|_K:  5.957e-08  alpha:  4.106e-01  linmin: -9.965e-07  t[s]:   9101.18
ElecMinimize: Converged (|Delta F|<1.000000e-06 for 5 iters).
Setting wave functions to eigenvectors of Hamiltonian

# Ionic positions in lattice coordinates:
ion V  -0.000027323939046  -0.000128507249620   0.149135025040757 1
ion V   0.499878665065213  -0.000111009290374   0.150250612668091 1
ion V  -0.000386031673698   0.500201389793389   0.150321087278071 1
ion V   0.499777992409901   0.500106943690514   0.150166713737361 1
ion V   0.249956927500044   0.249977797005558   0.050136824635948 1
ion V   0.249842084290965   0.750121495848295   0.050193505671935 1
ion V  -0.250052405134784   0.250063435047122   0.050126498930427 1
ion V  -0.250001981315657   0.749995178570610   0.050164226301553 1
ion V   0.000000000000000   0.000000000000000  -0.050000000000000 0
ion V   0.500000000000000   0.000000000000000  -0.050000000000000 0
ion V   0.000000000000000   0.500000000000000  -0.050000000000000 0
ion V   0.500000000000000   0.500000000000000  -0.050000000000000 0
ion V   0.250000000000000   0.250000000000000  -0.150000000000000 0
ion V   0.250000000000000   0.750000000000000  -0.150000000000000 0
ion V  -0.250000000000000   0.250000000000000  -0.150000000000000 0
ion V  -0.250000000000000   0.750000000000000  -0.150000000000000 0
ion O   0.250349045579823   0.250183258590973   0.149900187752413 1
ion O   0.250194830068676   0.749963940060220   0.149761651652991 1
ion O  -0.250433500372091   0.249951468231918   0.149726258723254 1
ion O  -0.250741969419618   0.749776443174015   0.149803473657262 1
ion O  -0.000231351359425  -0.000001033247189   0.049926134723833 1
ion O   0.500119621946673  -0.000014236876412   0.050121805573778 1
ion O  -0.000110260459421   0.499999553033976   0.050038251491089 1
ion O   0.500125113630228   0.500029779073980   0.050130522362111 1
ion O   0.250000000000000   0.250000000000000  -0.050000000000000 0
ion O   0.250000000000000   0.750000000000000  -0.050000000000000 0
ion O  -0.250000000000000   0.250000000000000  -0.050000000000000 0
ion O  -0.250000000000000   0.750000000000000  -0.050000000000000 0
ion O   0.000000000000000   0.000000000000000  -0.150000000000000 0
ion O   0.500000000000000   0.000000000000000  -0.150000000000000 0
ion O   0.000000000000000   0.500000000000000  -0.150000000000000 0
ion O   0.500000000000000   0.500000000000000  -0.150000000000000 0
ion O   0.000279867196033   0.000338682165755   0.232054082890106 1
ion H   0.099548530935056   0.099548802730216   0.249928760013066 1

# Forces in Lattice coordinates:
force V  -0.015846798358518  -0.018311160346147  -0.174209978469516 1
force V  -0.015995840853720  -0.010845047673523   0.415697788435779 1
force V  -0.046256428169076   0.020359917996616   0.528982364332412 1
force V  -0.028953700793247   0.009903584324357   0.249533201964385 1
force V  -0.001948900197477   0.002923155324355   0.179890744550609 1
force V  -0.015807362546950   0.010223507237841   0.253495523608379 1
force V  -0.006255374976048   0.008223642206349   0.185273050959996 1
force V  -0.000699618341376  -0.002088209692026   0.234088999794511 1
force V   0.003465952268857   0.000209016849070  -0.112377730239025 0
force V   0.003143696176195   0.000607839836460  -0.152415405068853 0
force V   0.002436922464038  -0.000957427946522  -0.134027446735804 0
force V   0.002329208485372   0.000037636491066  -0.154607366019728 0
force V   0.040110176333855  -0.000412123536933  -0.267774922909766 0
force V   0.040177193353231   0.000422990998648  -0.271473126614215 0
force V   0.036239962359558  -0.000485069991301  -0.344211670142898 0
force V   0.036139179473085   0.000330154548764  -0.343747624363858 0
force O   0.055212622226384   0.032108386870012  -0.168514754219970 1
force O   0.036855003840839  -0.015331113161376  -0.352336419454158 1
force O  -0.073631144059941   0.004385680341695  -0.409709875031275 1
force O  -0.107215773826916  -0.033479329260903  -0.302696126500605 1
force O  -0.027111869396971   0.000517570221745  -0.167222683367337 1
force O   0.014356623726798  -0.002203104514670   0.196189264823842 1
force O  -0.014897410036326   0.000634964000245   0.077750791480051 1
force O   0.014431621164193   0.004945532430061   0.207986891375418 1
force O  -0.015033033480368   0.000622534229673  -0.223955684475666 0
force O  -0.014279147156523  -0.001372133051132  -0.195648525599100 0
force O   0.011867050309406   0.000339627641995  -0.151126585199030 0
force O   0.011640490247221  -0.000481286390569  -0.153007635646420 0
force O   0.036934375463150  -0.000030459938027  -0.091602317374304 0
force O   0.012789022339688  -0.000077930065792  -0.110572647277708 0
force O   0.037167590232712   0.000125474396561  -0.083180430894180 0
force O   0.012830907215205   0.000071386702334  -0.106409274266629 0
force O  -0.122606196971629  -0.114996965126026   1.708566130401993 1
force H   0.110935152195633   0.111244077661039   0.325235672891615 1

# Energy components:
   Eewald =     4420.5679496913217008
       EH =     5689.4682318252707773
     Eloc =   -11777.5859874041907460
      Enl =     -217.5603063416080545
   Epulay =       -0.0003063872762097
      Exc =     -199.1973582333706929
       KE =      673.1909608744028901
        U =        0.9450411785498662
-------------------------------------
     Etot =    -1410.1717747969005359
       TS =        0.0017325035964957
-------------------------------------
        F =    -1410.1735073004970218

IonicMinimize: Iter:   1  F: -1410.173507300497022  |grad|_K:  7.601e-03  alpha:  1.000e+00  linmin: -7.609e-01  t[s]:   9110.86

#--- Lowdin population analysis ---
# oxidation-state V +1.164 +1.145 +1.101 +1.123 +0.986 +0.992 +1.003 +1.005 +0.999 +0.987 +1.000 +0.988 +1.074 +1.074 +1.061 +1.060
# magnetic-moments V +2.456 -2.843 +2.957 -2.844 +2.924 +2.904 -2.871 -2.870 -2.889 +2.925 -2.891 +2.924 -2.930 -2.930 +2.971 +2.971
# oxidation-state O -0.951 -0.938 -0.938 -0.941 -0.924 -0.919 -0.921 -0.917 -0.919 -0.919 -0.920 -0.920 -0.972 -0.972 -0.972 -0.972 -0.761
# magnetic-moments O +0.000 -0.010 +0.010 +0.022 +0.000 +0.013 -0.001 +0.013 +0.013 +0.012 -0.005 -0.005 +0.011 -0.005 +0.011 -0.005 -0.087
# oxidation-state H +0.370
# magnetic-moments H +0.014


-------- Electronic minimization -----------
	FillingsUpdate:  mu: +0.182216954  nElectrons: 311.000000  magneticMoment: [ Abs: 46.34103  Tot: +0.00000 ]
ElecMinimize: Iter:   0  F: -1409.635907278291370  |grad|_K:  1.039e-04  alpha:  1.000e+00
	FillingsUpdate:  mu: +0.174584646  nElectrons: 311.000000  magneticMoment: [ Abs: 46.33751  Tot: +0.00000 ]
	SubspaceRotationAdjust: set factor to 0.131
ElecMinimize: Iter:   1  F: -1410.114752474777333  |grad|_K:  3.074e-05  alpha:  2.628e-01  linmin:  3.176e-02  t[s]:   9214.85
	FillingsUpdate:  mu: +0.152581952  nElectrons: 311.000000  magneticMoment: [ Abs: 46.33499  Tot: -0.00000 ]
	SubspaceRotationAdjust: set factor to 0.114
ElecMinimize: Iter:   2  F: -1410.156028055665047  |grad|_K:  1.123e-05  alpha:  2.588e-01  linmin: -7.093e-04  t[s]:   9292.53
	FillingsUpdate:  mu: +0.168168177  nElectrons: 311.000000  magneticMoment: [ Abs: 46.34182  Tot: +0.00000 ]
	SubspaceRotationAdjust: set factor to 0.0874
ElecMinimize: Iter:   3  F: -1410.161136350588095  |grad|_K:  8.104e-06  alpha:  2.254e-01  linmin: -2.776e-03  t[s]:   9369.10
	FillingsUpdate:  mu: +0.157416021  nElectrons: 311.000000  magneticMoment: [ Abs: 46.34322  Tot: -0.00000 ]
	SubspaceRotationAdjust: set factor to 0.117
ElecMinimize: Iter:   4  F: -1410.166182912624890  |grad|_K:  4.968e-06  alpha:  4.030e-01  linmin: -1.385e-04  t[s]:   9447.00
	FillingsUpdate:  mu: +0.153084545  nElectrons: 311.000000  magneticMoment: [ Abs: 46.34635  Tot: +0.00000 ]
	SubspaceRotationAdjust: set factor to 0.143
ElecMinimize: Iter:   5  F: -1410.169361310109252  |grad|_K:  5.444e-06  alpha:  7.022e-01  linmin: -1.538e-05  t[s]:   9525.51
	FillingsUpdate:  mu: +0.162154172  nElectrons: 311.000000  magneticMoment: [ Abs: 46.35510  Tot: -0.00000 ]
	SubspaceRotationAdjust: set factor to 0.149
ElecMinimize: Iter:   6  F: -1410.172820012629700  |grad|_K:  5.937e-06  alpha:  6.412e-01  linmin: -2.795e-04  t[s]:   9601.66
	FillingsUpdate:  mu: +0.152596257  nElectrons: 311.000000  magneticMoment: [ Abs: 46.35755  Tot: +0.00000 ]
	SubspaceRotationAdjust: set factor to 0.117
ElecMinimize: Iter:   7  F: -1410.175362454678634  |grad|_K:  5.485e-06  alpha:  3.942e-01  linmin:  5.967e-05  t[s]:   9680.66
	FillingsUpdate:  mu: +0.155479065  nElectrons: 311.000000  magneticMoment: [ Abs: 46.36302  Tot: -0.00000 ]
	SubspaceRotationAdjust: set factor to 0.107
ElecMinimize: Iter:   8  F: -1410.177380085592176  |grad|_K:  3.422e-06  alpha:  3.693e-01  linmin: -1.540e-04  t[s]:   9758.28
	FillingsUpdate:  mu: +0.155486454  nElectrons: 311.000000  magneticMoment: [ Abs: 46.36479  Tot: +0.00000 ]
	SubspaceRotationAdjust: set factor to 0.119
ElecMinimize: Iter:   9  F: -1410.178315826790140  |grad|_K:  2.433e-06  alpha:  4.325e-01  linmin:  3.349e-06  t[s]:   9836.46
	FillingsUpdate:  mu: +0.153536465  nElectrons: 311.000000  magneticMoment: [ Abs: 46.36561  Tot: -0.00000 ]
	SubspaceRotationAdjust: set factor to 0.105
ElecMinimize: Iter:  10  F: -1410.178740867826718  |grad|_K:  1.581e-06  alpha:  3.927e-01  linmin:  7.774e-05  t[s]:   9916.59
	FillingsUpdate:  mu: +0.155813566  nElectrons: 311.000000  magneticMoment: [ Abs: 46.36747  Tot: -0.00000 ]
	SubspaceRotationAdjust: set factor to 0.0875
ElecMinimize: Iter:  11  F: -1410.178923295337199  |grad|_K:  1.100e-06  alpha:  4.006e-01  linmin:  2.213e-06  t[s]:   9996.23
	FillingsUpdate:  mu: +0.155136438  nElectrons: 311.000000  magneticMoment: [ Abs: 46.36839  Tot: +0.00000 ]
	SubspaceRotationAdjust: set factor to 0.0987
ElecMinimize: Iter:  12  F: -1410.179009249233104  |grad|_K:  7.266e-07  alpha:  3.885e-01  linmin:  2.656e-05  t[s]:  10076.56
	FillingsUpdate:  mu: +0.154667218  nElectrons: 311.000000  magneticMoment: [ Abs: 46.36926  Tot: +0.00000 ]
	SubspaceRotationAdjust: set factor to 0.113
ElecMinimize: Iter:  13  F: -1410.179052907153164  |grad|_K:  5.280e-07  alpha:  4.530e-01  linmin:  2.234e-05  t[s]:  10155.21
	FillingsUpdate:  mu: +0.155539856  nElectrons: 311.000000  magneticMoment: [ Abs: 46.37051  Tot: -0.00000 ]
	SubspaceRotationAdjust: set factor to 0.111
ElecMinimize: Iter:  14  F: -1410.179076830384474  |grad|_K:  4.506e-07  alpha:  4.700e-01  linmin: -1.509e-05  t[s]:  10234.70
	FillingsUpdate:  mu: +0.155052510  nElectrons: 311.000000  magneticMoment: [ Abs: 46.37177  Tot: +0.00000 ]
	SubspaceRotationAdjust: set factor to 0.126
ElecMinimize: Iter:  15  F: -1410.179094163055879  |grad|_K:  3.870e-07  alpha:  4.669e-01  linmin:  9.034e-06  t[s]:  10312.88
	FillingsUpdate:  mu: +0.155065108  nElectrons: 311.000000  magneticMoment: [ Abs: 46.37382  Tot: +0.00000 ]
	SubspaceRotationAdjust: set factor to 0.156
ElecMinimize: Iter:  16  F: -1410.179111072989599  |grad|_K:  3.614e-07  alpha:  6.183e-01  linmin:  1.697e-06  t[s]:  10392.42
	FillingsUpdate:  mu: +0.155617531  nElectrons: 311.000000  magneticMoment: [ Abs: 46.37616  Tot: +0.00000 ]
	SubspaceRotationAdjust: set factor to 0.154
ElecMinimize: Iter:  17  F: -1410.179123895417888  |grad|_K:  3.861e-07  alpha:  5.380e-01  linmin: -1.913e-05  t[s]:  10470.09
	FillingsUpdate:  mu: +0.154953670  nElectrons: 311.000000  magneticMoment: [ Abs: 46.37830  Tot: -0.00000 ]
	SubspaceRotationAdjust: set factor to 0.124
ElecMinimize: Iter:  18  F: -1410.179134210677603  |grad|_K:  3.395e-07  alpha:  3.778e-01  linmin: -1.034e-07  t[s]:  10545.94
	FillingsUpdate:  mu: +0.155366022  nElectrons: 311.000000  magneticMoment: [ Abs: 46.38088  Tot: -0.00000 ]
	SubspaceRotationAdjust: set factor to 0.127
ElecMinimize: Iter:  19  F: -1410.179143557322050  |grad|_K:  2.691e-07  alpha:  4.431e-01  linmin: -3.916e-05  t[s]:  10622.96
	FillingsUpdate:  mu: +0.155425341  nElectrons: 311.000000  magneticMoment: [ Abs: 46.38300  Tot: -0.00000 ]
	SubspaceRotationAdjust: set factor to 0.144
ElecMinimize: Iter:  20  F: -1410.179150370733169  |grad|_K:  2.174e-07  alpha:  5.114e-01  linmin: -4.677e-06  t[s]:  10700.55
	FillingsUpdate:  mu: +0.155110413  nElectrons: 311.000000  magneticMoment: [ Abs: 46.38438  Tot: -0.00000 ]
	SubspaceRotationAdjust: set factor to 0.138
ElecMinimize: Iter:  21  F: -1410.179154404120027  |grad|_K:  1.913e-07  alpha:  4.666e-01  linmin: -3.115e-06  t[s]:  10780.10
	FillingsUpdate:  mu: +0.155385103  nElectrons: 311.000000  magneticMoment: [ Abs: 46.38552  Tot: +0.00000 ]
	SubspaceRotationAdjust: set factor to 0.125
ElecMinimize: Iter:  22  F: -1410.179157127656254  |grad|_K:  1.534e-07  alpha:  4.076e-01  linmin: -2.656e-05  t[s]:  10859.73
	FillingsUpdate:  mu: +0.155241408  nElectrons: 311.000000  magneticMoment: [ Abs: 46.38640  Tot: +0.00000 ]
	SubspaceRotationAdjust: set factor to 0.139
ElecMinimize: Iter:  23  F: -1410.179159138841442  |grad|_K:  1.248e-07  alpha:  4.661e-01  linmin: -1.831e-07  t[s]:  10937.79
	FillingsUpdate:  mu: +0.155205809  nElectrons: 311.000000  magneticMoment: [ Abs: 46.38708  Tot: +0.00000 ]
	SubspaceRotationAdjust: set factor to 0.169
ElecMinimize: Iter:  24  F: -1410.179160592006610  |grad|_K:  1.087e-07  alpha:  5.104e-01  linmin:  1.116e-06  t[s]:  11018.03
	FillingsUpdate:  mu: +0.155300284  nElectrons: 311.000000  magneticMoment: [ Abs: 46.38763  Tot: -0.00000 ]
	SubspaceRotationAdjust: set factor to 0.181
ElecMinimize: Iter:  25  F: -1410.179161645269005  |grad|_K:  1.027e-07  alpha:  4.883e-01  linmin: -7.238e-06  t[s]:  11096.03
	FillingsUpdate:  mu: +0.155132212  nElectrons: 311.000000  magneticMoment: [ Abs: 46.38804  Tot: -0.00000 ]
	SubspaceRotationAdjust: set factor to 0.163
ElecMinimize: Iter:  26  F: -1410.179162443748737  |grad|_K:  9.866e-08  alpha:  4.141e-01  linmin: -1.778e-06  t[s]:  11173.96
	FillingsUpdate:  mu: +0.155241085  nElectrons: 311.000000  magneticMoment: [ Abs: 46.38846  Tot: -0.00000 ]
	SubspaceRotationAdjust: set factor to 0.155
ElecMinimize: Iter:  27  F: -1410.179163174615269  |grad|_K:  8.264e-08  alpha:  4.108e-01  linmin: -6.179e-06  t[s]:  11252.52
	FillingsUpdate:  mu: +0.155181844  nElectrons: 311.000000  magneticMoment: [ Abs: 46.38882  Tot: +0.00000 ]
	SubspaceRotationAdjust: set factor to 0.175
ElecMinimize: Iter:  28  F: -1410.179163825664091  |grad|_K:  6.980e-08  alpha:  5.209e-01  linmin:  1.707e-07  t[s]:  11332.03
	FillingsUpdate:  mu: +0.155160734  nElectrons: 311.000000  magneticMoment: [ Abs: 46.38910  Tot: -0.00000 ]
	SubspaceRotationAdjust: set factor to 0.198
ElecMinimize: Iter:  29  F: -1410.179164298163869  |grad|_K:  6.038e-08  alpha:  5.308e-01  linmin:  4.705e-07  t[s]:  11410.39
	FillingsUpdate:  mu: +0.155236391  nElectrons: 311.000000  magneticMoment: [ Abs: 46.38928  Tot: +0.00000 ]
	SubspaceRotationAdjust: set factor to 0.192
ElecMinimize: Iter:  30  F: -1410.179164609823829  |grad|_K:  5.879e-08  alpha:  4.679e-01  linmin: -9.651e-07  t[s]:  11488.35
ElecMinimize: Converged (|Delta F|<1.000000e-06 for 5 iters).
Setting wave functions to eigenvectors of Hamiltonian

# Ionic positions in lattice coordinates:
ion V  -0.000261744994629  -0.000415647606628   0.148787760677733 1
ion V   0.499626308712024  -0.000286927824055   0.150774992728258 1
ion V  -0.001121689314804   0.500530473224937   0.150988735161073 1
ion V   0.499320808353774   0.500268525417142   0.150484217297283 1
ion V   0.249921434402347   0.250016468114250   0.050368507634283 1
ion V   0.249586323856405   0.750290159260772   0.050520101968993 1
ion V  -0.250151923736425   0.250193351373113   0.050362694479621 1
ion V  -0.250012460774313   0.749964082932507   0.050463392715698 1
ion V   0.000000000000000   0.000000000000000  -0.050000000000000 0
ion V   0.500000000000000   0.000000000000000  -0.050000000000000 0
ion V   0.000000000000000   0.500000000000000  -0.050000000000000 0
ion V   0.500000000000000   0.500000000000000  -0.050000000000000 0
ion V   0.250000000000000   0.250000000000000  -0.150000000000000 0
ion V   0.250000000000000   0.750000000000000  -0.150000000000000 0
ion V  -0.250000000000000   0.250000000000000  -0.150000000000000 0
ion V  -0.250000000000000   0.750000000000000  -0.150000000000000 0
ion O   0.251208395063878   0.250679695626432   0.149687914354104 1
ion O   0.250762051923204   0.749735532555172   0.149312847080791 1
ion O  -0.251574156004880   0.250006933726228   0.149204945759850 1
ion O  -0.252421481445277   0.749253361022011   0.149419283448372 1
ion O  -0.000663389871547   0.000006300049731   0.049719714018645 1
ion O   0.500347916245228  -0.000048578680412   0.050369879648674 1
ion O  -0.000344827419136   0.500008687339041   0.050134883175249 1
ion O   0.500355417088017   0.500106503856251   0.050393747680616 1
ion O   0.250000000000000   0.250000000000000  -0.050000000000000 0
ion O   0.250000000000000   0.750000000000000  -0.050000000000000 0
ion O  -0.250000000000000   0.250000000000000  -0.050000000000000 0
ion O  -0.250000000000000   0.750000000000000  -0.050000000000000 0
ion O   0.000000000000000   0.000000000000000  -0.150000000000000 0
ion O   0.500000000000000   0.000000000000000  -0.150000000000000 0
ion O   0.000000000000000   0.500000000000000  -0.150000000000000 0
ion O   0.500000000000000   0.500000000000000  -0.150000000000000 0
ion O  -0.001451413354192  -0.001272368434602   0.234381163621072 1
ion H   0.101081746447131   0.101086544394047   0.250294175509360 1

# Forces in Lattice coordinates:
force V  -0.027490668158127  -0.020286647034200   0.584387627645631 1
force V  -0.015240873120666  -0.006252252553895   0.395704298405965 1
force V  -0.039868070212929   0.013094067241481   0.494381945310753 1
force V  -0.029011284058935   0.004619830485160   0.225640990384814 1
force V   0.001457433468509   0.007339717611534   0.137933390649608 1
force V  -0.010208196179968   0.005434916191360   0.176386839803022 1
force V  -0.007215038605752   0.006603926080437   0.147018394551367 1
force V  -0.003084222246140  -0.002422784683829   0.182489462762768 1
force V   0.003963868100463   0.000152532540998  -0.095368600799614 0
force V   0.001733559197315   0.000067925741943  -0.109627470769105 0
force V   0.003468249840960  -0.000541600206671  -0.096935580052686 0
force V   0.000263074951827   0.000955163193448  -0.110318263972115 0
force V   0.039060500158581  -0.000568045431840  -0.245049013824677 0
force V   0.039109545127192   0.000574243690386  -0.248029231099776 0
force V   0.036552431970533  -0.000594380419777  -0.280851533244292 0
force V   0.036502003044840   0.000530252256222  -0.280549447622597 0
force O   0.040033989061308   0.029333858366700  -0.097969257063516 1
force O   0.027547408685942  -0.017631800785811  -0.227382367290524 1
force O  -0.070090736507295   0.007655337907312  -0.287598048853287 1
force O  -0.095548144892507  -0.029824124730292  -0.216541468584907 1
force O  -0.023892434562717   0.002624524978912  -0.135953131002373 1
force O   0.011690252254446  -0.001942480336165   0.158584460326922 1
force O  -0.015199180942453   0.000865076029862   0.098027466089800 1
force O   0.010935314292603   0.006083692040823   0.159018716427687 1
force O  -0.012046505181377   0.000911157121595  -0.223614436749660 0
force O  -0.011568444202082  -0.001576692719202  -0.192469150731800 0
force O   0.007770886556599   0.001025096397287  -0.182601976005552 0
force O   0.007650596391762  -0.000923778809411  -0.177875504311028 0
force O   0.029926680011097  -0.000016529473046  -0.137977858932849 0
force O   0.020331469108037  -0.000048840149822  -0.144981715184112 0
force O   0.030172816166868   0.000079310100985  -0.126200940120394 0
force O   0.020414439439516   0.000000731182895  -0.139425087487350 0
force O  -0.054426312328902  -0.046792663734977   1.110385091006298 1
force H   0.038247168051488   0.038815211056097   0.206330413685454 1

# Energy components:
   Eewald =     4413.1825414594286485
       EH =     5682.1523026731001664
     Eloc =   -11762.8520886137503112
      Enl =     -217.5687681810180436
   Epulay =       -0.0003063872762097
      Exc =     -199.1889562337053405
       KE =      673.1555702296551544
        U =        0.9421365203264214
-------------------------------------
     Etot =    -1410.1775685332397643
       TS =        0.0015960765840456
-------------------------------------
        F =    -1410.1791646098238289

IonicMinimize: Iter:   2  F: -1410.179164609823829  |grad|_K:  5.558e-03  alpha:  7.886e-01  linmin: -7.849e-01  t[s]:  11498.17

#--- Lowdin population analysis ---
# oxidation-state V +1.155 +1.150 +1.107 +1.127 +0.987 +0.994 +1.005 +1.006 +0.997 +0.988 +0.998 +0.989 +1.072 +1.072 +1.067 +1.067
# magnetic-moments V +2.525 -2.840 +2.958 -2.837 +2.924 +2.901 -2.864 -2.864 -2.894 +2.924 -2.896 +2.924 -2.943 -2.943 +2.959 +2.959
# oxidation-state O -0.950 -0.936 -0.936 -0.938 -0.923 -0.920 -0.922 -0.917 -0.920 -0.920 -0.920 -0.920 -0.973 -0.973 -0.973 -0.973 -0.785
# magnetic-moments O -0.000 -0.010 +0.011 +0.021 +0.001 +0.013 -0.000 +0.013 +0.013 +0.012 -0.007 -0.007 +0.009 -0.007 +0.009 -0.007 -0.092
# oxidation-state H +0.365
# magnetic-moments H +0.012
[...]
ElecMinimize: Iter:  10  F: -1410.204540207897480  |grad|_K:  1.532e-06  alpha:  4.204e-01  linmin:  2.154e-04  t[s]:  55709.56
	FillingsUpdate:  mu: +0.149452478  nElectrons: 311.000000  magneticMoment: [ Abs: 46.54601  Tot: -0.00000 ]
	SubspaceRotationAdjust: set factor to 0.227
ElecMinimize: Iter:  11  F: -1410.204689559903727  |grad|_K:  1.029e-06  alpha:  3.517e-01  linmin: -4.389e-05  t[s]:  55783.37
	FillingsUpdate:  mu: +0.149588455  nElectrons: 311.000000  magneticMoment: [ Abs: 46.54539  Tot: +0.00000 ]
	SubspaceRotationAdjust: set factor to 0.288
ElecMinimize: Iter:  12  F: -1410.204774846381497  |grad|_K:  7.454e-07  alpha:  4.401e-01  linmin:  5.207e-07  t[s]:  55859.29
	FillingsUpdate:  mu: +0.149594797  nElectrons: 311.000000  magneticMoment: [ Abs: 46.54491  Tot: +0.00000 ]
	SubspaceRotationAdjust: set factor to 0.288
ElecMinimize: Iter:  13  F: -1410.204817132811968  |grad|_K:  6.013e-07  alpha:  4.163e-01  linmin:  4.518e-05  t[s]:  55936.49
	FillingsUpdate:  mu: +0.149506213  nElectrons: 311.000000  magneticMoment: [ Abs: 46.54435  Tot: -0.00000 ]
	SubspaceRotationAdjust: set factor to 0.28
ElecMinimize: Iter:  14  F: -1410.204839725443662  |grad|_K:  4.419e-07  alpha:  3.437e-01  linmin: -3.448e-05  t[s]:  56015.84
	FillingsUpdate:  mu: +0.149562883  nElectrons: 311.000000  magneticMoment: [ Abs: 46.54374  Tot: -0.00000 ]
	SubspaceRotationAdjust: set factor to 0.349
ElecMinimize: Iter:  15  F: -1410.204855637584842  |grad|_K:  3.019e-07  alpha:  4.444e-01  linmin:  4.115e-07  t[s]:  56092.68
	FillingsUpdate:  mu: +0.149542287  nElectrons: 311.000000  magneticMoment: [ Abs: 46.54329  Tot: +0.00000 ]
	SubspaceRotationAdjust: set factor to 0.398
ElecMinimize: Iter:  16  F: -1410.204863004030358  |grad|_K:  2.468e-07  alpha:  4.423e-01  linmin:  2.928e-07  t[s]:  56172.80
	FillingsUpdate:  mu: +0.149564851  nElectrons: 311.000000  magneticMoment: [ Abs: 46.54292  Tot: -0.00000 ]
	SubspaceRotationAdjust: set factor to 0.342
ElecMinimize: Iter:  17  F: -1410.204866667660326  |grad|_K:  2.022e-07  alpha:  3.305e-01  linmin: -1.672e-05  t[s]:  56249.65
	FillingsUpdate:  mu: +0.149538491  nElectrons: 311.000000  magneticMoment: [ Abs: 46.54262  Tot: +0.00000 ]
	SubspaceRotationAdjust: set factor to 0.299
ElecMinimize: Iter:  18  F: -1410.204868931484725  |grad|_K:  1.446e-07  alpha:  3.024e-01  linmin:  3.337e-06  t[s]:  56328.16
	FillingsUpdate:  mu: +0.149564424  nElectrons: 311.000000  magneticMoment: [ Abs: 46.54229  Tot: -0.00000 ]
	SubspaceRotationAdjust: set factor to 0.384
ElecMinimize: Iter:  19  F: -1410.204870589446500  |grad|_K:  1.004e-07  alpha:  4.342e-01  linmin: -8.025e-06  t[s]:  56406.36
	FillingsUpdate:  mu: +0.149550030  nElectrons: 311.000000  magneticMoment: [ Abs: 46.54205  Tot: -0.00000 ]
	SubspaceRotationAdjust: set factor to 0.452
ElecMinimize: Iter:  20  F: -1410.204871466656414  |grad|_K:  8.553e-08  alpha:  4.753e-01  linmin: -3.410e-06  t[s]:  56482.69
	FillingsUpdate:  mu: +0.149574183  nElectrons: 311.000000  magneticMoment: [ Abs: 46.54188  Tot: -0.00000 ]
	SubspaceRotationAdjust: set factor to 0.374
ElecMinimize: Iter:  21  F: -1410.204871985630689  |grad|_K:  8.917e-08  alpha:  3.881e-01  linmin:  2.334e-07  t[s]:  56563.00
	FillingsUpdate:  mu: +0.149560511  nElectrons: 311.000000  magneticMoment: [ Abs: 46.54170  Tot: -0.00000 ]
	SubspaceRotationAdjust: set factor to 0.331
ElecMinimize: Iter:  22  F: -1410.204872430108935  |grad|_K:  7.080e-08  alpha:  3.064e-01  linmin: -1.648e-05  t[s]:  56641.32
	FillingsUpdate:  mu: +0.149555096  nElectrons: 311.000000  magneticMoment: [ Abs: 46.54152  Tot: +0.00000 ]
	SubspaceRotationAdjust: set factor to 0.402
ElecMinimize: Iter:  23  F: -1410.204872860445221  |grad|_K:  5.821e-08  alpha:  4.689e-01  linmin: -1.154e-06  t[s]:  56718.59
	FillingsUpdate:  mu: +0.149590707  nElectrons: 311.000000  magneticMoment: [ Abs: 46.54140  Tot: -0.00000 ]
	SubspaceRotationAdjust: set factor to 0.456
ElecMinimize: Iter:  24  F: -1410.204873155962787  |grad|_K:  5.155e-08  alpha:  4.771e-01  linmin: -5.784e-06  t[s]:  56797.15
ElecMinimize: Converged (|Delta F|<1.000000e-06 for 5 iters).
Setting wave functions to eigenvectors of Hamiltonian

# Ionic positions in lattice coordinates:
ion V  -0.024866274625906   0.003034862043392   0.169655308711592 1
ion V   0.471735378175440   0.000799822455413   0.157497924366623 1
ion V  -0.030186534050432   0.501963237135463   0.157761311259467 1
ion V   0.470282847319472   0.501709970013806   0.156900850176680 1
ion V   0.234612071105714   0.248015878694962   0.055222170842378 1
ion V   0.233089100279076   0.751331387518252   0.054934592705821 1
ion V  -0.262540496181474   0.247607866073815   0.054541274439107 1
ion V  -0.263389582161066   0.750698042077810   0.055113728159747 1
ion V   0.000000000000000   0.000000000000000  -0.050000000000000 0
ion V   0.500000000000000   0.000000000000000  -0.050000000000000 0
ion V   0.000000000000000   0.500000000000000  -0.050000000000000 0
ion V   0.500000000000000   0.500000000000000  -0.050000000000000 0
ion V   0.250000000000000   0.250000000000000  -0.150000000000000 0
ion V   0.250000000000000   0.750000000000000  -0.150000000000000 0
ion V  -0.250000000000000   0.250000000000000  -0.150000000000000 0
ion V  -0.250000000000000   0.750000000000000  -0.150000000000000 0
ion O   0.224832257907684   0.252838052479678   0.155430090505788 1
ion O   0.218838970806130   0.754412057174834   0.154454543014791 1
ion O  -0.274190606395708   0.246699851322349   0.153349341388537 1
ion O  -0.279049544484274   0.750701312305413   0.154199664115286 1
ion O  -0.019575082499450  -0.001543558956199   0.053702781269919 1
ion O   0.489041644843900  -0.000709961970725   0.054703039207513 1
ion O  -0.017042589416039   0.499302966607398   0.054625034059067 1
ion O   0.489185788922751   0.498829016078189   0.054820226412319 1
ion O   0.250000000000000   0.250000000000000  -0.050000000000000 0
ion O   0.250000000000000   0.750000000000000  -0.050000000000000 0
ion O  -0.250000000000000   0.250000000000000  -0.050000000000000 0
ion O  -0.250000000000000   0.750000000000000  -0.050000000000000 0
ion O   0.000000000000000   0.000000000000000  -0.150000000000000 0
ion O   0.500000000000000   0.000000000000000  -0.150000000000000 0
ion O   0.000000000000000   0.500000000000000  -0.150000000000000 0
ion O   0.500000000000000   0.500000000000000  -0.150000000000000 0
ion O  -0.030811914286596   0.001747925815955   0.259165266130205 1
ion H   0.077417220196445   0.088356937997122   0.279159343056635 1

# Forces in Lattice coordinates:
force V  -0.001253455927790  -0.014776005796629   0.036262854310314 1
force V   0.010075118464887  -0.003089916460763   0.027770551431790 1
force V   0.002500727070749   0.001665441488815   0.042705196077371 1
force V   0.011836376186822  -0.002295724652423   0.023962853527547 1
force V  -0.013623007409260   0.001812674531754   0.030681772982329 1
force V  -0.000444390449109   0.002710550129938  -0.004270780439649 1
force V  -0.001177176355215   0.004367669297375   0.021350566091649 1
force V   0.005002999436365  -0.000309578037490  -0.000734716833577 1
force V  -0.035264595987492  -0.003571795237750   0.355471061304254 0
force V  -0.037649287554621  -0.002361790306421   0.288963082405814 0
force V  -0.035782577899022   0.000189964515707   0.308114309561879 0
force V  -0.038700860674160  -0.000386684816502   0.314783138624632 0
force V   0.037126697450452  -0.001268521519528  -0.224992598966792 0
force V   0.037041796807302   0.001174845863568  -0.225470063473375 0
force V   0.035838166604177  -0.001502278800513  -0.242757892288262 0
force V   0.035818683369204   0.001437628106734  -0.240296515432794 0
force O  -0.015247414614012   0.003238400484877   0.001712208719590 1
force O   0.004343950183984  -0.000241318144246   0.030296576002384 1
force O  -0.012458471446248  -0.001267050324232  -0.012373496849975 1
force O  -0.005529204306942   0.003466082873302   0.009656503766680 1
force O  -0.000293222361350   0.009879347204193   0.008734446708425 1
force O   0.002081049352906   0.000827517483025   0.013947645057631 1
force O  -0.003238477552337  -0.002581983056019   0.003813335355358 1
force O   0.001749110292910   0.005622279871247   0.027642822844271 1
force O  -0.025351963253961   0.001003160895084   0.033834820068031 0
force O  -0.023811530500487  -0.004061923476112   0.021312756711074 0
force O  -0.008556260613317   0.002213687426024   0.039466036019189 0
force O  -0.009640939768188  -0.003687589016880   0.051520478305532 0
force O   0.033241299768930   0.000567526977020  -0.152471585667052 0
force O   0.027230675821823   0.000328998003974  -0.134789787511798 0
force O   0.033167032836898  -0.000085389859653  -0.113992450989924 0
force O   0.027502384952430   0.000017997075870  -0.134714631436724 0
force O  -0.045625020336878  -0.034442606919504  -0.125642986143507 1
force H   0.030610951188276   0.027029229016994   0.081142073826552 1

# Energy components:
   Eewald =     4175.9108340735356251
       EH =     5445.3605229145487101
     Eloc =   -11288.4015812247125723
      Enl =     -217.4802005599824781
   Epulay =       -0.0003063872762097
      Exc =     -198.9957704487193837
       KE =      672.4803218151831743
        U =        0.9226499426471857
-------------------------------------
     Etot =    -1410.2035298747764500
       TS =        0.0013432811862239
-------------------------------------
        F =    -1410.2048731559627868

IonicMinimize: Iter:  23  F: -1410.204873155962787  |grad|_K:  1.088e-03  alpha:  1.000e+00  linmin:  2.019e-02  t[s]:  56806.91

#--- Lowdin population analysis ---
# oxidation-state V +1.212 +1.114 +1.107 +1.098 +1.008 +1.007 +1.059 +1.060 +1.002 +0.997 +1.006 +0.997 +1.070 +1.070 +1.068 +1.068
# magnetic-moments V +2.594 -2.928 +2.956 -2.925 +2.932 +2.927 -2.787 -2.788 -2.902 +2.929 -2.905 +2.930 -2.951 -2.951 +2.956 +2.957
# oxidation-state O -0.961 -0.951 -0.948 -0.956 -0.938 -0.928 -0.930 -0.933 -0.927 -0.927 -0.926 -0.927 -0.973 -0.973 -0.972 -0.973 -0.821
# magnetic-moments O -0.014 -0.026 +0.001 +0.016 +0.014 +0.017 +0.006 +0.015 +0.009 +0.009 -0.005 -0.005 +0.009 -0.008 +0.010 -0.008 -0.101
# oxidation-state H +0.378
# magnetic-moments H +0.008


-------- Electronic minimization -----------
	FillingsUpdate:  mu: +0.149616618  nElectrons: 311.000000  magneticMoment: [ Abs: 46.54191  Tot: -0.00000 ]
ElecMinimize: Iter:   0  F: -1410.204712532784697  |grad|_K:  2.123e-06  alpha:  1.000e+00
	FillingsUpdate:  mu: +0.150323580  nElectrons: 311.000000  magneticMoment: [ Abs: 46.54204  Tot: -0.00000 ]
	SubspaceRotationAdjust: set factor to 0.388
ElecMinimize: Iter:   1  F: -1410.204913154206452  |grad|_K:  7.461e-07  alpha:  2.426e-01  linmin: -7.581e-04  t[s]:  56932.83
	FillingsUpdate:  mu: +0.149500711  nElectrons: 311.000000  magneticMoment: [ Abs: 46.54217  Tot: +0.00000 ]
	SubspaceRotationAdjust: set factor to 0.245
ElecMinimize: Iter:   2  F: -1410.204933534811289  |grad|_K:  4.278e-07  alpha:  2.002e-01  linmin: -1.765e-04  t[s]:  57011.45
	FillingsUpdate:  mu: +0.149826457  nElectrons: 311.000000  magneticMoment: [ Abs: 46.54229  Tot: +0.00000 ]
	SubspaceRotationAdjust: set factor to 0.297
ElecMinimize: Iter:   3  F: -1410.204941942983851  |grad|_K:  2.364e-07  alpha:  2.507e-01  linmin:  9.134e-05  t[s]:  57090.02
	FillingsUpdate:  mu: +0.149889181  nElectrons: 311.000000  magneticMoment: [ Abs: 46.54250  Tot: +0.00000 ]
	SubspaceRotationAdjust: set factor to 0.3
ElecMinimize: Iter:   4  F: -1410.204947890287258  |grad|_K:  2.025e-07  alpha:  5.839e-01  linmin:  1.720e-05  t[s]:  57167.90
	FillingsUpdate:  mu: +0.149618502  nElectrons: 311.000000  magneticMoment: [ Abs: 46.54266  Tot: +0.00000 ]
	SubspaceRotationAdjust: set factor to 0.244
ElecMinimize: Iter:   5  F: -1410.204950315263659  |grad|_K:  1.685e-07  alpha:  3.248e-01  linmin:  2.911e-05  t[s]:  57243.38
	FillingsUpdate:  mu: +0.149732870  nElectrons: 311.000000  magneticMoment: [ Abs: 46.54286  Tot: -0.00000 ]
	SubspaceRotationAdjust: set factor to 0.307
ElecMinimize: Iter:   6  F: -1410.204952507194093  |grad|_K:  1.118e-07  alpha:  4.230e-01  linmin:  7.674e-06  t[s]:  57323.31
	FillingsUpdate:  mu: +0.149766345  nElectrons: 311.000000  magneticMoment: [ Abs: 46.54298  Tot: -0.00000 ]
	SubspaceRotationAdjust: set factor to 0.33
ElecMinimize: Iter:   7  F: -1410.204953436605592  |grad|_K:  8.430e-08  alpha:  4.068e-01  linmin:  6.015e-06  t[s]:  57399.89
	FillingsUpdate:  mu: +0.149697952  nElectrons: 311.000000  magneticMoment: [ Abs: 46.54306  Tot: +0.00000 ]
	SubspaceRotationAdjust: set factor to 0.263
ElecMinimize: Iter:   8  F: -1410.204953890554407  |grad|_K:  6.688e-08  alpha:  3.497e-01  linmin: -2.309e-05  t[s]:  57477.27
	FillingsUpdate:  mu: +0.149748439  nElectrons: 311.000000  magneticMoment: [ Abs: 46.54313  Tot: -0.00000 ]
	SubspaceRotationAdjust: set factor to 0.274
ElecMinimize: Iter:   9  F: -1410.204954165372328  |grad|_K:  4.254e-08  alpha:  3.358e-01  linmin: -1.400e-06  t[s]:  57557.16
	FillingsUpdate:  mu: +0.149738737  nElectrons: 311.000000  magneticMoment: [ Abs: 46.54319  Tot: -0.00000 ]
	SubspaceRotationAdjust: set factor to 0.328
ElecMinimize: Iter:  10  F: -1410.204954319975286  |grad|_K:  3.246e-08  alpha:  4.673e-01  linmin: -8.485e-06  t[s]:  57637.94
	FillingsUpdate:  mu: +0.149732222  nElectrons: 311.000000  magneticMoment: [ Abs: 46.54323  Tot: +0.00000 ]
	SubspaceRotationAdjust: set factor to 0.301
ElecMinimize: Iter:  11  F: -1410.204954401887790  |grad|_K:  3.067e-08  alpha:  4.262e-01  linmin:  8.863e-06  t[s]:  57715.20
ElecMinimize: Converged (|Delta F|<1.000000e-06 for 5 iters).
Setting wave functions to eigenvectors of Hamiltonian

# Ionic positions in lattice coordinates:
ion V  -0.024876108272687   0.002733336138356   0.169772509525274 1
ion V   0.471897725778363   0.000794425822818   0.157612360367967 1
ion V  -0.030078232514631   0.501908730101946   0.157916700205796 1
ion V   0.470535529871419   0.501641868905323   0.157011950667837 1
ion V   0.234150397012134   0.248085370264866   0.055301067140846 1
ion V   0.232969662124800   0.751471021640468   0.055092171084497 1
ion V  -0.262659477468095   0.247726800045288   0.054608715633664 1
ion V  -0.263230189914254   0.750759481359386   0.055164676005952 1
ion V   0.000000000000000   0.000000000000000  -0.050000000000000 0
ion V   0.500000000000000   0.000000000000000  -0.050000000000000 0
ion V   0.000000000000000   0.500000000000000  -0.050000000000000 0
ion V   0.500000000000000   0.500000000000000  -0.050000000000000 0
ion V   0.250000000000000   0.250000000000000  -0.150000000000000 0
ion V   0.250000000000000   0.750000000000000  -0.150000000000000 0
ion V  -0.250000000000000   0.250000000000000  -0.150000000000000 0
ion V  -0.250000000000000   0.750000000000000  -0.150000000000000 0
ion O   0.223932713406895   0.252950298659350   0.155590366066191 1
ion O   0.218820828804703   0.754373197716699   0.154604185636281 1
ion O  -0.274639028867437   0.246536244335115   0.153363378185009 1
ion O  -0.279173460292295   0.750776486439855   0.154263668135154 1
ion O  -0.019777456159124  -0.001265342108346   0.053775410230775 1
ion O   0.488801800869672  -0.000756924141419   0.054769362707288 1
ion O  -0.017242812845860   0.499266654649405   0.054723240070238 1
ion O   0.488973633310338   0.499140532169411   0.054944617000048 1
ion O   0.250000000000000   0.250000000000000  -0.050000000000000 0
ion O   0.250000000000000   0.750000000000000  -0.050000000000000 0
ion O  -0.250000000000000   0.250000000000000  -0.050000000000000 0
ion O  -0.250000000000000   0.750000000000000  -0.050000000000000 0
ion O   0.000000000000000   0.000000000000000  -0.150000000000000 0
ion O   0.500000000000000   0.000000000000000  -0.150000000000000 0
ion O   0.000000000000000   0.500000000000000  -0.150000000000000 0
ion O   0.500000000000000   0.500000000000000  -0.150000000000000 0
ion O  -0.031554480811123   0.001444091842116   0.259190654058265 1
ion H   0.077152899177183   0.088282412627700   0.279367486006787 1

# Forces in Lattice coordinates:
force V  -0.004647114787137  -0.009355320065768   0.017813624156399 1
force V   0.001760871067188  -0.000447465938911   0.027082680873273 1
force V  -0.002726009715472   0.002433228118838   0.043493120635575 1
force V   0.003139892135486  -0.002054472042031   0.025683688032520 1
force V  -0.008072991176904   0.002524736698569   0.033726640183687 1
force V  -0.001776179520281   0.001934811789323  -0.009716073593164 1
force V  -0.006614881141660   0.003853581879491   0.018136191201437 1
force V  -0.002084941661345   0.000438623626351   0.005275803206835 1
force V  -0.034553491503739  -0.003437398818040   0.351747831803266 0
force V  -0.039346931639631  -0.002397717011197   0.288985040472168 0
force V  -0.034921611600463   0.000450118419057   0.304834208259976 0
force V  -0.040511527244837   0.000010158916364   0.315940271883077 0
force V   0.036973850426931  -0.001303027752470  -0.228787697921231 0
force V   0.036933134826958   0.001219524435670  -0.228706797759516 0
force V   0.035956322810632  -0.001514428398596  -0.246948298266350 0
force V   0.035947782535195   0.001461979786430  -0.244611028979107 0
force O  -0.000457209892700   0.001431108330542  -0.010695807773322 1
force O   0.005848207307915  -0.000952364194782   0.023555888931109 1
force O  -0.005838727212651   0.001668306913568  -0.001579380837021 1
force O  -0.004163364986586   0.001419646646132   0.009426693784382 1
force O   0.002445557139286   0.008130063414178  -0.000723662071848 1
force O   0.004863214579503   0.002403181973579   0.009293943378553 1
force O  -0.001688197512689  -0.001234339874152  -0.009301431149065 1
force O   0.004029727571985   0.002813828402702   0.014465189745417 1
force O  -0.025609480503421   0.001213722858785   0.034689106565224 0
force O  -0.024275961354386  -0.004099352878891   0.024429962112948 0
force O  -0.008489059428340   0.002494795371992   0.038270339042146 0
force O  -0.009392447415449  -0.003786179646096   0.051242429571243 0
force O   0.033313107880132   0.000495531188848  -0.152400186027278 0
force O   0.027248715984895   0.000336232220472  -0.135506917952828 0
force O   0.033230299335418  -0.000080199358050  -0.113780539851678 0
force O   0.027533875727670  -0.000051615050545  -0.134570482434120 0
force O  -0.006443591228020  -0.005188900010427  -0.022023546858893 1
force H  -0.004792070798168  -0.001499221602178  -0.002681872756390 1

# Energy components:
   Eewald =     4173.1303421153334057
       EH =     5442.6070596250137896
     Eloc =   -11282.8595497890473780
      Enl =     -217.4767817494741848
   Epulay =       -0.0003063872762097
      Exc =     -198.9916832610204835
       KE =      672.4648446835045661
        U =        0.9224609536029429
-------------------------------------
     Etot =    -1410.2036138093637874
       TS =        0.0013405925240376
-------------------------------------
        F =    -1410.2049544018877896

IonicMinimize: Iter:  24  F: -1410.204954401887790  |grad|_K:  3.942e-04  alpha:  1.000e+00  linmin: -6.441e-02  t[s]:  57724.88
IonicMinimize: Converged (|Delta F|<1.000000e-04 for 3 iters).

#--- Lowdin population analysis ---
# oxidation-state V +1.212 +1.116 +1.107 +1.100 +1.009 +1.008 +1.058 +1.058 +1.002 +0.997 +1.006 +0.997 +1.070 +1.070 +1.068 +1.068
# magnetic-moments V +2.594 -2.927 +2.956 -2.924 +2.932 +2.928 -2.788 -2.790 -2.902 +2.929 -2.905 +2.930 -2.951 -2.951 +2.956 +2.957
# oxidation-state O -0.961 -0.951 -0.948 -0.956 -0.938 -0.929 -0.930 -0.934 -0.927 -0.927 -0.927 -0.927 -0.973 -0.973 -0.972 -0.973 -0.819
# magnetic-moments O -0.014 -0.026 +0.001 +0.016 +0.015 +0.017 +0.006 +0.015 +0.009 +0.009 -0.005 -0.005 +0.009 -0.008 +0.010 -0.008 -0.101
# oxidation-state H +0.377
# magnetic-moments H +0.009


Dumping 'OH.ionpos' ... done
Dumping 'OH.lattice' ... done
Dumping 'OH.Ecomponents' ... done
End date and time: Sun May 18 05:34:34 2025  (Duration: 0-16:02:08.17)
Done!
