/var/spool/slurmd/job44402/slurm_script: line 9: module: command not found
/var/spool/slurmd/job44402/slurm_script: line 10: module: command not found

*************** JDFTx 1.7.0  ***************

Start date and time: Sun May 18 11:35:19 2025
Executable /data2/jt577/jdftx_eat_withLibXC/build/jdftx with command-line: -i /data2/jt577/May_2025/Relax_Mag_litU/rel8+1_6/O/runs/calc_/run.in
Running on hosts (process indices):  node3224 (0-8)
Divided in process groups (process indices):  0 (0)  1 (1)  2 (2)  3 (3)  4 (4)  5 (5)  6 (6)  7 (7)  8 (8)
Resource initialization completed at t[s]:      0.00
Run totals: 9 processes, 36 threads, 0 GPUs


Input parsed successfully to the following command list (including defaults):

add-mix 
add-U 	Ni d 0.235196 \
	V d 0.113923 \
	Cr d 0.128623 \
	Co d 0.121273
basis kpoint-dependent
coords-type Lattice
core-overlap-check vector
coulomb-interaction Periodic
davidson-band-ratio 1.1
dump End IonicPositions Lattice Ecomponents
dump-name run.$VAR
elec-cutoff 30
elec-eigen-algo Davidson
elec-ex-corr gga-x-rpbe gga-c-pbe
elec-smearing Fermi 0.001
electronic-minimize  \
	dirUpdateScheme      FletcherReeves \
	linminMethod         DirUpdateRecommended \
	nIterations          1000 \
	history              15 \
	knormThreshold       0 \
	energyDiffThreshold  1e-06 \
	nEnergyDiff          5 \
	alphaTstart          1 \
	alphaTmin            1e-10 \
	updateTestStepSize   yes \
	alphaTreduceFactor   0.1 \
	alphaTincreaseFactor 3 \
	nAlphaAdjustMax      3 \
	wolfeEnergy          0.0001 \
	wolfeGradient        0.9 \
	fdTest               no
exchange-regularization WignerSeitzTruncated
fluid None
fluid-ex-corr (null) lda-PZ
fluid-gummel-loop 10 1.000000e-05
fluid-minimize  \
	dirUpdateScheme      PolakRibiere \
	linminMethod         DirUpdateRecommended \
	nIterations          100 \
	history              15 \
	knormThreshold       0 \
	energyDiffThreshold  0 \
	nEnergyDiff          2 \
	alphaTstart          1 \
	alphaTmin            1e-10 \
	updateTestStepSize   yes \
	alphaTreduceFactor   0.1 \
	alphaTincreaseFactor 3 \
	nAlphaAdjustMax      3 \
	wolfeEnergy          0.0001 \
	wolfeGradient        0.9 \
	fdTest               no
fluid-solvent H2O 55.338 ScalarEOS \
	epsBulk 78.4 \
	pMol 0.92466 \
	epsInf 1.77 \
	Pvap 1.06736e-10 \
	sigmaBulk 4.62e-05 \
	Rvdw 2.61727 \
	Res 1.42 \
	tauNuc 343133 \
	poleEl 15 7 1
forces-output-coords Positions
initial-magnetic-moments  \
	Ni 1 -1 -1 1 1 \
	V -1 1 -1 1 -1 \
	Cr 1 -1 1 \
	Co -1 1 -1
initial-state run.$VAR
ion Ni  0.000000000000000   0.000000000000000   0.150000000000000 1
ion Ni -0.250000000000000   0.250000000000000   0.050000000000000 1
ion Ni  0.000000000000000   0.000000000000000  -0.050000000000000 0
ion Ni  0.500000000000000   0.000000000000000  -0.050000000000000 0
ion Ni -0.250000000000000   0.250000000000000  -0.150000000000000 0
ion V  0.500000000000000   0.000000000000000   0.150000000000000 1
ion V  0.000000000000000   0.500000000000000   0.150000000000000 1
ion V  0.500000000000000   0.500000000000000   0.150000000000000 1
ion V  0.250000000000000   0.750000000000000   0.050000000000000 1
ion V  0.250000000000000   0.750000000000000  -0.150000000000000 0
ion Cr  0.250000000000000   0.250000000000000   0.050000000000000 1
ion Cr  0.000000000000000   0.500000000000000  -0.050000000000000 0
ion Cr -0.250000000000000   0.750000000000000  -0.150000000000000 0
ion Co -0.250000000000000   0.750000000000000   0.050000000000000 1
ion Co  0.500000000000000   0.500000000000000  -0.050000000000000 0
ion Co  0.250000000000000   0.250000000000000  -0.150000000000000 0
ion O  0.250000000000000   0.250000000000000   0.150000000000000 1
ion O  0.250000000000000   0.750000000000000   0.150000000000000 1
ion O -0.250000000000000   0.250000000000000   0.150000000000000 1
ion O -0.250000000000000   0.750000000000000   0.150000000000000 1
ion O  0.000000000000000   0.000000000000000   0.050000000000000 1
ion O  0.500000000000000   0.000000000000000   0.050000000000000 1
ion O  0.000000000000000   0.500000000000000   0.050000000000000 1
ion O  0.500000000000000   0.500000000000000   0.050000000000000 1
ion O  0.250000000000000   0.250000000000000  -0.050000000000000 0
ion O  0.250000000000000   0.750000000000000  -0.050000000000000 0
ion O -0.250000000000000   0.250000000000000  -0.050000000000000 0
ion O -0.250000000000000   0.750000000000000  -0.050000000000000 0
ion O  0.000000000000000   0.000000000000000  -0.150000000000000 0
ion O  0.500000000000000   0.000000000000000  -0.150000000000000 0
ion O  0.000000000000000   0.500000000000000  -0.150000000000000 0
ion O  0.500000000000000   0.500000000000000  -0.150000000000000 0
ion O -0.000095572322686   0.000198307128402   0.224876729873325 1
ion-species SG15/$ID_ONCV_PBE.upf
ion-width 0
ionic-minimize  \
	dirUpdateScheme      L-BFGS \
	linminMethod         DirUpdateRecommended \
	nIterations          1000 \
	history              15 \
	knormThreshold       0.0001 \
	energyDiffThreshold  0.0001 \
	nEnergyDiff          3 \
	alphaTstart          1 \
	alphaTmin            1e-10 \
	updateTestStepSize   yes \
	alphaTreduceFactor   0.1 \
	alphaTincreaseFactor 3 \
	nAlphaAdjustMax      3 \
	wolfeEnergy          0.0001 \
	wolfeGradient        0.9 \
	fdTest               no
kpoint   0.500000000000   0.500000000000   0.500000000000  1.00000000000000
kpoint-folding 3 3 1 
latt-move-scale 1 1 1
latt-scale 1 1 1 
lattice  \
	   8.140000000000001    8.140000000000001    0.000000000000000  \
	   8.140000000000001   -8.140000000000001    0.000000000000000  \
	   0.000000000000000    0.000000000000000   40.700000000000003 
lattice-minimize  \
	dirUpdateScheme      L-BFGS \
	linminMethod         DirUpdateRecommended \
	nIterations          0 \
	history              15 \
	knormThreshold       0 \
	energyDiffThreshold  1e-06 \
	nEnergyDiff          2 \
	alphaTstart          1 \
	alphaTmin            1e-10 \
	updateTestStepSize   yes \
	alphaTreduceFactor   0.1 \
	alphaTincreaseFactor 3 \
	nAlphaAdjustMax      3 \
	wolfeEnergy          0.0001 \
	wolfeGradient        0.9 \
	fdTest               no
lcao-params -1 1e-06 0.001
pcm-variant GLSSA13
spintype z-spin
subspace-rotation-factor 1 yes
symmetries none
symmetry-threshold 0.0001


Applied RMS atom displacement 0 bohrs to make symmetries exact.

---------- Initializing the Grid ----------
R = 
[         8.14         8.14            0  ]
[         8.14        -8.14            0  ]
[            0            0         40.7  ]
unit cell volume = 5393.53
G =
[   0.385945   0.385945         -0  ]
[   0.385945  -0.385945         -0  ]
[         -0         -0   0.154378  ]
Minimum fftbox size, Smin = [  60  60  204  ]
Chosen fftbox size, S = [  60  60  210  ]

---------- Exchange Correlation functional ----------
Initialized LibXC exchange functional 'Hammer, Hansen, and Norskov'
Initialized LibXC correlation functional 'Perdew, Burke & Ernzerhof'

---------- Setting up pseudopotentials ----------
Width of ionic core gaussian charges (only for fluid interactions / plotting) set to 0

Reading pseudopotential file '/data2/jt577/jdftx_eat_withLibXC/build/pseudopotentials/SG15/Ni_ONCV_PBE.upf':
  'Ni' pseudopotential, 'PBE' functional
  Generated using ONCVPSP code by D. R. Hamann
  Author: Martin Schlipf and Francois Gygi  Date: 150915.
  18 valence electrons, 4 orbitals, 6 projectors, 1292 radial grid points, with lMax = 2
  Transforming local potential to a uniform radial grid of dG=0.02 with 1419 points.
  Transforming nonlocal projectors to a uniform radial grid of dG=0.02 with 528 points.
    3S    l: 0   occupation:  2.0   eigenvalue: -4.081355
    3P    l: 1   occupation:  6.0   eigenvalue: -2.623460
    4S    l: 0   occupation:  2.0   eigenvalue: -0.207378
    3D    l: 2   occupation:  8.0   eigenvalue: -0.326118
  Transforming atomic orbitals to a uniform radial grid of dG=0.02 with 528 points.
  WARNING: large normalization error in atomic orbital 1s (integral: 0.000006).
  Core radius for overlap checks: 1.99 bohrs.
  Reading pulay file /data2/jt577/jdftx_eat_withLibXC/build/pseudopotentials/SG15/Ni_ONCV_PBE.pulay ... using dE_dnG = -7.250568e-04 computed for Ecut = 30.

Reading pseudopotential file '/data2/jt577/jdftx_eat_withLibXC/build/pseudopotentials/SG15/V_ONCV_PBE.upf':
  'V' pseudopotential, 'PBE' functional
  Generated using ONCVPSP code by D. R. Hamann
  Author: Martin Schlipf and Francois Gygi  Date: 150915.
  13 valence electrons, 4 orbitals, 6 projectors, 1536 radial grid points, with lMax = 2
  Transforming local potential to a uniform radial grid of dG=0.02 with 1419 points.
  Transforming nonlocal projectors to a uniform radial grid of dG=0.02 with 528 points.
    3S    l: 0   occupation:  2.0   eigenvalue: -2.581105
    3P    l: 1   occupation:  6.0   eigenvalue: -1.618486
    4S    l: 0   occupation:  2.0   eigenvalue: -0.172804
    3D    l: 2   occupation:  3.0   eigenvalue: -0.189795
  Transforming atomic orbitals to a uniform radial grid of dG=0.02 with 528 points.
  Core radius for overlap checks: 1.80 bohrs.
  Reading pulay file /data2/jt577/jdftx_eat_withLibXC/build/pseudopotentials/SG15/V_ONCV_PBE.pulay ... using dE_dnG = -1.698632e-04 computed for Ecut = 30.

Reading pseudopotential file '/data2/jt577/jdftx_eat_withLibXC/build/pseudopotentials/SG15/Cr_ONCV_PBE.upf':
  'Cr' pseudopotential, 'PBE' functional
  Generated using ONCVPSP code by D. R. Hamann
  Author: Martin Schlipf and Francois Gygi  Date: 150915.
  14 valence electrons, 4 orbitals, 6 projectors, 1160 radial grid points, with lMax = 2
  Transforming local potential to a uniform radial grid of dG=0.02 with 1419 points.
  Transforming nonlocal projectors to a uniform radial grid of dG=0.02 with 528 points.
    3S    l: 0   occupation:  2.0   eigenvalue: -2.865131
    3P    l: 1   occupation:  6.0   eigenvalue: -1.810600
    4S    l: 0   occupation:  2.0   eigenvalue: -0.180525
    3D    l: 2   occupation:  4.0   eigenvalue: -0.220312
  Transforming atomic orbitals to a uniform radial grid of dG=0.02 with 528 points.
  WARNING: large normalization error in atomic orbital 1s (integral: 0.000001).
  Core radius for overlap checks: 2.10 bohrs.
  Reading pulay file /data2/jt577/jdftx_eat_withLibXC/build/pseudopotentials/SG15/Cr_ONCV_PBE.pulay ... using dE_dnG = -9.817895e-06 computed for Ecut = 30.

Reading pseudopotential file '/data2/jt577/jdftx_eat_withLibXC/build/pseudopotentials/SG15/Co_ONCV_PBE.upf':
  'Co' pseudopotential, 'PBE' functional
  Generated using ONCVPSP code by D. R. Hamann
  Author: Martin Schlipf and Francois Gygi  Date: 150915.
  17 valence electrons, 4 orbitals, 6 projectors, 1388 radial grid points, with lMax = 2
  Transforming local potential to a uniform radial grid of dG=0.02 with 1419 points.
  Transforming nonlocal projectors to a uniform radial grid of dG=0.02 with 528 points.
    3S    l: 0   occupation:  2.0   eigenvalue: -3.763303
    3P    l: 1   occupation:  6.0   eigenvalue: -2.412101
    4S    l: 0   occupation:  2.0   eigenvalue: -0.201022
    3D    l: 2   occupation:  7.0   eigenvalue: -0.301498
  Transforming atomic orbitals to a uniform radial grid of dG=0.02 with 528 points.
  Core radius for overlap checks: 1.94 bohrs.
  Reading pulay file /data2/jt577/jdftx_eat_withLibXC/build/pseudopotentials/SG15/Co_ONCV_PBE.pulay ... using dE_dnG = -9.787391e-05 computed for Ecut = 30.

Reading pseudopotential file '/data2/jt577/jdftx_eat_withLibXC/build/pseudopotentials/SG15/O_ONCV_PBE.upf':
  'O' pseudopotential, 'PBE' functional
  Generated using ONCVPSP code by D. R. Hamann
  Author: Martin Schlipf and Francois Gygi  Date: 150915.
  6 valence electrons, 2 orbitals, 4 projectors, 936 radial grid points, with lMax = 1
  Transforming local potential to a uniform radial grid of dG=0.02 with 1419 points.
  Transforming nonlocal projectors to a uniform radial grid of dG=0.02 with 528 points.
    2S    l: 0   occupation:  2.0   eigenvalue: -0.880572
    2P    l: 1   occupation:  4.0   eigenvalue: -0.331869
  Transforming atomic orbitals to a uniform radial grid of dG=0.02 with 528 points.
  Core radius for overlap checks: 1.29 bohrs.
  Reading pulay file /data2/jt577/jdftx_eat_withLibXC/build/pseudopotentials/SG15/O_ONCV_PBE.pulay ... using dE_dnG = -8.209514e-03 computed for Ecut = 30.

Initialized 5 species with 33 total atoms.

Folded 1 k-points by 3x3x1 to 9 k-points.

---------- Setting up k-points, bands, fillings ----------
No reducable k-points. 
Computing the number of bands and number of electrons
Calculating initial fillings.
nElectrons: 350.000000   nBands: 228   nStates: 18

----- Setting up reduced wavefunction bases (one per k-point) -----
average nbasis = 42312.000 , ideal nbasis = 42330.081

---------- Setting up ewald sum ----------
Optimum gaussian width for ewald sums = 3.906449 bohr.
Real space sum over 605 unit cells with max indices [  5  5  2  ]
Reciprocal space sum over 5915 terms with max indices [  6  6  17  ]

---------- Allocating electronic variables ----------
Initializing wave functions:  linear combination of atomic orbitals
Ni (M=1) pseudo-atom majority spin occupations:   s ( 1 0.5 )  p ( 3 )  d ( 5 )
Ni (M=1) pseudo-atom minority spin occupations:   s ( 1 0 )  p ( 3 )  d ( 4.5 )
V (M=1) pseudo-atom majority spin occupations:   s ( 1 0 )  p ( 3 )  d ( 3 )
V (M=1) pseudo-atom minority spin occupations:   s ( 1 0 )  p ( 3 )  d ( 2 )
Cr (M=1) pseudo-atom majority spin occupations:   s ( 1 0 )  p ( 3 )  d ( 3.5 )
Cr (M=1) pseudo-atom minority spin occupations:   s ( 1 0 )  p ( 3 )  d ( 2.5 )
Co (M=1) pseudo-atom majority spin occupations:   s ( 1 0 )  p ( 3 )  d ( 5 )
Co (M=1) pseudo-atom minority spin occupations:   s ( 1 0 )  p ( 3 )  d ( 4 )
O pseudo-atom occupations:   s ( 2 )  p ( 4 )
	FillingsUpdate:  mu: +0.693668784  nElectrons: 350.000000  magneticMoment: [ Abs: 0.27962  Tot: -0.00000 ]
LCAOMinimize: Iter:   0  F: -1896.5970197544820621  |grad|_K:  6.841e-03  alpha:  1.000e+00
	FillingsUpdate:  mu: +0.653349827  nElectrons: 350.000000  magneticMoment: [ Abs: 0.31766  Tot: -0.00000 ]
LCAOMinimize: Iter:   1  F: -1898.7928246791493621  |grad|_K:  7.704e-03  alpha:  4.299e-02  linmin: -8.371e-02  cgtest:  8.229e-01  t[s]:    111.03
LCAOMinimize: 	Wrong curvature in test step, increasing alphaT to 1.289722e-01.
	FillingsUpdate:  mu: +0.656737877  nElectrons: 350.000000  magneticMoment: [ Abs: 2.09558  Tot: +0.00000 ]
LCAOMinimize: Iter:   2  F: -1912.4369693505504983  |grad|_K:  1.464e-02  alpha: -6.837e-03  linmin: -7.181e-02  cgtest:  3.837e-01  t[s]:    149.35
LCAOMinimize: 	Step increased F by 4.966397e+02, reducing alpha to 3.739331e-02.
LCAOMinimize: 	Step increased F by 1.377743e+02, reducing alpha to 3.739331e-03.
	FillingsUpdate:  mu: +0.676424474  nElectrons: 350.000000  magneticMoment: [ Abs: 1.06814  Tot: +0.00000 ]
LCAOMinimize: Iter:   3  F: -1918.3722346645868129  |grad|_K:  1.234e-02  alpha:  3.739e-03  linmin: -1.249e-01  cgtest:  6.176e-01  t[s]:    248.75
LCAOMinimize: 	Wrong curvature in test step, increasing alphaT to 1.121799e-02.
	FillingsUpdate:  mu: +0.662638238  nElectrons: 350.000000  magneticMoment: [ Abs: 0.88272  Tot: -0.00000 ]
LCAOMinimize: Iter:   4  F: -1919.7969071003390127  |grad|_K:  1.415e-02  alpha: -1.076e-02  linmin: -1.428e-01  cgtest:  8.334e-01  t[s]:    286.95
LCAOMinimize: 	Step increased F by 1.829885e+02, reducing alpha to 2.300250e-02.
	FillingsUpdate:  mu: +0.581333663  nElectrons: 350.000000  magneticMoment: [ Abs: 6.45132  Tot: -0.00000 ]
LCAOMinimize: Iter:   5  F: -1941.3781780848983090  |grad|_K:  3.152e-02  alpha:  2.300e-02  linmin:  1.093e-02  cgtest:  1.634e-01  t[s]:    353.10
	FillingsUpdate:  mu: +0.589138090  nElectrons: 350.000000  magneticMoment: [ Abs: 6.10617  Tot: -0.00000 ]
LCAOMinimize: Iter:   6  F: -1941.3897604537787629  |grad|_K:  3.180e-02  alpha:  1.016e-04  linmin: -2.322e-03  cgtest:  1.025e+00  t[s]:    392.58
LCAOMinimize: Encountered beta<0, resetting CG.
LCAOMinimize: 	Predicted alpha/alphaT>3.000000, increasing alphaT to 3.046736e-04.
LCAOMinimize: 	Predicted alpha/alphaT>3.000000, increasing alphaT to 9.140208e-04.
LCAOMinimize: 	Predicted alpha/alphaT>3.000000, increasing alphaT to 2.742062e-03.
	FillingsUpdate:  mu: +0.606078785  nElectrons: 350.000000  magneticMoment: [ Abs: 5.10756  Tot: -0.00000 ]
LCAOMinimize: Iter:   7  F: -1947.8566113544425207  |grad|_K:  1.729e-02  alpha:  1.245e-02  linmin: -2.406e-02  cgtest: -5.320e-02  t[s]:    454.73
LCAOMinimize: 	Predicted alpha/alphaT>3.000000, increasing alphaT to 3.735172e-02.
	FillingsUpdate:  mu: +0.384892124  nElectrons: 350.000000  magneticMoment: [ Abs: 3.02758  Tot: +0.00000 ]
LCAOMinimize: Iter:   8  F: -1954.9818956127176079  |grad|_K:  8.216e-03  alpha:  4.405e-02  linmin: -4.268e-02  cgtest: -2.389e-01  t[s]:    505.92
	FillingsUpdate:  mu: +0.339885539  nElectrons: 350.000000  magneticMoment: [ Abs: 3.10765  Tot: -0.00000 ]
LCAOMinimize: Iter:   9  F: -1956.1860982540172245  |grad|_K:  8.592e-03  alpha:  1.434e-02  linmin: -1.031e-01  cgtest:  8.754e-01  t[s]:    546.92
LCAOMinimize: 	Wrong curvature in test step, increasing alphaT to 4.300755e-02.
	FillingsUpdate:  mu: +0.214458842  nElectrons: 350.000000  magneticMoment: [ Abs: 4.63038  Tot: -0.00000 ]
LCAOMinimize: Iter:  10  F: -1958.4131740956711383  |grad|_K:  1.002e-02  alpha: -8.875e-03  linmin: -1.213e-01  cgtest:  6.778e-01  t[s]:    584.01
LCAOMinimize: 	Step increased F by 1.461443e+02, reducing alpha to 2.815050e-02.
LCAOMinimize: 	Step increased F by 3.405166e+00, reducing alpha to 2.815050e-03.
	FillingsUpdate:  mu: +0.202243930  nElectrons: 350.000000  magneticMoment: [ Abs: 4.84038  Tot: +0.00000 ]
LCAOMinimize: Iter:  11  F: -1958.9543694377118754  |grad|_K:  8.704e-03  alpha:  2.815e-03  linmin: -1.155e-01  cgtest:  8.971e-01  t[s]:    681.76
LCAOMinimize: Encountered beta<0, resetting CG.
LCAOMinimize: 	Predicted alpha/alphaT>3.000000, increasing alphaT to 8.445150e-03.
LCAOMinimize: 	Predicted alpha/alphaT>3.000000, increasing alphaT to 2.533545e-02.
LCAOMinimize: 	Predicted alpha/alphaT>3.000000, increasing alphaT to 7.600635e-02.
	FillingsUpdate:  mu: -0.031773608  nElectrons: 350.000000  magneticMoment: [ Abs: 7.31193  Tot: +0.00000 ]
LCAOMinimize: Iter:  12  F: -1959.9678543048637493  |grad|_K:  2.364e-02  alpha:  8.131e-02  linmin:  3.479e-02  cgtest: -2.201e-01  t[s]:    742.36
LCAOMinimize: 	Bad step direction: g.d > 0.
LCAOMinimize: 	Undoing step.
LCAOMinimize: 	Step failed: resetting search direction.
	FillingsUpdate:  mu: -0.031773608  nElectrons: 350.000000  magneticMoment: [ Abs: 7.31193  Tot: +0.00000 ]
LCAOMinimize: Iter:  13  F: -1959.9678543048637493  |grad|_K:  2.364e-02  alpha:  0.000e+00
	FillingsUpdate:  mu: +0.457948191  nElectrons: 350.000000  magneticMoment: [ Abs: 8.15469  Tot: -0.00000 ]
LCAOMinimize: Iter:  14  F: -1961.9435379194706002  |grad|_K:  2.048e-02  alpha:  3.500e-02  linmin:  6.070e-02  cgtest: -8.272e-01  t[s]:    810.53
LCAOMinimize: 	Step increased F by 3.038789e-01, reducing alpha to 1.184517e-03.
	FillingsUpdate:  mu: +0.452047991  nElectrons: 350.000000  magneticMoment: [ Abs: 8.10713  Tot: -0.00000 ]
LCAOMinimize: Iter:  15  F: -1962.1254977173286989  |grad|_K:  1.915e-02  alpha:  1.185e-03  linmin: -3.056e-02  cgtest:  9.736e-01  t[s]:    880.76
LCAOMinimize: Encountered beta<0, resetting CG.
LCAOMinimize: 	Predicted alpha/alphaT>3.000000, increasing alphaT to 3.553552e-03.
LCAOMinimize: 	Predicted alpha/alphaT>3.000000, increasing alphaT to 1.066066e-02.
	FillingsUpdate:  mu: +0.251289463  nElectrons: 350.000000  magneticMoment: [ Abs: 6.74433  Tot: +0.00000 ]
LCAOMinimize: Iter:  16  F: -1963.9572440453864601  |grad|_K:  1.091e-02  alpha:  1.059e-02  linmin: -1.089e-02  cgtest: -3.638e-02  t[s]:    945.39
	FillingsUpdate:  mu: +0.032777917  nElectrons: 350.000000  magneticMoment: [ Abs: 7.75030  Tot: -0.00000 ]
LCAOMinimize: Iter:  17  F: -1964.8638138455098670  |grad|_K:  7.118e-03  alpha:  1.693e-02  linmin:  3.518e-02  cgtest: -3.630e-01  t[s]:    984.61
	FillingsUpdate:  mu: -0.007208812  nElectrons: 350.000000  magneticMoment: [ Abs: 8.42085  Tot: +0.00000 ]
LCAOMinimize: Iter:  18  F: -1965.0815696347669927  |grad|_K:  8.764e-03  alpha:  1.223e-02  linmin:  5.117e-04  cgtest:  8.156e-01  t[s]:   1024.86
	FillingsUpdate:  mu: +0.103073357  nElectrons: 350.000000  magneticMoment: [ Abs: 8.65674  Tot: -0.00000 ]
LCAOMinimize: Iter:  19  F: -1965.6521336623102343  |grad|_K:  7.955e-03  alpha:  1.683e-02  linmin:  1.102e-02  cgtest: -1.617e-01  t[s]:   1065.48
	FillingsUpdate:  mu: +0.124357950  nElectrons: 350.000000  magneticMoment: [ Abs: 9.36586  Tot: +0.00000 ]
LCAOMinimize: Iter:  20  F: -1965.9043433818392259  |grad|_K:  5.726e-03  alpha:  8.848e-03  linmin: -4.570e-03  cgtest:  7.824e-01  t[s]:   1106.53
LCAOMinimize: Encountered beta<0, resetting CG.
	FillingsUpdate:  mu: +0.063544195  nElectrons: 350.000000  magneticMoment: [ Abs: 9.56991  Tot: -0.00000 ]
LCAOMinimize: Iter:  21  F: -1966.1041467104475942  |grad|_K:  3.400e-03  alpha:  1.294e-02  linmin:  3.644e-03  cgtest:  3.422e-02  t[s]:   1145.61
	FillingsUpdate:  mu: +0.035790478  nElectrons: 350.000000  magneticMoment: [ Abs: 9.32703  Tot: -0.00000 ]
LCAOMinimize: Iter:  22  F: -1966.1943907483771454  |grad|_K:  1.953e-03  alpha:  1.644e-02  linmin: -9.937e-03  cgtest:  7.670e-02  t[s]:   1185.45
LCAOMinimize: 	Predicted alpha/alphaT>3.000000, increasing alphaT to 4.931004e-02.
	FillingsUpdate:  mu: +0.079358703  nElectrons: 350.000000  magneticMoment: [ Abs: 9.99881  Tot: +0.00000 ]
LCAOMinimize: Iter:  23  F: -1966.2977113996237222  |grad|_K:  1.878e-03  alpha:  5.355e-02  linmin: -2.605e-03  cgtest: -1.986e-01  t[s]:   1236.90
	FillingsUpdate:  mu: +0.068444850  nElectrons: 350.000000  magneticMoment: [ Abs: 10.60121  Tot: +0.00000 ]
LCAOMinimize: Iter:  24  F: -1966.3793983945299715  |grad|_K:  1.812e-03  alpha:  4.551e-02  linmin:  5.794e-04  cgtest:  2.105e-01  t[s]:   1277.10
	FillingsUpdate:  mu: +0.062962220  nElectrons: 350.000000  magneticMoment: [ Abs: 11.02332  Tot: -0.00000 ]
LCAOMinimize: Iter:  25  F: -1966.4111259926880848  |grad|_K:  1.355e-03  alpha:  2.242e-02  linmin:  9.462e-04  cgtest:  8.132e-02  t[s]:   1319.37
	FillingsUpdate:  mu: +0.074915590  nElectrons: 350.000000  magneticMoment: [ Abs: 11.25489  Tot: +0.00000 ]
LCAOMinimize: Iter:  26  F: -1966.4364745171637878  |grad|_K:  9.114e-04  alpha:  2.973e-02  linmin: -1.215e-03  cgtest:  7.815e-02  t[s]:   1360.16
	FillingsUpdate:  mu: +0.073200974  nElectrons: 350.000000  magneticMoment: [ Abs: 11.85467  Tot: +0.00000 ]
LCAOMinimize: Iter:  27  F: -1966.4596933486816397  |grad|_K:  1.259e-03  alpha:  5.501e-02  linmin: -1.455e-03  cgtest: -2.135e-02  t[s]:   1399.19
	FillingsUpdate:  mu: +0.090424748  nElectrons: 350.000000  magneticMoment: [ Abs: 13.02092  Tot: -0.00000 ]
LCAOMinimize: Iter:  28  F: -1966.5098236802684823  |grad|_K:  1.223e-03  alpha:  5.995e-02  linmin: -2.195e-03  cgtest:  2.750e-02  t[s]:   1439.71
	FillingsUpdate:  mu: +0.078954166  nElectrons: 350.000000  magneticMoment: [ Abs: 14.17737  Tot: -0.00000 ]
LCAOMinimize: Iter:  29  F: -1966.5473423421635744  |grad|_K:  1.303e-03  alpha:  4.689e-02  linmin: -1.470e-04  cgtest: -1.718e-01  t[s]:   1482.13
	FillingsUpdate:  mu: +0.082719487  nElectrons: 350.000000  magneticMoment: [ Abs: 14.88931  Tot: +0.00000 ]
LCAOMinimize: Iter:  30  F: -1966.5698441141878448  |grad|_K:  7.249e-04  alpha:  2.690e-02  linmin: -3.309e-04  cgtest:  3.475e-01  t[s]:   1519.87
LCAOMinimize: None of the convergence criteria satisfied after 30 iterations.


---- Citations for features of the code used in this run ----

   Software package:
      R. Sundararaman, K. Letchworth-Weaver, K.A. Schwarz, D. Gunceler, Y. Ozhabes and T.A. Arias, 'JDFTx: software for joint density-functional theory', SoftwareX 6, 278 (2017)

   Simplified rotationally-invariant DFT+U:
      S. L. Dudarev et al., Phys. Rev. B 57, 1505 (1998)

   LibXC library of exchange-correlation functions:
      M. A. L. Marques, M. J. T. Oliveira and T. Burnus, Comput. Phys. Commun. 183, 2272 (2012)

   Hammer, Hansen, and Norskov exchange functional:
      B. Hammer, L. B. Hansen, and J. K. Nørskov, Phys. Rev. B 59, 7413 (1999)

   Perdew, Burke & Ernzerhof correlation functional:
      J. P. Perdew, K. Burke, and M. Ernzerhof, Phys. Rev. Lett. 77, 3865 (1996)

   Pseudopotentials:
      M Schlipf and F Gygi, Comput. Phys. Commun. 196, 36 (2015)

   Total energy minimization with Auxiliary Hamiltonian:
      C. Freysoldt, S. Boeck, and J. Neugebauer, Phys. Rev. B 79, 241103(R) (2009)

This list may not be complete. Please suggest additional citations or
report any other bugs at https://github.com/shankar1729/jdftx/issues

Initialization completed successfully at t[s]:   1531.92


-------- Electronic minimization -----------
	FillingsUpdate:  mu: +0.082719490  nElectrons: 350.000000  magneticMoment: [ Abs: 14.88931  Tot: +0.00000 ]
ElecMinimize: Iter:   0  F: -1966.569844114184889  |grad|_K:  9.703e-04  alpha:  1.000e+00
	FillingsUpdate:  mu: +0.520721827  nElectrons: 350.000000  magneticMoment: [ Abs: 15.78380  Tot: -0.00000 ]
	SubspaceRotationAdjust: set factor to 0.995
ElecMinimize: Iter:   1  F: -2010.851600228286543  |grad|_K:  1.198e-03  alpha:  4.752e-01  linmin:  1.827e-02  t[s]:   1649.36
	FillingsUpdate:  mu: +0.538139799  nElectrons: 350.000000  magneticMoment: [ Abs: 20.63692  Tot: +0.00000 ]
	SubspaceRotationAdjust: set factor to 0.78
ElecMinimize: Iter:   2  F: -2013.687258133257728  |grad|_K:  1.211e-03  alpha:  1.254e-01  linmin:  2.538e-03  t[s]:   1727.87
	FillingsUpdate:  mu: +0.620752851  nElectrons: 350.000000  magneticMoment: [ Abs: 19.87060  Tot: +0.00000 ]
	SubspaceRotationAdjust: set factor to 0.633
ElecMinimize: Iter:   3  F: -2023.155103521761703  |grad|_K:  1.022e-03  alpha:  3.160e-02  linmin:  1.087e-04  t[s]:   1807.28
	FillingsUpdate:  mu: +0.739725975  nElectrons: 350.000000  magneticMoment: [ Abs: 18.98125  Tot: -0.00000 ]
	SubspaceRotationAdjust: set factor to 0.545
ElecMinimize: Iter:   4  F: -2029.495156572535961  |grad|_K:  8.399e-04  alpha:  3.597e-02  linmin:  4.009e-04  t[s]:   1887.58
	FillingsUpdate:  mu: +0.736356209  nElectrons: 350.000000  magneticMoment: [ Abs: 21.62663  Tot: -0.00000 ]
	SubspaceRotationAdjust: set factor to 0.407
ElecMinimize: Iter:   5  F: -2038.997546607766026  |grad|_K:  7.348e-04  alpha:  7.414e-02  linmin: -8.096e-04  t[s]:   1967.38
	FillingsUpdate:  mu: +0.550384298  nElectrons: 350.000000  magneticMoment: [ Abs: 22.27735  Tot: -0.00000 ]
	SubspaceRotationAdjust: set factor to 0.401
ElecMinimize: Iter:   6  F: -2041.964232412834690  |grad|_K:  5.752e-04  alpha:  1.811e-02  linmin: -2.190e-03  t[s]:   2045.65
	FillingsUpdate:  mu: +0.267593627  nElectrons: 350.000000  magneticMoment: [ Abs: 23.78976  Tot: -0.00000 ]
	SubspaceRotationAdjust: set factor to 0.455
ElecMinimize: Iter:   7  F: -2044.772134607633006  |grad|_K:  4.839e-04  alpha:  3.196e-02  linmin:  8.596e-04  t[s]:   2123.56
	FillingsUpdate:  mu: +0.200978680  nElectrons: 350.000000  magneticMoment: [ Abs: 24.14447  Tot: -0.00000 ]
	SubspaceRotationAdjust: set factor to 0.361
ElecMinimize: Iter:   8  F: -2045.216870259346706  |grad|_K:  5.687e-04  alpha:  1.540e-02  linmin:  5.160e-05  t[s]:   2200.57
	FillingsUpdate:  mu: +0.108803295  nElectrons: 350.000000  magneticMoment: [ Abs: 24.18382  Tot: -0.00000 ]
	SubspaceRotationAdjust: set factor to 0.248
ElecMinimize: Iter:   9  F: -2046.318568792429460  |grad|_K:  5.445e-04  alpha:  2.056e-02  linmin:  3.908e-04  t[s]:   2277.20
	FillingsUpdate:  mu: +0.087603036  nElectrons: 350.000000  magneticMoment: [ Abs: 24.32173  Tot: -0.00000 ]
	SubspaceRotationAdjust: set factor to 0.181
ElecMinimize: Iter:  10  F: -2046.916273869478346  |grad|_K:  4.461e-04  alpha:  1.233e-02  linmin: -4.836e-05  t[s]:   2352.92
	FillingsUpdate:  mu: +0.113305731  nElectrons: 350.000000  magneticMoment: [ Abs: 24.59706  Tot: -0.00000 ]
	SubspaceRotationAdjust: set factor to 0.139
ElecMinimize: Iter:  11  F: -2047.439643780260894  |grad|_K:  3.815e-04  alpha:  1.505e-02  linmin:  1.526e-04  t[s]:   2429.16
	FillingsUpdate:  mu: +0.138155953  nElectrons: 350.000000  magneticMoment: [ Abs: 24.88632  Tot: -0.00000 ]
	SubspaceRotationAdjust: set factor to 0.106
	SubspaceRotationAdjust: resetting CG because factor has changed by 0.106253
ElecMinimize: 	State modified externally: resetting search direction.
ElecMinimize: Iter:  12  F: -2047.822893943626696  |grad|_K:  3.306e-04  alpha:  1.595e-02
ElecMinimize: 	Predicted alpha/alphaT>3.000000, increasing alphaT to 4.786019e-02.
ElecMinimize: 	Predicted alpha/alphaT>3.000000, increasing alphaT to 1.435806e-01.
	FillingsUpdate:  mu: +0.130997665  nElectrons: 350.000000  magneticMoment: [ Abs: 24.52500  Tot: -0.00000 ]
	SubspaceRotationAdjust: set factor to 0.0785
ElecMinimize: Iter:  13  F: -2051.644180220391718  |grad|_K:  1.381e-04  alpha:  1.951e-01  linmin: -9.568e-03  t[s]:   2663.34
	FillingsUpdate:  mu: +0.170128696  nElectrons: 350.000000  magneticMoment: [ Abs: 25.29801  Tot: -0.00000 ]
	SubspaceRotationAdjust: set factor to 0.067
ElecMinimize: Iter:  14  F: -2052.425292870615067  |grad|_K:  8.493e-05  alpha:  2.141e-01  linmin: -9.439e-04  t[s]:   2738.99
	FillingsUpdate:  mu: +0.177558075  nElectrons: 350.000000  magneticMoment: [ Abs: 25.06590  Tot: +0.00000 ]
	SubspaceRotationAdjust: set factor to 0.048
ElecMinimize: Iter:  15  F: -2052.915755086390163  |grad|_K:  9.139e-05  alpha:  4.610e-01  linmin:  3.487e-03  t[s]:   2813.99
	FillingsUpdate:  mu: +0.183808774  nElectrons: 350.000000  magneticMoment: [ Abs: 24.98659  Tot: -0.00000 ]
	SubspaceRotationAdjust: set factor to 0.0609
ElecMinimize: Iter:  16  F: -2053.108262674451453  |grad|_K:  8.003e-05  alpha:  2.621e-01  linmin: -8.301e-05  t[s]:   2891.35
	FillingsUpdate:  mu: +0.151629396  nElectrons: 350.000000  magneticMoment: [ Abs: 25.22806  Tot: +0.00000 ]
	SubspaceRotationAdjust: set factor to 0.0647
ElecMinimize: Iter:  17  F: -2053.345932162201734  |grad|_K:  5.785e-05  alpha:  2.118e-01  linmin: -2.945e-05  t[s]:   2968.28
	FillingsUpdate:  mu: +0.120563576  nElectrons: 350.000000  magneticMoment: [ Abs: 25.81319  Tot: -0.00000 ]
	SubspaceRotationAdjust: set factor to 0.08
ElecMinimize: Iter:  18  F: -2053.535484553050082  |grad|_K:  5.295e-05  alpha:  3.247e-01  linmin:  2.355e-05  t[s]:   3046.48
	FillingsUpdate:  mu: +0.124395850  nElectrons: 350.000000  magneticMoment: [ Abs: 26.33607  Tot: +0.00000 ]
	SubspaceRotationAdjust: set factor to 0.0806
ElecMinimize: Iter:  19  F: -2053.646881018589283  |grad|_K:  4.471e-05  alpha:  2.258e-01  linmin: -3.773e-05  t[s]:   3124.78
	FillingsUpdate:  mu: +0.136055597  nElectrons: 350.000000  magneticMoment: [ Abs: 27.20362  Tot: +0.00000 ]
	SubspaceRotationAdjust: set factor to 0.0991
ElecMinimize: Iter:  20  F: -2053.758265531154848  |grad|_K:  4.854e-05  alpha:  3.178e-01  linmin: -9.024e-05  t[s]:   3202.21
	FillingsUpdate:  mu: +0.123076023  nElectrons: 350.000000  magneticMoment: [ Abs: 27.87341  Tot: +0.00000 ]
	SubspaceRotationAdjust: set factor to 0.0982
ElecMinimize: Iter:  21  F: -2053.849281309455819  |grad|_K:  4.574e-05  alpha:  2.168e-01  linmin: -1.012e-04  t[s]:   3279.80
	FillingsUpdate:  mu: +0.136399687  nElectrons: 350.000000  magneticMoment: [ Abs: 28.59003  Tot: +0.00000 ]
	SubspaceRotationAdjust: set factor to 0.123
ElecMinimize: Iter:  22  F: -2053.964298135761965  |grad|_K:  4.438e-05  alpha:  3.002e-01  linmin: -1.245e-04  t[s]:   3358.37
	FillingsUpdate:  mu: +0.157948845  nElectrons: 350.000000  magneticMoment: [ Abs: 29.29289  Tot: +0.00000 ]
	SubspaceRotationAdjust: set factor to 0.117
ElecMinimize: Iter:  23  F: -2054.063115134809777  |grad|_K:  5.509e-05  alpha:  2.703e-01  linmin: -9.084e-05  t[s]:   3436.80
	FillingsUpdate:  mu: +0.133100138  nElectrons: 350.000000  magneticMoment: [ Abs: 29.99976  Tot: +0.00000 ]
	SubspaceRotationAdjust: set factor to 0.0962
ElecMinimize: Iter:  24  F: -2054.184732329998042  |grad|_K:  5.359e-05  alpha:  2.059e-01  linmin: -2.482e-05  t[s]:   3513.88
	FillingsUpdate:  mu: +0.132010720  nElectrons: 350.000000  magneticMoment: [ Abs: 31.35990  Tot: -0.00000 ]
	SubspaceRotationAdjust: set factor to 0.116
ElecMinimize: Iter:  25  F: -2054.332900812029038  |grad|_K:  6.759e-05  alpha:  3.055e-01  linmin:  1.189e-04  t[s]:   3591.78
ElecMinimize: 	Step increased F by 3.100054e-02, reducing alpha to 6.744256e-04.
ElecMinimize: 	Step increased F by 3.979282e-02, reducing alpha to 6.744256e-05.
ElecMinimize: 	Step increased F by 4.069800e-02, reducing alpha to 6.744256e-06.
ElecMinimize: 	Step failed to reduce F after 3 attempts. Quitting step.
ElecMinimize: 	Undoing step.
ElecMinimize: 	Step failed: resetting search direction.
	FillingsUpdate:  mu: +0.129896187  nElectrons: 350.000000  magneticMoment: [ Abs: 31.35126  Tot: -0.00000 ]
	SubspaceRotationAdjust: set factor to 0.126
ElecMinimize: Iter:  26  F: -2054.292192724600227  |grad|_K:  7.074e-05  alpha:  6.744e-06
	FillingsUpdate:  mu: +0.150489192  nElectrons: 350.000000  magneticMoment: [ Abs: 31.54058  Tot: +0.00000 ]
	SubspaceRotationAdjust: set factor to 0.0804
ElecMinimize: Iter:  27  F: -2054.392233956943983  |grad|_K:  5.932e-05  alpha:  1.187e-01  linmin:  3.623e-03  t[s]:   3898.18
	FillingsUpdate:  mu: +0.139102259  nElectrons: 350.000000  magneticMoment: [ Abs: 31.40508  Tot: +0.00000 ]
	SubspaceRotationAdjust: set factor to 0.0594
ElecMinimize: Iter:  28  F: -2054.504221717716973  |grad|_K:  3.303e-05  alpha:  1.971e-01  linmin:  1.285e-03  t[s]:   3975.88
	FillingsUpdate:  mu: +0.117692950  nElectrons: 350.000000  magneticMoment: [ Abs: 31.66119  Tot: +0.00000 ]
	SubspaceRotationAdjust: set factor to 0.0652
ElecMinimize: Iter:  29  F: -2054.578058337658604  |grad|_K:  2.327e-05  alpha:  4.035e-01  linmin: -1.182e-05  t[s]:   4052.46
	FillingsUpdate:  mu: +0.120898732  nElectrons: 350.000000  magneticMoment: [ Abs: 31.92595  Tot: -0.00000 ]
	SubspaceRotationAdjust: set factor to 0.0747
ElecMinimize: Iter:  30  F: -2054.620040826472177  |grad|_K:  1.948e-05  alpha:  4.451e-01  linmin: -9.763e-05  t[s]:   4130.13
	FillingsUpdate:  mu: +0.124952928  nElectrons: 350.000000  magneticMoment: [ Abs: 32.15078  Tot: -0.00000 ]
	SubspaceRotationAdjust: set factor to 0.0791
ElecMinimize: Iter:  31  F: -2054.647442275195317  |grad|_K:  1.995e-05  alpha:  4.128e-01  linmin: -1.454e-04  t[s]:   4207.21
	FillingsUpdate:  mu: +0.127154984  nElectrons: 350.000000  magneticMoment: [ Abs: 32.60293  Tot: +0.00000 ]
	SubspaceRotationAdjust: set factor to 0.0648
ElecMinimize: Iter:  32  F: -2054.672330439047528  |grad|_K:  2.250e-05  alpha:  3.568e-01  linmin: -2.090e-04  t[s]:   4284.65
	FillingsUpdate:  mu: +0.122681625  nElectrons: 350.000000  magneticMoment: [ Abs: 33.10397  Tot: -0.00000 ]
	SubspaceRotationAdjust: set factor to 0.069
ElecMinimize: Iter:  33  F: -2054.702313427453191  |grad|_K:  1.967e-05  alpha:  3.334e-01  linmin: -3.327e-04  t[s]:   4362.97
	FillingsUpdate:  mu: +0.127372180  nElectrons: 350.000000  magneticMoment: [ Abs: 33.88936  Tot: -0.00000 ]
	SubspaceRotationAdjust: set factor to 0.0758
ElecMinimize: Iter:  34  F: -2054.741003914384237  |grad|_K:  2.213e-05  alpha:  5.397e-01  linmin: -1.418e-04  t[s]:   4439.60
	FillingsUpdate:  mu: +0.116222323  nElectrons: 350.000000  magneticMoment: [ Abs: 34.66398  Tot: -0.00000 ]
	SubspaceRotationAdjust: set factor to 0.0819
ElecMinimize: Iter:  35  F: -2054.778696520141239  |grad|_K:  2.034e-05  alpha:  4.275e-01  linmin: -6.103e-05  t[s]:   4515.44
	FillingsUpdate:  mu: +0.111790946  nElectrons: 350.000000  magneticMoment: [ Abs: 35.24051  Tot: -0.00000 ]
	SubspaceRotationAdjust: set factor to 0.0868
ElecMinimize: Iter:  36  F: -2054.807488099737384  |grad|_K:  1.898e-05  alpha:  3.938e-01  linmin: -2.971e-06  t[s]:   4591.06
	FillingsUpdate:  mu: +0.113861829  nElectrons: 350.000000  magneticMoment: [ Abs: 35.74930  Tot: +0.00000 ]
	SubspaceRotationAdjust: set factor to 0.0934
ElecMinimize: Iter:  37  F: -2054.831776655609701  |grad|_K:  1.779e-05  alpha:  3.861e-01  linmin:  2.236e-04  t[s]:   4668.59
	FillingsUpdate:  mu: +0.114663518  nElectrons: 350.000000  magneticMoment: [ Abs: 36.06062  Tot: -0.00000 ]
	SubspaceRotationAdjust: set factor to 0.119
ElecMinimize: Iter:  38  F: -2054.846516009546576  |grad|_K:  1.350e-05  alpha:  2.688e-01  linmin: -5.356e-06  t[s]:   4746.65
	FillingsUpdate:  mu: +0.115598585  nElectrons: 350.000000  magneticMoment: [ Abs: 36.23815  Tot: +0.00000 ]
	SubspaceRotationAdjust: set factor to 0.144
ElecMinimize: Iter:  39  F: -2054.853949054467193  |grad|_K:  1.148e-05  alpha:  2.331e-01  linmin:  7.311e-05  t[s]:   4825.15
	FillingsUpdate:  mu: +0.114360889  nElectrons: 350.000000  magneticMoment: [ Abs: 36.40086  Tot: -0.00000 ]
	SubspaceRotationAdjust: set factor to 0.162
ElecMinimize: Iter:  40  F: -2054.858855392466467  |grad|_K:  1.035e-05  alpha:  2.155e-01  linmin:  3.948e-05  t[s]:   4901.92
	FillingsUpdate:  mu: +0.116040420  nElectrons: 350.000000  magneticMoment: [ Abs: 36.59382  Tot: +0.00000 ]
	SubspaceRotationAdjust: set factor to 0.161
ElecMinimize: Iter:  41  F: -2054.862944870787487  |grad|_K:  1.022e-05  alpha:  2.202e-01  linmin:  1.073e-05  t[s]:   4979.11
	FillingsUpdate:  mu: +0.115566391  nElectrons: 350.000000  magneticMoment: [ Abs: 36.81625  Tot: +0.00000 ]
	SubspaceRotationAdjust: set factor to 0.16
ElecMinimize: Iter:  42  F: -2054.866668201132143  |grad|_K:  9.897e-06  alpha:  2.048e-01  linmin: -5.506e-05  t[s]:   5055.75
	FillingsUpdate:  mu: +0.119349582  nElectrons: 350.000000  magneticMoment: [ Abs: 37.05806  Tot: -0.00000 ]
	SubspaceRotationAdjust: set factor to 0.149
ElecMinimize: Iter:  43  F: -2054.870329418424717  |grad|_K:  1.032e-05  alpha:  2.137e-01  linmin:  1.466e-05  t[s]:   5133.74
	FillingsUpdate:  mu: +0.119285856  nElectrons: 350.000000  magneticMoment: [ Abs: 37.30751  Tot: -0.00000 ]
	SubspaceRotationAdjust: set factor to 0.175
ElecMinimize: Iter:  44  F: -2054.874110630359610  |grad|_K:  1.009e-05  alpha:  2.046e-01  linmin: -2.597e-04  t[s]:   5209.80
	FillingsUpdate:  mu: +0.118401841  nElectrons: 350.000000  magneticMoment: [ Abs: 37.54810  Tot: -0.00000 ]
	SubspaceRotationAdjust: set factor to 0.208
ElecMinimize: Iter:  45  F: -2054.878152082647830  |grad|_K:  1.019e-05  alpha:  2.214e-01  linmin: -2.316e-04  t[s]:   5286.60
	FillingsUpdate:  mu: +0.118480681  nElectrons: 350.000000  magneticMoment: [ Abs: 37.77534  Tot: -0.00000 ]
	SubspaceRotationAdjust: set factor to 0.272
ElecMinimize: Iter:  46  F: -2054.882299064559447  |grad|_K:  1.081e-05  alpha:  2.234e-01  linmin: -1.690e-04  t[s]:   5363.03
	FillingsUpdate:  mu: +0.121314606  nElectrons: 350.000000  magneticMoment: [ Abs: 38.00408  Tot: +0.00000 ]
	SubspaceRotationAdjust: set factor to 0.355
ElecMinimize: Iter:  47  F: -2054.886878648903803  |grad|_K:  1.117e-05  alpha:  2.205e-01  linmin: -2.143e-04  t[s]:   5441.00
	FillingsUpdate:  mu: +0.121992226  nElectrons: 350.000000  magneticMoment: [ Abs: 38.20948  Tot: +0.00000 ]
	SubspaceRotationAdjust: set factor to 0.43
ElecMinimize: Iter:  48  F: -2054.891543220546282  |grad|_K:  1.193e-05  alpha:  2.087e-01  linmin: -1.366e-04  t[s]:   5517.00
	FillingsUpdate:  mu: +0.123264142  nElectrons: 350.000000  magneticMoment: [ Abs: 38.40284  Tot: -0.00000 ]
	SubspaceRotationAdjust: set factor to 0.523
ElecMinimize: Iter:  49  F: -2054.896316195500731  |grad|_K:  1.132e-05  alpha:  1.894e-01  linmin: -1.617e-04  t[s]:   5594.63
	FillingsUpdate:  mu: +0.117365614  nElectrons: 350.000000  magneticMoment: [ Abs: 38.57671  Tot: +0.00000 ]
	SubspaceRotationAdjust: set factor to 0.588
ElecMinimize: Iter:  50  F: -2054.900739657408849  |grad|_K:  1.100e-05  alpha:  1.925e-01  linmin:  9.596e-06  t[s]:   5672.23
	FillingsUpdate:  mu: +0.117181682  nElectrons: 350.000000  magneticMoment: [ Abs: 38.73718  Tot: -0.00000 ]
	SubspaceRotationAdjust: set factor to 0.66
ElecMinimize: Iter:  51  F: -2054.904427601550196  |grad|_K:  9.886e-06  alpha:  1.761e-01  linmin: -9.147e-05  t[s]:   5750.01
	FillingsUpdate:  mu: +0.118934854  nElectrons: 350.000000  magneticMoment: [ Abs: 38.83794  Tot: +0.00000 ]
	SubspaceRotationAdjust: set factor to 0.778
ElecMinimize: Iter:  52  F: -2054.907837047813700  |grad|_K:  9.901e-06  alpha:  1.975e-01  linmin:  1.123e-04  t[s]:   5827.27
	FillingsUpdate:  mu: +0.116553543  nElectrons: 350.000000  magneticMoment: [ Abs: 38.90459  Tot: -0.00000 ]
	SubspaceRotationAdjust: set factor to 0.941
	SubspaceRotationAdjust: resetting CG because factor has changed by 8.86002
ElecMinimize: 	State modified externally: resetting search direction.
ElecMinimize: Iter:  53  F: -2054.910692572080279  |grad|_K:  9.272e-06  alpha:  1.722e-01
	FillingsUpdate:  mu: +0.121214821  nElectrons: 350.000000  magneticMoment: [ Abs: 38.82201  Tot: -0.00000 ]
	SubspaceRotationAdjust: set factor to 0.658
ElecMinimize: Iter:  54  F: -2054.915404003686035  |grad|_K:  1.273e-05  alpha:  3.276e-01  linmin:  9.634e-04  t[s]:   6017.45
	FillingsUpdate:  mu: +0.128740496  nElectrons: 350.000000  magneticMoment: [ Abs: 38.81958  Tot: -0.00000 ]
	SubspaceRotationAdjust: set factor to 0.516
ElecMinimize: Iter:  55  F: -2054.917440116799753  |grad|_K:  1.210e-05  alpha:  1.295e-01  linmin:  1.084e-03  t[s]:   6094.51
	FillingsUpdate:  mu: +0.116034160  nElectrons: 350.000000  magneticMoment: [ Abs: 38.69783  Tot: +0.00000 ]
	SubspaceRotationAdjust: set factor to 0.473
ElecMinimize: Iter:  56  F: -2054.921023765200516  |grad|_K:  7.857e-06  alpha:  1.691e-01  linmin:  3.048e-04  t[s]:   6169.74
	FillingsUpdate:  mu: +0.121594183  nElectrons: 350.000000  magneticMoment: [ Abs: 38.64073  Tot: +0.00000 ]
	SubspaceRotationAdjust: set factor to 0.452
ElecMinimize: Iter:  57  F: -2054.922843327329247  |grad|_K:  6.073e-06  alpha:  1.755e-01  linmin:  3.564e-04  t[s]:   6246.09
	FillingsUpdate:  mu: +0.122318017  nElectrons: 350.000000  magneticMoment: [ Abs: 38.62267  Tot: +0.00000 ]
	SubspaceRotationAdjust: set factor to 0.451
ElecMinimize: Iter:  58  F: -2054.923812342621204  |grad|_K:  4.658e-06  alpha:  1.564e-01  linmin: -4.427e-04  t[s]:   6322.70
	FillingsUpdate:  mu: +0.117934307  nElectrons: 350.000000  magneticMoment: [ Abs: 38.60273  Tot: +0.00000 ]
	SubspaceRotationAdjust: set factor to 0.457
ElecMinimize: Iter:  59  F: -2054.924458669344858  |grad|_K:  3.318e-06  alpha:  1.665e-01  linmin: -2.563e-04  t[s]:   6399.15
	FillingsUpdate:  mu: +0.118190393  nElectrons: 350.000000  magneticMoment: [ Abs: 38.58396  Tot: +0.00000 ]
	SubspaceRotationAdjust: set factor to 0.467
ElecMinimize: Iter:  60  F: -2054.924985044651748  |grad|_K:  3.330e-06  alpha:  2.723e-01  linmin:  1.976e-04  t[s]:   6475.57
	FillingsUpdate:  mu: +0.120271472  nElectrons: 350.000000  magneticMoment: [ Abs: 38.58189  Tot: +0.00000 ]
	SubspaceRotationAdjust: set factor to 0.432
ElecMinimize: Iter:  61  F: -2054.925341033221230  |grad|_K:  3.184e-06  alpha:  1.876e-01  linmin: -1.852e-05  t[s]:   6552.98
	FillingsUpdate:  mu: +0.119857758  nElectrons: 350.000000  magneticMoment: [ Abs: 38.57363  Tot: -0.00000 ]
	SubspaceRotationAdjust: set factor to 0.578
ElecMinimize: Iter:  62  F: -2054.925875712933703  |grad|_K:  3.013e-06  alpha:  3.024e-01  linmin: -5.230e-06  t[s]:   6630.14
	FillingsUpdate:  mu: +0.117415782  nElectrons: 350.000000  magneticMoment: [ Abs: 38.56878  Tot: -0.00000 ]
	SubspaceRotationAdjust: set factor to 0.479
ElecMinimize: Iter:  63  F: -2054.926280448122270  |grad|_K:  3.519e-06  alpha:  2.570e-01  linmin: -8.541e-05  t[s]:   6707.97
	FillingsUpdate:  mu: +0.118700943  nElectrons: 350.000000  magneticMoment: [ Abs: 38.59072  Tot: +0.00000 ]
	SubspaceRotationAdjust: set factor to 0.465
ElecMinimize: Iter:  64  F: -2054.926696287671803  |grad|_K:  2.646e-06  alpha:  1.924e-01  linmin: -3.677e-05  t[s]:   6785.24
	FillingsUpdate:  mu: +0.119525176  nElectrons: 350.000000  magneticMoment: [ Abs: 38.60966  Tot: -0.00000 ]
	SubspaceRotationAdjust: set factor to 0.57
ElecMinimize: Iter:  65  F: -2054.927085639989400  |grad|_K:  2.500e-06  alpha:  3.184e-01  linmin:  1.437e-05  t[s]:   6862.99
	FillingsUpdate:  mu: +0.118328587  nElectrons: 350.000000  magneticMoment: [ Abs: 38.61261  Tot: +0.00000 ]
	SubspaceRotationAdjust: set factor to 0.527
ElecMinimize: Iter:  66  F: -2054.927376979162091  |grad|_K:  2.909e-06  alpha:  2.677e-01  linmin:  1.710e-05  t[s]:   6940.27
	FillingsUpdate:  mu: +0.119619466  nElectrons: 350.000000  magneticMoment: [ Abs: 38.64255  Tot: -0.00000 ]
	SubspaceRotationAdjust: set factor to 0.533
ElecMinimize: Iter:  67  F: -2054.927753962187126  |grad|_K:  2.803e-06  alpha:  2.563e-01  linmin: -3.744e-05  t[s]:   7018.03
	FillingsUpdate:  mu: +0.120752817  nElectrons: 350.000000  magneticMoment: [ Abs: 38.68441  Tot: -0.00000 ]
	SubspaceRotationAdjust: set factor to 0.598
ElecMinimize: Iter:  68  F: -2054.928342706046351  |grad|_K:  3.141e-06  alpha:  4.300e-01  linmin:  5.850e-05  t[s]:   7096.15
	FillingsUpdate:  mu: +0.118930644  nElectrons: 350.000000  magneticMoment: [ Abs: 38.71130  Tot: -0.00000 ]
	SubspaceRotationAdjust: set factor to 0.589
ElecMinimize: Iter:  69  F: -2054.928845528490001  |grad|_K:  3.567e-06  alpha:  2.921e-01  linmin:  6.837e-06  t[s]:   7173.30
	FillingsUpdate:  mu: +0.120308698  nElectrons: 350.000000  magneticMoment: [ Abs: 38.75680  Tot: +0.00000 ]
	SubspaceRotationAdjust: set factor to 0.518
ElecMinimize: Iter:  70  F: -2054.929291596450184  |grad|_K:  3.033e-06  alpha:  2.048e-01  linmin: -3.391e-05  t[s]:   7251.40
	FillingsUpdate:  mu: +0.120424622  nElectrons: 350.000000  magneticMoment: [ Abs: 38.78436  Tot: -0.00000 ]
	SubspaceRotationAdjust: set factor to 0.605
ElecMinimize: Iter:  71  F: -2054.929783264368780  |grad|_K:  2.582e-06  alpha:  3.059e-01  linmin:  1.088e-05  t[s]:   7329.28
	FillingsUpdate:  mu: +0.119057649  nElectrons: 350.000000  magneticMoment: [ Abs: 38.80074  Tot: -0.00000 ]
	SubspaceRotationAdjust: set factor to 0.665
ElecMinimize: Iter:  72  F: -2054.930120417410308  |grad|_K:  2.208e-06  alpha:  2.908e-01  linmin:  4.603e-05  t[s]:   7405.79
	FillingsUpdate:  mu: +0.119329490  nElectrons: 350.000000  magneticMoment: [ Abs: 38.81428  Tot: -0.00000 ]
	SubspaceRotationAdjust: set factor to 0.598
ElecMinimize: Iter:  73  F: -2054.930294635305927  |grad|_K:  2.041e-06  alpha:  2.060e-01  linmin:  2.480e-07  t[s]:   7482.68
	FillingsUpdate:  mu: +0.118956626  nElectrons: 350.000000  magneticMoment: [ Abs: 38.80761  Tot: +0.00000 ]
	SubspaceRotationAdjust: set factor to 0.639
ElecMinimize: Iter:  74  F: -2054.930458042882947  |grad|_K:  1.572e-06  alpha:  2.254e-01  linmin:  1.890e-05  t[s]:   7559.82
	FillingsUpdate:  mu: +0.119919498  nElectrons: 350.000000  magneticMoment: [ Abs: 38.80255  Tot: +0.00000 ]
	SubspaceRotationAdjust: set factor to 0.765
ElecMinimize: Iter:  75  F: -2054.930589537073956  |grad|_K:  1.439e-06  alpha:  3.060e-01  linmin:  6.299e-06  t[s]:   7636.40
	FillingsUpdate:  mu: +0.119369500  nElectrons: 350.000000  magneticMoment: [ Abs: 38.79614  Tot: -0.00000 ]
	SubspaceRotationAdjust: set factor to 0.899
ElecMinimize: Iter:  76  F: -2054.930721483301113  |grad|_K:  1.465e-06  alpha:  3.660e-01  linmin: -1.622e-06  t[s]:   7714.15
	FillingsUpdate:  mu: +0.119059486  nElectrons: 350.000000  magneticMoment: [ Abs: 38.78502  Tot: +0.00000 ]
	SubspaceRotationAdjust: set factor to 0.767
ElecMinimize: Iter:  77  F: -2054.930831872502949  |grad|_K:  1.766e-06  alpha:  2.945e-01  linmin:  2.886e-05  t[s]:   7791.44
	FillingsUpdate:  mu: +0.119872419  nElectrons: 350.000000  magneticMoment: [ Abs: 38.78573  Tot: -0.00000 ]
	SubspaceRotationAdjust: set factor to 0.644
ElecMinimize: Iter:  78  F: -2054.930908570722750  |grad|_K:  1.515e-06  alpha:  1.425e-01  linmin:  3.003e-05  t[s]:   7868.20
	FillingsUpdate:  mu: +0.119863499  nElectrons: 350.000000  magneticMoment: [ Abs: 38.77853  Tot: -0.00000 ]
	SubspaceRotationAdjust: set factor to 0.793
ElecMinimize: Iter:  79  F: -2054.931018324772140  |grad|_K:  1.338e-06  alpha:  2.764e-01  linmin:  6.564e-05  t[s]:   7947.73
	FillingsUpdate:  mu: +0.119126422  nElectrons: 350.000000  magneticMoment: [ Abs: 38.77443  Tot: -0.00000 ]
	SubspaceRotationAdjust: set factor to 0.904
ElecMinimize: Iter:  80  F: -2054.931118400942978  |grad|_K:  1.417e-06  alpha:  3.232e-01  linmin: -4.424e-07  t[s]:   8025.58
	FillingsUpdate:  mu: +0.119713406  nElectrons: 350.000000  magneticMoment: [ Abs: 38.77902  Tot: -0.00000 ]
	SubspaceRotationAdjust: set factor to 0.811
ElecMinimize: Iter:  81  F: -2054.931184157301686  |grad|_K:  1.622e-06  alpha:  1.887e-01  linmin:  6.381e-06  t[s]:   8104.64
	FillingsUpdate:  mu: +0.119840930  nElectrons: 350.000000  magneticMoment: [ Abs: 38.77645  Tot: -0.00000 ]
	SubspaceRotationAdjust: set factor to 0.741
ElecMinimize: Iter:  82  F: -2054.931271191023825  |grad|_K:  1.389e-06  alpha:  1.902e-01  linmin:  2.501e-05  t[s]:   8182.37
	FillingsUpdate:  mu: +0.119342758  nElectrons: 350.000000  magneticMoment: [ Abs: 38.78307  Tot: +0.00000 ]
	SubspaceRotationAdjust: set factor to 0.806
ElecMinimize: Iter:  83  F: -2054.931366709141912  |grad|_K:  1.213e-06  alpha:  2.841e-01  linmin: -8.868e-05  t[s]:   8258.84
	FillingsUpdate:  mu: +0.120044893  nElectrons: 350.000000  magneticMoment: [ Abs: 38.79210  Tot: +0.00000 ]
	SubspaceRotationAdjust: set factor to 0.883
ElecMinimize: Iter:  84  F: -2054.931445139432071  |grad|_K:  1.138e-06  alpha:  3.025e-01  linmin: -1.067e-05  t[s]:   8335.90
	FillingsUpdate:  mu: +0.119668999  nElectrons: 350.000000  magneticMoment: [ Abs: 38.79525  Tot: +0.00000 ]
	SubspaceRotationAdjust: set factor to 0.773
ElecMinimize: Iter:  85  F: -2054.931497051707083  |grad|_K:  1.284e-06  alpha:  2.298e-01  linmin:  6.001e-06  t[s]:   8413.45
	FillingsUpdate:  mu: +0.119582605  nElectrons: 350.000000  magneticMoment: [ Abs: 38.80335  Tot: +0.00000 ]
	SubspaceRotationAdjust: set factor to 0.644
ElecMinimize: Iter:  86  F: -2054.931536633162978  |grad|_K:  9.205e-07  alpha:  1.392e-01  linmin:  1.600e-05  t[s]:   8490.00
	FillingsUpdate:  mu: +0.119397747  nElectrons: 350.000000  magneticMoment: [ Abs: 38.80400  Tot: +0.00000 ]
	SubspaceRotationAdjust: set factor to 0.801
ElecMinimize: Iter:  87  F: -2054.931578059938147  |grad|_K:  7.457e-07  alpha:  2.814e-01  linmin:  9.018e-06  t[s]:   8568.11
	FillingsUpdate:  mu: +0.119734057  nElectrons: 350.000000  magneticMoment: [ Abs: 38.80101  Tot: -0.00000 ]
	SubspaceRotationAdjust: set factor to 0.91
ElecMinimize: Iter:  88  F: -2054.931606292170727  |grad|_K:  6.847e-07  alpha:  2.919e-01  linmin:  1.590e-05  t[s]:   8645.07
	FillingsUpdate:  mu: +0.119815395  nElectrons: 350.000000  magneticMoment: [ Abs: 38.80090  Tot: -0.00000 ]
	SubspaceRotationAdjust: set factor to 0.76
ElecMinimize: Iter:  89  F: -2054.931622556923230  |grad|_K:  7.496e-07  alpha:  1.998e-01  linmin: -1.581e-06  t[s]:   8722.37
	FillingsUpdate:  mu: +0.119449860  nElectrons: 350.000000  magneticMoment: [ Abs: 38.79584  Tot: +0.00000 ]
	SubspaceRotationAdjust: set factor to 0.691
ElecMinimize: Iter:  90  F: -2054.931637953401150  |grad|_K:  5.762e-07  alpha:  1.573e-01  linmin:  3.105e-06  t[s]:   8799.98
	FillingsUpdate:  mu: +0.119644117  nElectrons: 350.000000  magneticMoment: [ Abs: 38.79152  Tot: -0.00000 ]
	SubspaceRotationAdjust: set factor to 0.824
ElecMinimize: Iter:  91  F: -2054.931654402781078  |grad|_K:  4.927e-07  alpha:  2.848e-01  linmin:  8.830e-06  t[s]:   8876.98
	FillingsUpdate:  mu: +0.119675743  nElectrons: 350.000000  magneticMoment: [ Abs: 38.78685  Tot: -0.00000 ]
	SubspaceRotationAdjust: set factor to 0.938
ElecMinimize: Iter:  92  F: -2054.931668101279683  |grad|_K:  4.892e-07  alpha:  3.244e-01  linmin: -3.854e-06  t[s]:   8954.38
	FillingsUpdate:  mu: +0.119459588  nElectrons: 350.000000  magneticMoment: [ Abs: 38.78171  Tot: -0.00000 ]
	SubspaceRotationAdjust: set factor to 0.812
ElecMinimize: Iter:  93  F: -2054.931675791791804  |grad|_K:  5.325e-07  alpha:  1.842e-01  linmin: -6.028e-06  t[s]:   9032.41
	FillingsUpdate:  mu: +0.119590073  nElectrons: 350.000000  magneticMoment: [ Abs: 38.77908  Tot: +0.00000 ]
	SubspaceRotationAdjust: set factor to 0.764
ElecMinimize: Iter:  94  F: -2054.931683885453367  |grad|_K:  4.185e-07  alpha:  1.638e-01  linmin: -2.993e-06  t[s]:   9110.90
	FillingsUpdate:  mu: +0.119731170  nElectrons: 350.000000  magneticMoment: [ Abs: 38.77424  Tot: +0.00000 ]
	SubspaceRotationAdjust: set factor to 0.887
ElecMinimize: Iter:  95  F: -2054.931693181235460  |grad|_K:  3.801e-07  alpha:  3.049e-01  linmin:  1.276e-05  t[s]:   9188.26
	FillingsUpdate:  mu: +0.119554124  nElectrons: 350.000000  magneticMoment: [ Abs: 38.77119  Tot: -0.00000 ]
	SubspaceRotationAdjust: set factor to 1.01
ElecMinimize: Iter:  96  F: -2054.931701464351136  |grad|_K:  3.810e-07  alpha:  3.297e-01  linmin: -1.893e-06  t[s]:   9263.54
	FillingsUpdate:  mu: +0.119802614  nElectrons: 350.000000  magneticMoment: [ Abs: 38.77002  Tot: -0.00000 ]
	SubspaceRotationAdjust: set factor to 1.06
ElecMinimize: Iter:  97  F: -2054.931709249889082  |grad|_K:  4.364e-07  alpha:  3.080e-01  linmin: -4.867e-06  t[s]:   9338.67
	FillingsUpdate:  mu: +0.119706737  nElectrons: 350.000000  magneticMoment: [ Abs: 38.76790  Tot: -0.00000 ]
	SubspaceRotationAdjust: set factor to 0.897
ElecMinimize: Iter:  98  F: -2054.931714229632689  |grad|_K:  4.826e-07  alpha:  1.496e-01  linmin: -1.197e-05  t[s]:   9414.35
	FillingsUpdate:  mu: +0.119702722  nElectrons: 350.000000  magneticMoment: [ Abs: 38.76855  Tot: +0.00000 ]
	SubspaceRotationAdjust: set factor to 0.863
ElecMinimize: Iter:  99  F: -2054.931721281854152  |grad|_K:  3.787e-07  alpha:  1.735e-01  linmin: -1.118e-05  t[s]:   9491.41
	FillingsUpdate:  mu: +0.119825840  nElectrons: 350.000000  magneticMoment: [ Abs: 38.76721  Tot: +0.00000 ]
	SubspaceRotationAdjust: set factor to 1
ElecMinimize: Iter: 100  F: -2054.931729495929176  |grad|_K:  3.716e-07  alpha:  3.284e-01  linmin:  3.485e-06  t[s]:   9569.78
	FillingsUpdate:  mu: +0.119650431  nElectrons: 350.000000  magneticMoment: [ Abs: 38.76625  Tot: -0.00000 ]
	SubspaceRotationAdjust: set factor to 1.2
ElecMinimize: Iter: 101  F: -2054.931737999050711  |grad|_K:  3.889e-07  alpha:  3.539e-01  linmin:  1.239e-06  t[s]:   9648.29
	FillingsUpdate:  mu: +0.119809773  nElectrons: 350.000000  magneticMoment: [ Abs: 38.76604  Tot: +0.00000 ]
	SubspaceRotationAdjust: set factor to 1.07
ElecMinimize: Iter: 102  F: -2054.931746882922653  |grad|_K:  5.311e-07  alpha:  3.375e-01  linmin: -3.536e-06  t[s]:   9726.74
	FillingsUpdate:  mu: +0.119710781  nElectrons: 350.000000  magneticMoment: [ Abs: 38.76339  Tot: +0.00000 ]
	SubspaceRotationAdjust: set factor to 0.859
ElecMinimize: Iter: 103  F: -2054.931752456411687  |grad|_K:  5.420e-07  alpha:  1.130e-01  linmin: -1.486e-05  t[s]:   9804.25
	FillingsUpdate:  mu: +0.119733443  nElectrons: 350.000000  magneticMoment: [ Abs: 38.76171  Tot: +0.00000 ]
	SubspaceRotationAdjust: set factor to 1.03
ElecMinimize: Iter: 104  F: -2054.931765170301787  |grad|_K:  4.921e-07  alpha:  2.477e-01  linmin: -6.157e-06  t[s]:   9881.56
	FillingsUpdate:  mu: +0.119810626  nElectrons: 350.000000  magneticMoment: [ Abs: 38.76114  Tot: +0.00000 ]
	SubspaceRotationAdjust: set factor to 1.01
ElecMinimize: Iter: 105  F: -2054.931779315733820  |grad|_K:  6.381e-07  alpha:  3.350e-01  linmin: -4.732e-06  t[s]:   9959.68
	FillingsUpdate:  mu: +0.119615451  nElectrons: 350.000000  magneticMoment: [ Abs: 38.75864  Tot: +0.00000 ]
	SubspaceRotationAdjust: set factor to 0.812
ElecMinimize: Iter: 106  F: -2054.931787836978401  |grad|_K:  6.381e-07  alpha:  1.196e-01  linmin: -1.675e-05  t[s]:  10037.73
	FillingsUpdate:  mu: +0.119609183  nElectrons: 350.000000  magneticMoment: [ Abs: 38.75900  Tot: +0.00000 ]
	SubspaceRotationAdjust: set factor to 0.996
ElecMinimize: Iter: 107  F: -2054.931806426444837  |grad|_K:  5.899e-07  alpha:  2.610e-01  linmin: -1.147e-05  t[s]:  10115.82
	FillingsUpdate:  mu: +0.119856419  nElectrons: 350.000000  magneticMoment: [ Abs: 38.76036  Tot: -0.00000 ]
	SubspaceRotationAdjust: set factor to 0.881
ElecMinimize: Iter: 108  F: -2054.931825981165730  |grad|_K:  7.987e-07  alpha:  3.218e-01  linmin: -5.991e-06  t[s]:  10194.40
	FillingsUpdate:  mu: +0.119663608  nElectrons: 350.000000  magneticMoment: [ Abs: 38.75897  Tot: -0.00000 ]
	SubspaceRotationAdjust: set factor to 0.708
ElecMinimize: Iter: 109  F: -2054.931839230876903  |grad|_K:  7.316e-07  alpha:  1.184e-01  linmin: -1.848e-05  t[s]:  10269.52
	FillingsUpdate:  mu: +0.119547175  nElectrons: 350.000000  magneticMoment: [ Abs: 38.76351  Tot: +0.00000 ]
	SubspaceRotationAdjust: set factor to 0.922
ElecMinimize: Iter: 110  F: -2054.931867167163546  |grad|_K:  7.268e-07  alpha:  2.987e-01  linmin:  8.563e-06  t[s]:  10345.86
	FillingsUpdate:  mu: +0.119889702  nElectrons: 350.000000  magneticMoment: [ Abs: 38.77003  Tot: +0.00000 ]
	SubspaceRotationAdjust: set factor to 0.775
ElecMinimize: Iter: 111  F: -2054.931888767806413  |grad|_K:  9.508e-07  alpha:  2.354e-01  linmin:  4.273e-07  t[s]:  10423.20
	FillingsUpdate:  mu: +0.119822558  nElectrons: 350.000000  magneticMoment: [ Abs: 38.77147  Tot: -0.00000 ]
	SubspaceRotationAdjust: set factor to 0.708
ElecMinimize: Iter: 112  F: -2054.931910878262443  |grad|_K:  7.454e-07  alpha:  1.397e-01  linmin: -6.659e-06  t[s]:  10500.31
	FillingsUpdate:  mu: +0.119570341  nElectrons: 350.000000  magneticMoment: [ Abs: 38.77718  Tot: -0.00000 ]
	SubspaceRotationAdjust: set factor to 0.898
ElecMinimize: Iter: 113  F: -2054.931942027240439  |grad|_K:  7.915e-07  alpha:  3.227e-01  linmin:  2.518e-05  t[s]:  10577.93
	FillingsUpdate:  mu: +0.119820490  nElectrons: 350.000000  magneticMoment: [ Abs: 38.78372  Tot: +0.00000 ]
	SubspaceRotationAdjust: set factor to 0.801
ElecMinimize: Iter: 114  F: -2054.931964171205436  |grad|_K:  9.425e-07  alpha:  2.043e-01  linmin: -3.688e-06  t[s]:  10655.75
	FillingsUpdate:  mu: +0.119804568  nElectrons: 350.000000  magneticMoment: [ Abs: 38.78561  Tot: -0.00000 ]
	SubspaceRotationAdjust: set factor to 0.811
ElecMinimize: Iter: 115  F: -2054.931990273808879  |grad|_K:  7.564e-07  alpha:  1.683e-01  linmin:  4.671e-06  t[s]:  10733.25
	FillingsUpdate:  mu: +0.119828096  nElectrons: 350.000000  magneticMoment: [ Abs: 38.78908  Tot: -0.00000 ]
	SubspaceRotationAdjust: set factor to 1.03
ElecMinimize: Iter: 116  F: -2054.932022130691166  |grad|_K:  7.560e-07  alpha:  3.209e-01  linmin:  1.188e-05  t[s]:  10809.80
	FillingsUpdate:  mu: +0.119958787  nElectrons: 350.000000  magneticMoment: [ Abs: 38.79195  Tot: +0.00000 ]
	SubspaceRotationAdjust: set factor to 0.904
ElecMinimize: Iter: 117  F: -2054.932048584940276  |grad|_K:  9.417e-07  alpha:  2.668e-01  linmin: -2.990e-06  t[s]:  10888.22
	FillingsUpdate:  mu: +0.119759115  nElectrons: 350.000000  magneticMoment: [ Abs: 38.78913  Tot: -0.00000 ]
	SubspaceRotationAdjust: set factor to 0.749
ElecMinimize: Iter: 118  F: -2054.932066892419698  |grad|_K:  7.960e-07  alpha:  1.175e-01  linmin: -1.811e-05  t[s]:  10966.33
	FillingsUpdate:  mu: +0.119900387  nElectrons: 350.000000  magneticMoment: [ Abs: 38.78854  Tot: -0.00000 ]
	SubspaceRotationAdjust: set factor to 0.957
ElecMinimize: Iter: 119  F: -2054.932094863722341  |grad|_K:  6.779e-07  alpha:  2.520e-01  linmin: -3.618e-06  t[s]:  11043.37
	FillingsUpdate:  mu: +0.119959886  nElectrons: 350.000000  magneticMoment: [ Abs: 38.78825  Tot: +0.00000 ]
	SubspaceRotationAdjust: set factor to 0.909
ElecMinimize: Iter: 120  F: -2054.932115365011214  |grad|_K:  7.621e-07  alpha:  2.559e-01  linmin: -6.598e-06  t[s]:  11120.81
	FillingsUpdate:  mu: +0.119780472  nElectrons: 350.000000  magneticMoment: [ Abs: 38.78408  Tot: +0.00000 ]
	SubspaceRotationAdjust: set factor to 0.747
ElecMinimize: Iter: 121  F: -2054.932127542336730  |grad|_K:  6.585e-07  alpha:  1.199e-01  linmin: -7.251e-06  t[s]:  11197.93
	FillingsUpdate:  mu: +0.119921574  nElectrons: 350.000000  magneticMoment: [ Abs: 38.78100  Tot: +0.00000 ]
	SubspaceRotationAdjust: set factor to 0.949
ElecMinimize: Iter: 122  F: -2054.932144803753090  |grad|_K:  5.214e-07  alpha:  2.280e-01  linmin: -9.956e-06  t[s]:  11273.51
	FillingsUpdate:  mu: +0.119875606  nElectrons: 350.000000  magneticMoment: [ Abs: 38.77958  Tot: +0.00000 ]
	SubspaceRotationAdjust: set factor to 0.927
ElecMinimize: Iter: 123  F: -2054.932157139889114  |grad|_K:  5.749e-07  alpha:  2.599e-01  linmin: -8.535e-06  t[s]:  11350.21
	FillingsUpdate:  mu: +0.119708956  nElectrons: 350.000000  magneticMoment: [ Abs: 38.77640  Tot: -0.00000 ]
	SubspaceRotationAdjust: set factor to 0.767
ElecMinimize: Iter: 124  F: -2054.932164092161656  |grad|_K:  5.043e-07  alpha:  1.205e-01  linmin: -2.731e-06  t[s]:  11427.15
	FillingsUpdate:  mu: +0.119856378  nElectrons: 350.000000  magneticMoment: [ Abs: 38.77485  Tot: +0.00000 ]
	SubspaceRotationAdjust: set factor to 0.976
ElecMinimize: Iter: 125  F: -2054.932173610589871  |grad|_K:  3.899e-07  alpha:  2.148e-01  linmin: -3.407e-06  t[s]:  11503.26
	FillingsUpdate:  mu: +0.119857530  nElectrons: 350.000000  magneticMoment: [ Abs: 38.77372  Tot: +0.00000 ]
	SubspaceRotationAdjust: set factor to 0.938
ElecMinimize: Iter: 126  F: -2054.932180823564977  |grad|_K:  4.304e-07  alpha:  2.723e-01  linmin: -4.830e-06  t[s]:  11579.27
	FillingsUpdate:  mu: +0.119710104  nElectrons: 350.000000  magneticMoment: [ Abs: 38.77122  Tot: +0.00000 ]
	SubspaceRotationAdjust: set factor to 0.779
ElecMinimize: Iter: 127  F: -2054.932184641646018  |grad|_K:  3.879e-07  alpha:  1.183e-01  linmin: -2.646e-09  t[s]:  11655.60
	FillingsUpdate:  mu: +0.119750231  nElectrons: 350.000000  magneticMoment: [ Abs: 38.76972  Tot: +0.00000 ]
	SubspaceRotationAdjust: set factor to 1.02
ElecMinimize: Iter: 128  F: -2054.932190281889234  |grad|_K:  3.031e-07  alpha:  2.153e-01  linmin: -1.952e-06  t[s]:  11732.23
	FillingsUpdate:  mu: +0.119861243  nElectrons: 350.000000  magneticMoment: [ Abs: 38.76854  Tot: -0.00000 ]
	SubspaceRotationAdjust: set factor to 0.918
ElecMinimize: Iter: 129  F: -2054.932194557376079  |grad|_K:  3.517e-07  alpha:  2.672e-01  linmin: -1.446e-06  t[s]:  11811.15
	FillingsUpdate:  mu: +0.119766495  nElectrons: 350.000000  magneticMoment: [ Abs: 38.76644  Tot: +0.00000 ]
	SubspaceRotationAdjust: set factor to 0.775
ElecMinimize: Iter: 130  F: -2054.932196993583602  |grad|_K:  3.098e-07  alpha:  1.131e-01  linmin: -7.006e-08  t[s]:  11888.52
	FillingsUpdate:  mu: +0.119715431  nElectrons: 350.000000  magneticMoment: [ Abs: 38.76521  Tot: +0.00000 ]
	SubspaceRotationAdjust: set factor to 1.06
ElecMinimize: Iter: 131  F: -2054.932200885546990  |grad|_K:  2.597e-07  alpha:  2.328e-01  linmin: -2.714e-06  t[s]:  11965.77
	FillingsUpdate:  mu: +0.119838441  nElectrons: 350.000000  magneticMoment: [ Abs: 38.76473  Tot: -0.00000 ]
	SubspaceRotationAdjust: set factor to 0.841
ElecMinimize: Iter: 132  F: -2054.932203683631087  |grad|_K:  3.325e-07  alpha:  2.382e-01  linmin:  1.697e-06  t[s]:  12044.64
	FillingsUpdate:  mu: +0.119802870  nElectrons: 350.000000  magneticMoment: [ Abs: 38.76283  Tot: -0.00000 ]
	SubspaceRotationAdjust: set factor to 0.735
ElecMinimize: Iter: 133  F: -2054.932205761708701  |grad|_K:  2.559e-07  alpha:  1.079e-01  linmin: -2.479e-06  t[s]:  12121.62
	FillingsUpdate:  mu: +0.119742841  nElectrons: 350.000000  magneticMoment: [ Abs: 38.76142  Tot: -0.00000 ]
	SubspaceRotationAdjust: set factor to 0.979
ElecMinimize: Iter: 134  F: -2054.932208908533994  |grad|_K:  2.504e-07  alpha:  2.758e-01  linmin: -4.172e-06  t[s]:  12199.92
	FillingsUpdate:  mu: +0.119817048  nElectrons: 350.000000  magneticMoment: [ Abs: 38.76163  Tot: -0.00000 ]
	SubspaceRotationAdjust: set factor to 0.862
ElecMinimize: Iter: 135  F: -2054.932210916143958  |grad|_K:  2.948e-07  alpha:  1.837e-01  linmin: -7.519e-07  t[s]:  12278.36
	FillingsUpdate:  mu: +0.119800647  nElectrons: 350.000000  magneticMoment: [ Abs: 38.76056  Tot: -0.00000 ]
	SubspaceRotationAdjust: set factor to 0.856
ElecMinimize: Iter: 136  F: -2054.932213202002004  |grad|_K:  2.291e-07  alpha:  1.510e-01  linmin:  2.183e-06  t[s]:  12356.05
	FillingsUpdate:  mu: +0.119766781  nElectrons: 350.000000  magneticMoment: [ Abs: 38.76088  Tot: -0.00000 ]
	SubspaceRotationAdjust: set factor to 1.08
ElecMinimize: Iter: 137  F: -2054.932216008093292  |grad|_K:  2.279e-07  alpha:  3.071e-01  linmin: -8.843e-07  t[s]:  12433.41
	FillingsUpdate:  mu: +0.119841362  nElectrons: 350.000000  magneticMoment: [ Abs: 38.76225  Tot: -0.00000 ]
	SubspaceRotationAdjust: set factor to 0.869
ElecMinimize: Iter: 138  F: -2054.932218052422286  |grad|_K:  2.914e-07  alpha:  2.261e-01  linmin: -2.664e-07  t[s]:  12511.74
	FillingsUpdate:  mu: +0.119810369  nElectrons: 350.000000  magneticMoment: [ Abs: 38.76231  Tot: -0.00000 ]
	SubspaceRotationAdjust: set factor to 0.752
ElecMinimize: Iter: 139  F: -2054.932219773634642  |grad|_K:  2.252e-07  alpha:  1.163e-01  linmin: -1.821e-06  t[s]:  12590.77
	FillingsUpdate:  mu: +0.119820915  nElectrons: 350.000000  magneticMoment: [ Abs: 38.76453  Tot: +0.00000 ]
	SubspaceRotationAdjust: set factor to 0.98
ElecMinimize: Iter: 140  F: -2054.932222252746215  |grad|_K:  2.085e-07  alpha:  2.806e-01  linmin:  1.082e-06  t[s]:  12668.55
	FillingsUpdate:  mu: +0.119839327  nElectrons: 350.000000  magneticMoment: [ Abs: 38.76715  Tot: +0.00000 ]
	SubspaceRotationAdjust: set factor to 0.852
ElecMinimize: Iter: 141  F: -2054.932224098531151  |grad|_K:  2.527e-07  alpha:  2.439e-01  linmin:  2.808e-07  t[s]:  12745.58
	FillingsUpdate:  mu: +0.119795724  nElectrons: 350.000000  magneticMoment: [ Abs: 38.76789  Tot: +0.00000 ]
	SubspaceRotationAdjust: set factor to 0.732
ElecMinimize: Iter: 142  F: -2054.932225454071158  |grad|_K:  2.040e-07  alpha:  1.218e-01  linmin: -1.118e-06  t[s]:  12822.11
	FillingsUpdate:  mu: +0.119873126  nElectrons: 350.000000  magneticMoment: [ Abs: 38.77001  Tot: -0.00000 ]
	SubspaceRotationAdjust: set factor to 0.943
ElecMinimize: Iter: 143  F: -2054.932227363844959  |grad|_K:  1.811e-07  alpha:  2.634e-01  linmin: -2.313e-06  t[s]:  12899.46
	FillingsUpdate:  mu: +0.119866329  nElectrons: 350.000000  magneticMoment: [ Abs: 38.77215  Tot: -0.00000 ]
	SubspaceRotationAdjust: set factor to 0.84
ElecMinimize: Iter: 144  F: -2054.932228792159094  |grad|_K:  2.137e-07  alpha:  2.499e-01  linmin: -3.821e-06  t[s]:  12978.51
	FillingsUpdate:  mu: +0.119791012  nElectrons: 350.000000  magneticMoment: [ Abs: 38.77261  Tot: +0.00000 ]
	SubspaceRotationAdjust: set factor to 0.72
ElecMinimize: Iter: 145  F: -2054.932229780833040  |grad|_K:  1.769e-07  alpha:  1.242e-01  linmin: -1.363e-06  t[s]:  13058.37
	FillingsUpdate:  mu: +0.119838766  nElectrons: 350.000000  magneticMoment: [ Abs: 38.77395  Tot: -0.00000 ]
	SubspaceRotationAdjust: set factor to 0.952
ElecMinimize: Iter: 146  F: -2054.932231181386669  |grad|_K:  1.546e-07  alpha:  2.571e-01  linmin:  4.894e-06  t[s]:  13135.37
	FillingsUpdate:  mu: +0.119886306  nElectrons: 350.000000  magneticMoment: [ Abs: 38.77486  Tot: -0.00000 ]
	SubspaceRotationAdjust: set factor to 0.819
ElecMinimize: Iter: 147  F: -2054.932232223766277  |grad|_K:  1.882e-07  alpha:  2.507e-01  linmin: -1.476e-06  t[s]:  13215.22
	FillingsUpdate:  mu: +0.119832664  nElectrons: 350.000000  magneticMoment: [ Abs: 38.77441  Tot: -0.00000 ]
	SubspaceRotationAdjust: set factor to 0.716
ElecMinimize: Iter: 148  F: -2054.932232989983277  |grad|_K:  1.554e-07  alpha:  1.241e-01  linmin: -1.809e-06  t[s]:  13293.99
	FillingsUpdate:  mu: +0.119813416  nElectrons: 350.000000  magneticMoment: [ Abs: 38.77432  Tot: -0.00000 ]
	SubspaceRotationAdjust: set factor to 0.946
ElecMinimize: Iter: 149  F: -2054.932234168904415  |grad|_K:  1.461e-07  alpha:  2.799e-01  linmin: -5.909e-06  t[s]:  13372.86
	FillingsUpdate:  mu: +0.119874460  nElectrons: 350.000000  magneticMoment: [ Abs: 38.77437  Tot: +0.00000 ]
	SubspaceRotationAdjust: set factor to 0.803
ElecMinimize: Iter: 150  F: -2054.932235053659042  |grad|_K:  1.841e-07  alpha:  2.378e-01  linmin:  1.302e-07  t[s]:  13452.09
	FillingsUpdate:  mu: +0.119850174  nElectrons: 350.000000  magneticMoment: [ Abs: 38.77327  Tot: +0.00000 ]
	SubspaceRotationAdjust: set factor to 0.727
ElecMinimize: Iter: 151  F: -2054.932235841891270  |grad|_K:  1.509e-07  alpha:  1.336e-01  linmin: -3.363e-07  t[s]:  13529.46
	FillingsUpdate:  mu: +0.119817985  nElectrons: 350.000000  magneticMoment: [ Abs: 38.77213  Tot: +0.00000 ]
	SubspaceRotationAdjust: set factor to 0.935
ElecMinimize: Iter: 152  F: -2054.932237008968514  |grad|_K:  1.494e-07  alpha:  2.944e-01  linmin:  3.660e-06  t[s]:  13606.60
	FillingsUpdate:  mu: +0.119864794  nElectrons: 350.000000  magneticMoment: [ Abs: 38.77159  Tot: +0.00000 ]
	SubspaceRotationAdjust: set factor to 0.809
ElecMinimize: Iter: 153  F: -2054.932237948974489  |grad|_K:  1.919e-07  alpha:  2.419e-01  linmin: -6.650e-07  t[s]:  13685.94
	FillingsUpdate:  mu: +0.119844111  nElectrons: 350.000000  magneticMoment: [ Abs: 38.77011  Tot: +0.00000 ]
	SubspaceRotationAdjust: set factor to 0.734
ElecMinimize: Iter: 154  F: -2054.932238849884925  |grad|_K:  1.610e-07  alpha:  1.405e-01  linmin: -5.733e-07  t[s]:  13763.68
	FillingsUpdate:  mu: +0.119840799  nElectrons: 350.000000  magneticMoment: [ Abs: 38.76899  Tot: +0.00000 ]
	SubspaceRotationAdjust: set factor to 0.932
ElecMinimize: Iter: 155  F: -2054.932240235613790  |grad|_K:  1.623e-07  alpha:  3.068e-01  linmin: -1.950e-06  t[s]:  13842.66
	FillingsUpdate:  mu: +0.119875878  nElectrons: 350.000000  magneticMoment: [ Abs: 38.76855  Tot: +0.00000 ]
	SubspaceRotationAdjust: set factor to 0.828
ElecMinimize: Iter: 156  F: -2054.932241419131969  |grad|_K:  2.088e-07  alpha:  2.578e-01  linmin: -1.593e-06  t[s]:  13920.63
	FillingsUpdate:  mu: +0.119835728  nElectrons: 350.000000  magneticMoment: [ Abs: 38.76720  Tot: +0.00000 ]
	SubspaceRotationAdjust: set factor to 0.722
ElecMinimize: Iter: 157  F: -2054.932242459969075  |grad|_K:  1.779e-07  alpha:  1.371e-01  linmin: -7.980e-07  t[s]:  13998.36
	FillingsUpdate:  mu: +0.119842264  nElectrons: 350.000000  magneticMoment: [ Abs: 38.76651  Tot: -0.00000 ]
	SubspaceRotationAdjust: set factor to 0.907
ElecMinimize: Iter: 158  F: -2054.932244079214342  |grad|_K:  1.711e-07  alpha:  2.939e-01  linmin:  1.281e-06  t[s]:  14076.71
	FillingsUpdate:  mu: +0.119844019  nElectrons: 350.000000  magneticMoment: [ Abs: 38.76672  Tot: -0.00000 ]
	SubspaceRotationAdjust: set factor to 0.871
ElecMinimize: Iter: 159  F: -2054.932245421760399  |grad|_K:  2.052e-07  alpha:  2.635e-01  linmin: -1.663e-06  t[s]:  14153.69
	FillingsUpdate:  mu: +0.119798084  nElectrons: 350.000000  magneticMoment: [ Abs: 38.76599  Tot: +0.00000 ]
	SubspaceRotationAdjust: set factor to 0.743
ElecMinimize: Iter: 160  F: -2054.932246423640663  |grad|_K:  1.827e-07  alpha:  1.366e-01  linmin: -1.632e-06  t[s]:  14232.18
	FillingsUpdate:  mu: +0.119864844  nElectrons: 350.000000  magneticMoment: [ Abs: 38.76618  Tot: -0.00000 ]
	SubspaceRotationAdjust: set factor to 0.902
ElecMinimize: Iter: 161  F: -2054.932247923058185  |grad|_K:  1.620e-07  alpha:  2.578e-01  linmin: -2.037e-06  t[s]:  14310.17
	FillingsUpdate:  mu: +0.119842405  nElectrons: 350.000000  magneticMoment: [ Abs: 38.76695  Tot: +0.00000 ]
	SubspaceRotationAdjust: set factor to 0.99
ElecMinimize: Iter: 162  F: -2054.932249256808973  |grad|_K:  1.819e-07  alpha:  2.917e-01  linmin: -6.771e-07  t[s]:  14388.61
	FillingsUpdate:  mu: +0.119778774  nElectrons: 350.000000  magneticMoment: [ Abs: 38.76690  Tot: +0.00000 ]
	SubspaceRotationAdjust: set factor to 0.85
ElecMinimize: Iter: 163  F: -2054.932250099810517  |grad|_K:  1.878e-07  alpha:  1.462e-01  linmin: -1.941e-06  t[s]:  14464.41
	FillingsUpdate:  mu: +0.119839234  nElectrons: 350.000000  magneticMoment: [ Abs: 38.76834  Tot: -0.00000 ]
	SubspaceRotationAdjust: set factor to 0.916
ElecMinimize: Iter: 164  F: -2054.932251299185282  |grad|_K:  1.531e-07  alpha:  1.954e-01  linmin:  1.883e-07  t[s]:  14539.85
	FillingsUpdate:  mu: +0.119862619  nElectrons: 350.000000  magneticMoment: [ Abs: 38.76958  Tot: -0.00000 ]
	SubspaceRotationAdjust: set factor to 1.12
ElecMinimize: Iter: 165  F: -2054.932252572224570  |grad|_K:  1.483e-07  alpha:  3.122e-01  linmin:  2.900e-06  t[s]:  14615.17
	FillingsUpdate:  mu: +0.119779694  nElectrons: 350.000000  magneticMoment: [ Abs: 38.77062  Tot: +0.00000 ]
	SubspaceRotationAdjust: set factor to 1.13
ElecMinimize: Iter: 166  F: -2054.932253653376847  |grad|_K:  1.743e-07  alpha:  2.824e-01  linmin:  1.535e-06  t[s]:  14691.28
	FillingsUpdate:  mu: +0.119827972  nElectrons: 350.000000  magneticMoment: [ Abs: 38.77217  Tot: -0.00000 ]
	SubspaceRotationAdjust: set factor to 0.966
ElecMinimize: Iter: 167  F: -2054.932254322124663  |grad|_K:  1.835e-07  alpha:  1.267e-01  linmin:  1.074e-06  t[s]:  14767.72
	FillingsUpdate:  mu: +0.119843602  nElectrons: 350.000000  magneticMoment: [ Abs: 38.77348  Tot: +0.00000 ]
	SubspaceRotationAdjust: set factor to 1.02
ElecMinimize: Iter: 168  F: -2054.932255376935700  |grad|_K:  1.517e-07  alpha:  1.800e-01  linmin:  3.515e-06  t[s]:  14843.65
	FillingsUpdate:  mu: +0.119784301  nElectrons: 350.000000  magneticMoment: [ Abs: 38.77564  Tot: -0.00000 ]
	SubspaceRotationAdjust: set factor to 1.19
ElecMinimize: Iter: 169  F: -2054.932256555776803  |grad|_K:  1.510e-07  alpha:  2.944e-01  linmin: -3.943e-06  t[s]:  14919.99
	FillingsUpdate:  mu: +0.119847291  nElectrons: 350.000000  magneticMoment: [ Abs: 38.77779  Tot: +0.00000 ]
	SubspaceRotationAdjust: set factor to 1.32
ElecMinimize: Iter: 170  F: -2054.932257717252924  |grad|_K:  1.715e-07  alpha:  2.923e-01  linmin: -2.875e-06  t[s]:  14995.90
	FillingsUpdate:  mu: +0.119785971  nElectrons: 350.000000  magneticMoment: [ Abs: 38.77854  Tot: +0.00000 ]
	SubspaceRotationAdjust: set factor to 1.04
ElecMinimize: Iter: 171  F: -2054.932258487190211  |grad|_K:  2.178e-07  alpha:  1.503e-01  linmin: -1.651e-06  t[s]:  15071.57
	FillingsUpdate:  mu: +0.119787520  nElectrons: 350.000000  magneticMoment: [ Abs: 38.78084  Tot: -0.00000 ]
	SubspaceRotationAdjust: set factor to 0.944
ElecMinimize: Iter: 172  F: -2054.932259533359684  |grad|_K:  1.672e-07  alpha:  1.266e-01  linmin: -1.300e-06  t[s]:  15148.39
	FillingsUpdate:  mu: +0.119830455  nElectrons: 350.000000  magneticMoment: [ Abs: 38.78257  Tot: -0.00000 ]
	SubspaceRotationAdjust: set factor to 1.1
ElecMinimize: Iter: 173  F: -2054.932260943382516  |grad|_K:  1.624e-07  alpha:  2.903e-01  linmin:  8.581e-06  t[s]:  15225.86
	FillingsUpdate:  mu: +0.119769073  nElectrons: 350.000000  magneticMoment: [ Abs: 38.78360  Tot: +0.00000 ]
	SubspaceRotationAdjust: set factor to 1.24
ElecMinimize: Iter: 174  F: -2054.932262344449555  |grad|_K:  1.783e-07  alpha:  3.060e-01  linmin:  1.558e-06  t[s]:  15302.12
	FillingsUpdate:  mu: +0.119812577  nElectrons: 350.000000  magneticMoment: [ Abs: 38.78469  Tot: -0.00000 ]
	SubspaceRotationAdjust: set factor to 0.988
ElecMinimize: Iter: 175  F: -2054.932263253677320  |grad|_K:  2.274e-07  alpha:  1.645e-01  linmin:  5.175e-08  t[s]:  15378.46
	FillingsUpdate:  mu: +0.119794658  nElectrons: 350.000000  magneticMoment: [ Abs: 38.78442  Tot: +0.00000 ]
	SubspaceRotationAdjust: set factor to 0.89
ElecMinimize: Iter: 176  F: -2054.932264411593678  |grad|_K:  1.737e-07  alpha:  1.286e-01  linmin:  5.458e-07  t[s]:  15454.90
	FillingsUpdate:  mu: +0.119808212  nElectrons: 350.000000  magneticMoment: [ Abs: 38.78453  Tot: -0.00000 ]
	SubspaceRotationAdjust: set factor to 1.07
ElecMinimize: Iter: 177  F: -2054.932265966359864  |grad|_K:  1.666e-07  alpha:  2.964e-01  linmin:  3.445e-06  t[s]:  15532.25
	FillingsUpdate:  mu: +0.119764815  nElectrons: 350.000000  magneticMoment: [ Abs: 38.78432  Tot: +0.00000 ]
	SubspaceRotationAdjust: set factor to 1.19
ElecMinimize: Iter: 178  F: -2054.932267415754723  |grad|_K:  1.791e-07  alpha:  3.003e-01  linmin: -5.440e-07  t[s]:  15608.43
	FillingsUpdate:  mu: +0.119740247  nElectrons: 350.000000  magneticMoment: [ Abs: 38.78311  Tot: -0.00000 ]
	SubspaceRotationAdjust: set factor to 0.978
ElecMinimize: Iter: 179  F: -2054.932268331468094  |grad|_K:  2.189e-07  alpha:  1.638e-01  linmin: -7.452e-07  t[s]:  15685.01
	FillingsUpdate:  mu: +0.119812770  nElectrons: 350.000000  magneticMoment: [ Abs: 38.78282  Tot: -0.00000 ]
	SubspaceRotationAdjust: set factor to 0.885
ElecMinimize: Iter: 180  F: -2054.932269407320291  |grad|_K:  1.662e-07  alpha:  1.289e-01  linmin: -1.095e-06  t[s]:  15762.11
	FillingsUpdate:  mu: +0.119739099  nElectrons: 350.000000  magneticMoment: [ Abs: 38.78174  Tot: -0.00000 ]
	SubspaceRotationAdjust: set factor to 1.04
ElecMinimize: Iter: 181  F: -2054.932270705552128  |grad|_K:  1.509e-07  alpha:  2.703e-01  linmin:  6.090e-06  t[s]:  15838.26
	FillingsUpdate:  mu: +0.119733776  nElectrons: 350.000000  magneticMoment: [ Abs: 38.78063  Tot: -0.00000 ]
	SubspaceRotationAdjust: set factor to 1.18
ElecMinimize: Iter: 182  F: -2054.932271840220437  |grad|_K:  1.513e-07  alpha:  2.865e-01  linmin:  2.476e-06  t[s]:  15914.98
	FillingsUpdate:  mu: +0.119765377  nElectrons: 350.000000  magneticMoment: [ Abs: 38.78057  Tot: -0.00000 ]
	SubspaceRotationAdjust: set factor to 0.966
ElecMinimize: Iter: 183  F: -2054.932272542182545  |grad|_K:  1.844e-07  alpha:  1.763e-01  linmin:  1.215e-06  t[s]:  15990.71
	FillingsUpdate:  mu: +0.119716349  nElectrons: 350.000000  magneticMoment: [ Abs: 38.77962  Tot: -0.00000 ]
	SubspaceRotationAdjust: set factor to 0.84
ElecMinimize: Iter: 184  F: -2054.932273232906482  |grad|_K:  1.354e-07  alpha:  1.167e-01  linmin: -2.416e-07  t[s]:  16066.55
	FillingsUpdate:  mu: +0.119730689  nElectrons: 350.000000  magneticMoment: [ Abs: 38.77925  Tot: -0.00000 ]
	SubspaceRotationAdjust: set factor to 1.04
ElecMinimize: Iter: 185  F: -2054.932274085162589  |grad|_K:  1.195e-07  alpha:  2.664e-01  linmin: -7.358e-06  t[s]:  16143.60
	FillingsUpdate:  mu: +0.119747135  nElectrons: 350.000000  magneticMoment: [ Abs: 38.77914  Tot: +0.00000 ]
	SubspaceRotationAdjust: set factor to 1.15
ElecMinimize: Iter: 186  F: -2054.932274785346635  |grad|_K:  1.292e-07  alpha:  2.812e-01  linmin: -5.060e-07  t[s]:  16220.55
	FillingsUpdate:  mu: +0.119699272  nElectrons: 350.000000  magneticMoment: [ Abs: 38.77856  Tot: -0.00000 ]
	SubspaceRotationAdjust: set factor to 1
ElecMinimize: Iter: 187  F: -2054.932275186310562  |grad|_K:  1.416e-07  alpha:  1.382e-01  linmin: -1.923e-06  t[s]:  16297.92
ElecMinimize: Converged (|Delta F|<1.000000e-06 for 5 iters).
Setting wave functions to eigenvectors of Hamiltonian

# Ionic positions in lattice coordinates:
ion Ni   0.000000000000000   0.000000000000000   0.150000000000000 1
ion Ni  -0.250000000000000   0.250000000000000   0.050000000000000 1
ion Ni   0.000000000000000   0.000000000000000  -0.050000000000000 0
ion Ni   0.500000000000000   0.000000000000000  -0.050000000000000 0
ion Ni  -0.250000000000000   0.250000000000000  -0.150000000000000 0
ion V   0.500000000000000   0.000000000000000   0.150000000000000 1
ion V   0.000000000000000   0.500000000000000   0.150000000000000 1
ion V   0.500000000000000   0.500000000000000   0.150000000000000 1
ion V   0.250000000000000   0.750000000000000   0.050000000000000 1
ion V   0.250000000000000   0.750000000000000  -0.150000000000000 0
ion Cr   0.250000000000000   0.250000000000000   0.050000000000000 1
ion Cr   0.000000000000000   0.500000000000000  -0.050000000000000 0
ion Cr  -0.250000000000000   0.750000000000000  -0.150000000000000 0
ion Co  -0.250000000000000   0.750000000000000   0.050000000000000 1
ion Co   0.500000000000000   0.500000000000000  -0.050000000000000 0
ion Co   0.250000000000000   0.250000000000000  -0.150000000000000 0
ion O   0.250000000000000   0.250000000000000   0.150000000000000 1
ion O   0.250000000000000   0.750000000000000   0.150000000000000 1
ion O  -0.250000000000000   0.250000000000000   0.150000000000000 1
ion O  -0.250000000000000   0.750000000000000   0.150000000000000 1
[...]
	SubspaceRotationAdjust: set factor to 0.103
ElecMinimize: Iter:  13  F: -2054.971523235119548  |grad|_K:  2.240e-07  alpha:  2.713e-01  linmin: -1.444e-06  t[s]:  63004.28
	FillingsUpdate:  mu: +0.121831825  nElectrons: 350.000000  magneticMoment: [ Abs: 38.09011  Tot: +0.00000 ]
	SubspaceRotationAdjust: set factor to 0.108
ElecMinimize: Iter:  14  F: -2054.971525819229555  |grad|_K:  1.582e-07  alpha:  2.957e-01  linmin: -2.049e-07  t[s]:  63081.64
	FillingsUpdate:  mu: +0.121824086  nElectrons: 350.000000  magneticMoment: [ Abs: 38.09011  Tot: +0.00000 ]
	SubspaceRotationAdjust: set factor to 0.111
ElecMinimize: Iter:  15  F: -2054.971527226102808  |grad|_K:  1.245e-07  alpha:  3.227e-01  linmin:  1.964e-06  t[s]:  63158.02
	FillingsUpdate:  mu: +0.121828608  nElectrons: 350.000000  magneticMoment: [ Abs: 38.09017  Tot: -0.00000 ]
	SubspaceRotationAdjust: set factor to 0.107
ElecMinimize: Iter:  16  F: -2054.971528015540571  |grad|_K:  9.733e-08  alpha:  2.925e-01  linmin:  8.917e-06  t[s]:  63233.54
	FillingsUpdate:  mu: +0.121825529  nElectrons: 350.000000  magneticMoment: [ Abs: 38.09016  Tot: -0.00000 ]
	SubspaceRotationAdjust: set factor to 0.118
ElecMinimize: Iter:  17  F: -2054.971528547835078  |grad|_K:  8.072e-08  alpha:  3.229e-01  linmin: -8.475e-06  t[s]:  63308.67
	FillingsUpdate:  mu: +0.121823612  nElectrons: 350.000000  magneticMoment: [ Abs: 38.09016  Tot: +0.00000 ]
	SubspaceRotationAdjust: set factor to 0.145
ElecMinimize: Iter:  18  F: -2054.971528939606287  |grad|_K:  6.885e-08  alpha:  3.451e-01  linmin: -1.173e-07  t[s]:  63382.85
	FillingsUpdate:  mu: +0.121823553  nElectrons: 350.000000  magneticMoment: [ Abs: 38.09019  Tot: +0.00000 ]
	SubspaceRotationAdjust: set factor to 0.159
ElecMinimize: Iter:  19  F: -2054.971529235346679  |grad|_K:  7.070e-08  alpha:  3.586e-01  linmin: -3.493e-06  t[s]:  63458.08
	FillingsUpdate:  mu: +0.121815261  nElectrons: 350.000000  magneticMoment: [ Abs: 38.09016  Tot: -0.00000 ]
	SubspaceRotationAdjust: set factor to 0.162
ElecMinimize: Iter:  20  F: -2054.971529504063710  |grad|_K:  7.184e-08  alpha:  3.086e-01  linmin: -1.823e-06  t[s]:  63534.66
ElecMinimize: Converged (|Delta F|<1.000000e-06 for 5 iters).
Setting wave functions to eigenvectors of Hamiltonian

# Ionic positions in lattice coordinates:
ion Ni  -0.005645961298590  -0.008277311093595   0.150835366985231 1
ion Ni  -0.246482883734744   0.246454480852938   0.048224806354295 1
ion Ni   0.000000000000000   0.000000000000000  -0.050000000000000 0
ion Ni   0.500000000000000   0.000000000000000  -0.050000000000000 0
ion Ni  -0.250000000000000   0.250000000000000  -0.150000000000000 0
ion V   0.498133550439418   0.003526266092356   0.155478269538038 1
ion V  -0.005593302469256   0.496810892218533   0.155913770573882 1
ion V   0.503246000006951   0.502333621857009   0.146178319692681 1
ion V   0.255689719182579   0.756673135120476   0.050958706870545 1
ion V   0.250000000000000   0.750000000000000  -0.150000000000000 0
ion Cr   0.252061776033076   0.250062910146229   0.049517709890142 1
ion Cr   0.000000000000000   0.500000000000000  -0.050000000000000 0
ion Cr  -0.250000000000000   0.750000000000000  -0.150000000000000 0
ion Co  -0.245448322226690   0.778800193056512   0.046925850549270 1
ion Co   0.500000000000000   0.500000000000000  -0.050000000000000 0
ion Co   0.250000000000000   0.250000000000000  -0.150000000000000 0
ion O   0.261859221119821   0.270927973294324   0.143526184762160 1
ion O   0.261451767640815   0.733303632238825   0.150094173820434 1
ion O  -0.272191894447494   0.271621237218739   0.149690213953181 1
ion O  -0.262983940959774   0.740435884338694   0.144040943541147 1
ion O   0.021213704122456   0.009134156196118   0.055764145723226 1
ion O   0.491845699023049   0.020006874907156   0.053264390467376 1
ion O   0.011196287229945   0.490142442944862   0.045626420928704 1
ion O   0.481552798569628   0.492992305863845   0.049738009513935 1
ion O   0.250000000000000   0.250000000000000  -0.050000000000000 0
ion O   0.250000000000000   0.750000000000000  -0.050000000000000 0
ion O  -0.250000000000000   0.250000000000000  -0.050000000000000 0
ion O  -0.250000000000000   0.750000000000000  -0.050000000000000 0
ion O   0.000000000000000   0.000000000000000  -0.150000000000000 0
ion O   0.500000000000000   0.000000000000000  -0.150000000000000 0
ion O   0.000000000000000   0.500000000000000  -0.150000000000000 0
ion O   0.500000000000000   0.500000000000000  -0.150000000000000 0
ion O  -0.009355593994437   0.008084326672223   0.230015550267512 1

# Forces in Lattice coordinates:
force Ni  -0.006546255182642  -0.002063677223845   0.024028351520808 1
force Ni   0.006992202892214  -0.000688279297213   0.026630288742910 1
force Ni  -0.068665467273263   0.067129974750277  -0.411531913529581 0
force Ni   0.053233206007306   0.062207754682477  -0.345060074361591 0
force Ni  -0.033750607045052  -0.069874925815037   0.255932117522518 0
force V   0.000422687670474   0.003569458084382   0.002877170157557 1
force V  -0.001423447483877   0.009769425257371  -0.012537033023126 1
force V   0.005080585155188   0.015950300098288  -0.026965695396938 1
force V  -0.000361940472608   0.007327315867350   0.008846787200393 1
force V   0.045948497348449   0.066821833750765  -0.159694439630425 0
force Cr  -0.003427845094800  -0.000984571197407   0.022731085200422 1
force Cr  -0.099829940254804  -0.084535902305690  -0.597876299108214 0
force Cr  -0.026332620242299   0.103893898698555  -1.226285266461936 0
force Co  -0.000769120163109   0.000056591281429   0.001994155373318 1
force Co   0.094637315265087  -0.054793904023269  -0.417248517422279 0
force Co   0.076094976578551  -0.087502433768823  -0.207093097247165 0
force O  -0.003775561958472   0.006998008709102  -0.002046913648856 1
force O   0.004089058760667  -0.000600503830221   0.004313004848578 1
force O  -0.002387935339129   0.012059391727577   0.003970107350033 1
force O  -0.006928551888750  -0.012485836945971  -0.017991955599667 1
force O   0.007164783999209   0.000331326204911  -0.002352472572577 1
force O  -0.002451134807111   0.004147202639614  -0.013115186006319 1
force O   0.000539866544696   0.000968410411667  -0.022433131287258 1
force O  -0.001358653356498   0.000467133980040  -0.030631344353257 1
force O  -0.205416492775880   0.082383517085545   0.518001946982450 0
force O  -0.194583563519690  -0.079995550074824   0.134232574781437 0
force O   0.197755370286563   0.087493764039898   0.106930766592840 0
force O   0.194202526751325  -0.106301402409671   1.140185190937184 0
force O  -0.102486484630060   0.076109925304306   0.293182900976035 0
force O   0.064876088987717   0.061723347539986   0.126294280626102 0
force O  -0.071055268533016  -0.075582948441276   0.672226895744823 0
force O   0.069055009517408  -0.078787245932646   0.142039027946211 0
force O  -0.000993929913386   0.000179539266393  -0.005735323341128 1

# Energy components:
   Eewald =     5787.3790506292261853
       EH =     7639.6043396669838330
     Eloc =   -15627.7340730897503818
      Enl =     -549.0451724936576738
   Epulay =       -0.0004839299775536
      Exc =     -249.4414043897160127
       KE =      942.9851238724124869
        U =        1.2820924090315287
-------------------------------------
     Etot =    -2054.9705273254480744
       TS =        0.0010021786156016
-------------------------------------
        F =    -2054.9715295040637102

IonicMinimize: Iter:  13  F: -2054.971529504063710  |grad|_K:  4.635e-04  alpha:  4.277e-01  linmin:  1.573e-02  t[s]:  63561.18

#--- Lowdin population analysis ---
# oxidation-state Ni +3.482 +3.304 +3.445 +3.361 +3.616
# magnetic-moments Ni +0.037 +0.482 -0.891 +0.841 -0.871
# oxidation-state V +1.129 +1.150 +1.281 +0.951 +1.045
# magnetic-moments V -2.905 +2.932 -2.030 +2.833 -2.925
# oxidation-state Cr +2.932 +2.898 +2.945
# magnetic-moments Cr +3.060 -1.223 +3.836
# oxidation-state Co +1.217 +1.198 +1.268
# magnetic-moments Co -2.687 +2.634 -2.753
# oxidation-state O -0.811 -0.881 -0.836 -0.906 -0.761 -0.817 -0.825 -0.850 -0.825 -0.816 -0.706 -0.850 -0.836 -0.865 -0.860 -0.931 -0.473
# magnetic-moments O -0.042 -0.025 -0.017 -0.004 -0.149 +0.054 +0.030 -0.053 -0.066 +0.032 -0.158 -0.026 -0.319 -0.047 -0.085 -0.091 +0.599


-------- Electronic minimization -----------
	FillingsUpdate:  mu: +0.121393467  nElectrons: 350.000000  magneticMoment: [ Abs: 38.09036  Tot: -0.00000 ]
ElecMinimize: Iter:   0  F: -2054.970298419975279  |grad|_K:  6.156e-06  alpha:  1.000e+00
	FillingsUpdate:  mu: +0.120555687  nElectrons: 350.000000  magneticMoment: [ Abs: 38.08833  Tot: -0.00000 ]
	SubspaceRotationAdjust: set factor to 0.0948
ElecMinimize: Iter:   1  F: -2054.971425189351976  |grad|_K:  2.003e-06  alpha:  1.719e-01  linmin:  2.913e-03  t[s]:  63697.59
	FillingsUpdate:  mu: +0.121675349  nElectrons: 350.000000  magneticMoment: [ Abs: 38.08921  Tot: -0.00000 ]
	SubspaceRotationAdjust: set factor to 0.0476
ElecMinimize: Iter:   2  F: -2054.971505609956694  |grad|_K:  7.091e-07  alpha:  1.160e-01  linmin:  1.436e-05  t[s]:  63775.18
	FillingsUpdate:  mu: +0.121742208  nElectrons: 350.000000  magneticMoment: [ Abs: 38.08918  Tot: +0.00000 ]
	SubspaceRotationAdjust: set factor to 0.0629
ElecMinimize: Iter:   3  F: -2054.971528916360512  |grad|_K:  4.458e-07  alpha:  2.662e-01  linmin: -7.804e-06  t[s]:  63852.57
	FillingsUpdate:  mu: +0.121775096  nElectrons: 350.000000  magneticMoment: [ Abs: 38.08906  Tot: -0.00000 ]
	SubspaceRotationAdjust: set factor to 0.0666
ElecMinimize: Iter:   4  F: -2054.971537214709315  |grad|_K:  2.661e-07  alpha:  2.397e-01  linmin:  1.126e-06  t[s]:  63931.64
	FillingsUpdate:  mu: +0.121768428  nElectrons: 350.000000  magneticMoment: [ Abs: 38.08900  Tot: +0.00000 ]
	SubspaceRotationAdjust: set factor to 0.0759
ElecMinimize: Iter:   5  F: -2054.971541319690914  |grad|_K:  2.022e-07  alpha:  3.331e-01  linmin: -3.221e-07  t[s]:  64009.56
	FillingsUpdate:  mu: +0.121777992  nElectrons: 350.000000  magneticMoment: [ Abs: 38.08904  Tot: +0.00000 ]
	SubspaceRotationAdjust: set factor to 0.0866
ElecMinimize: Iter:   6  F: -2054.971543818771352  |grad|_K:  1.692e-07  alpha:  3.509e-01  linmin:  3.476e-06  t[s]:  64087.51
	FillingsUpdate:  mu: +0.121786250  nElectrons: 350.000000  magneticMoment: [ Abs: 38.08902  Tot: -0.00000 ]
	SubspaceRotationAdjust: set factor to 0.105
ElecMinimize: Iter:   7  F: -2054.971545922151108  |grad|_K:  1.681e-07  alpha:  4.219e-01  linmin: -2.634e-06  t[s]:  64165.74
	FillingsUpdate:  mu: +0.121785194  nElectrons: 350.000000  magneticMoment: [ Abs: 38.08895  Tot: +0.00000 ]
	SubspaceRotationAdjust: set factor to 0.122
ElecMinimize: Iter:   8  F: -2054.971547814741371  |grad|_K:  1.735e-07  alpha:  3.847e-01  linmin: -5.851e-07  t[s]:  64243.91
	FillingsUpdate:  mu: +0.121792683  nElectrons: 350.000000  magneticMoment: [ Abs: 38.08893  Tot: -0.00000 ]
	SubspaceRotationAdjust: set factor to 0.135
ElecMinimize: Iter:   9  F: -2054.971550096205192  |grad|_K:  1.843e-07  alpha:  4.350e-01  linmin: -4.620e-08  t[s]:  64321.51
	FillingsUpdate:  mu: +0.121793952  nElectrons: 350.000000  magneticMoment: [ Abs: 38.08878  Tot: +0.00000 ]
	SubspaceRotationAdjust: set factor to 0.144
ElecMinimize: Iter:  10  F: -2054.971552440666528  |grad|_K:  1.845e-07  alpha:  3.966e-01  linmin: -5.876e-07  t[s]:  64398.95
	FillingsUpdate:  mu: +0.121808595  nElectrons: 350.000000  magneticMoment: [ Abs: 38.08867  Tot: +0.00000 ]
	SubspaceRotationAdjust: set factor to 0.151
ElecMinimize: Iter:  11  F: -2054.971554721838856  |grad|_K:  1.699e-07  alpha:  3.848e-01  linmin:  3.708e-07  t[s]:  64476.25
	FillingsUpdate:  mu: +0.121808052  nElectrons: 350.000000  magneticMoment: [ Abs: 38.08857  Tot: -0.00000 ]
	SubspaceRotationAdjust: set factor to 0.157
ElecMinimize: Iter:  12  F: -2054.971556426881307  |grad|_K:  1.455e-07  alpha:  3.391e-01  linmin:  1.083e-06  t[s]:  64552.98
	FillingsUpdate:  mu: +0.121807078  nElectrons: 350.000000  magneticMoment: [ Abs: 38.08853  Tot: +0.00000 ]
	SubspaceRotationAdjust: set factor to 0.165
ElecMinimize: Iter:  13  F: -2054.971557647531881  |grad|_K:  1.168e-07  alpha:  3.312e-01  linmin:  1.023e-06  t[s]:  64630.92
	FillingsUpdate:  mu: +0.121812128  nElectrons: 350.000000  magneticMoment: [ Abs: 38.08856  Tot: +0.00000 ]
	SubspaceRotationAdjust: set factor to 0.172
ElecMinimize: Iter:  14  F: -2054.971558465866565  |grad|_K:  9.322e-08  alpha:  3.449e-01  linmin: -5.210e-06  t[s]:  64708.39
	FillingsUpdate:  mu: +0.121805302  nElectrons: 350.000000  magneticMoment: [ Abs: 38.08856  Tot: +0.00000 ]
	SubspaceRotationAdjust: set factor to 0.174
ElecMinimize: Iter:  15  F: -2054.971558902829202  |grad|_K:  8.153e-08  alpha:  2.885e-01  linmin: -2.255e-06  t[s]:  64786.07
	FillingsUpdate:  mu: +0.121808116  nElectrons: 350.000000  magneticMoment: [ Abs: 38.08862  Tot: +0.00000 ]
	SubspaceRotationAdjust: set factor to 0.159
ElecMinimize: Iter:  16  F: -2054.971559203266224  |grad|_K:  7.403e-08  alpha:  2.598e-01  linmin:  1.058e-05  t[s]:  64864.03
	FillingsUpdate:  mu: +0.121800556  nElectrons: 350.000000  magneticMoment: [ Abs: 38.08864  Tot: +0.00000 ]
	SubspaceRotationAdjust: set factor to 0.156
ElecMinimize: Iter:  17  F: -2054.971559453860209  |grad|_K:  6.596e-08  alpha:  2.627e-01  linmin:  3.161e-05  t[s]:  64940.89
	FillingsUpdate:  mu: +0.121803462  nElectrons: 350.000000  magneticMoment: [ Abs: 38.08871  Tot: -0.00000 ]
	SubspaceRotationAdjust: set factor to 0.182
ElecMinimize: Iter:  18  F: -2054.971559718031585  |grad|_K:  6.291e-08  alpha:  3.488e-01  linmin: -6.909e-05  t[s]:  65017.93
ElecMinimize: Converged (|Delta F|<1.000000e-06 for 5 iters).
Setting wave functions to eigenvectors of Hamiltonian

# Ionic positions in lattice coordinates:
ion Ni  -0.005901519458995  -0.008494525174343   0.150881609829667 1
ion Ni  -0.246301040553356   0.246604451202410   0.048245339223561 1
ion Ni   0.000000000000000   0.000000000000000  -0.050000000000000 0
ion Ni   0.500000000000000   0.000000000000000  -0.050000000000000 0
ion Ni  -0.250000000000000   0.250000000000000  -0.150000000000000 0
ion V   0.498032040717722   0.003700434740768   0.155530467016118 1
ion V  -0.005635472459380   0.497106182769347   0.155883631386519 1
ion V   0.503378596741956   0.502913283061964   0.146065517482387 1
ion V   0.255708683885461   0.756834721369275   0.050973952696169 1
ion V   0.250000000000000   0.750000000000000  -0.150000000000000 0
ion Cr   0.251995162116102   0.250269829850242   0.049562881011732 1
ion Cr   0.000000000000000   0.500000000000000  -0.050000000000000 0
ion Cr  -0.250000000000000   0.750000000000000  -0.150000000000000 0
ion Co  -0.245401021234752   0.779484907929962   0.046845711284862 1
ion Co   0.500000000000000   0.500000000000000  -0.050000000000000 0
ion Co   0.250000000000000   0.250000000000000  -0.150000000000000 0
ion O   0.261748717330721   0.271325366165134   0.143561958132178 1
ion O   0.261487582266609   0.733347000523257   0.150129051464443 1
ion O  -0.272407039818480   0.272098571048904   0.149693625552468 1
ion O  -0.263047917771859   0.740348086246200   0.143942872885490 1
ion O   0.021492430944941   0.009053385216922   0.055868487270255 1
ion O   0.491859891298215   0.020216429205349   0.053296409960828 1
ion O   0.011150217757949   0.490256750686951   0.045560534861903 1
ion O   0.481402514387654   0.493155915818917   0.049613330221124 1
ion O   0.250000000000000   0.250000000000000  -0.050000000000000 0
ion O   0.250000000000000   0.750000000000000  -0.050000000000000 0
ion O  -0.250000000000000   0.250000000000000  -0.050000000000000 0
ion O  -0.250000000000000   0.750000000000000  -0.050000000000000 0
ion O   0.000000000000000   0.000000000000000  -0.150000000000000 0
ion O   0.500000000000000   0.000000000000000  -0.150000000000000 0
ion O   0.000000000000000   0.500000000000000  -0.150000000000000 0
ion O   0.500000000000000   0.500000000000000  -0.150000000000000 0
ion O  -0.009676195440367   0.008150878221470   0.230019329141373 1

# Forces in Lattice coordinates:
force Ni  -0.008615527074211   0.001986548029859   0.046884878030664 1
force Ni   0.000943802602757   0.005835275151080   0.013746543435472 1
force Ni  -0.069468681703964   0.068388958879078  -0.408160442406429 0
force Ni   0.054025064464655   0.064968440440954  -0.335369775191223 0
force Ni  -0.033658776904415  -0.069733299598566   0.261695187971896 0
force V   0.000782329749453   0.005669459041597   0.005503864803927 1
force V  -0.000732121886092   0.007068457701802  -0.005688617642336 1
force V   0.001281706325671   0.010527612501654  -0.008914510567211 1
force V   0.000124383690429   0.006164317946923   0.010259295947547 1
force V   0.045847786898318   0.066756168910574  -0.161873048835073 0
force Cr  -0.001305366876544   0.001986518611802   0.020563616470542 1
force Cr  -0.099333020461093  -0.084530148676573  -0.594620357444307 0
force Cr  -0.026007537969948   0.103604059327084  -1.229642645103938 0
force Co  -0.000653088452350  -0.002000163125310   0.022045515586673 1
force Co   0.095165630380315  -0.055733356500283  -0.405642666045385 0
force Co   0.075669470446210  -0.086967608239607  -0.210840222594230 0
force O  -0.000960651800099   0.002921892707611  -0.005087821733010 1
force O   0.000004764838612   0.007115939965652  -0.001991621069653 1
force O   0.002741806835966   0.004953260273640   0.000766510474012 1
force O  -0.003402605595377  -0.004112639497304  -0.029991029273666 1
force O   0.004450111406451   0.001095433310408  -0.004546640361828 1
force O  -0.002516619405589   0.002602552461566   0.004236130244317 1
force O  -0.000232046520675  -0.000215831345225  -0.009130091895297 1
force O   0.000412171850072  -0.001102124582715   0.000264240432488 1
force O  -0.210121223291547   0.086450272218608   0.515697426115953 0
force O  -0.200259076649344  -0.085545570845077   0.133091503960389 0
force O   0.203269956317640   0.092242362381501   0.121499138274091 0
force O   0.198912246598643  -0.112734085910124   1.139631150483366 0
force O  -0.102581955581285   0.076077338424425   0.286239681669619 0
force O   0.064935311870070   0.061566736397584   0.125485330654363 0
force O  -0.071207293117094  -0.075534091470608   0.670098960237331 0
force O   0.069169825200160  -0.078607590221783   0.140435476925910 0
force O  -0.001252922421931  -0.001102476721743   0.006416519616387 1

# Energy components:
   Eewald =     5787.5729978874996959
       EH =     7639.7858411441393400
     Eloc =   -15628.1123669580138085
      Enl =     -549.0449500768374946
   Epulay =       -0.0004839299775536
      Exc =     -249.4424190492424316
       KE =      942.9886042776985278
        U =        1.2822242067255751
-------------------------------------
     Etot =    -2054.9705524980072369
       TS =        0.0010072200241454
-------------------------------------
        F =    -2054.9715597180315854

IonicMinimize: Iter:  14  F: -2054.971559718031585  |grad|_K:  3.622e-04  alpha:  1.000e+00  linmin: -1.703e-02  t[s]:  65043.98
IonicMinimize: Converged (|Delta F|<1.000000e-04 for 3 iters).

#--- Lowdin population analysis ---
# oxidation-state Ni +3.484 +3.304 +3.444 +3.357 +3.615
# magnetic-moments Ni +0.038 +0.483 -0.889 +0.838 -0.871
# oxidation-state V +1.130 +1.150 +1.281 +0.952 +1.045
# magnetic-moments V -2.906 +2.932 -2.028 +2.831 -2.926
# oxidation-state Cr +2.932 +2.897 +2.945
# magnetic-moments Cr +3.061 -1.223 +3.836
# oxidation-state Co +1.216 +1.199 +1.267
# magnetic-moments Co -2.686 +2.634 -2.753
# oxidation-state O -0.812 -0.881 -0.836 -0.905 -0.761 -0.817 -0.824 -0.849 -0.826 -0.816 -0.707 -0.851 -0.836 -0.865 -0.860 -0.931 -0.467
# magnetic-moments O -0.042 -0.025 -0.017 -0.004 -0.149 +0.054 +0.030 -0.052 -0.066 +0.032 -0.159 -0.027 -0.319 -0.047 -0.085 -0.091 +0.603


Dumping 'run.ionpos' ... done
Dumping 'run.lattice' ... done
Dumping 'run.Ecomponents' ... done
End date and time: Mon May 19 05:39:30 2025  (Duration: 0-18:04:10.91)
Done!
