/var/spool/slurmd/job44098/slurm_script: line 9: module: command not found
/var/spool/slurmd/job44098/slurm_script: line 10: module: command not found

*************** JDFTx 1.7.0  ***************

Start date and time: Tue May  6 14:55:23 2025
Executable /data2/jt577/jdftx_eat_withLibXC/build/jdftx with command-line: -i /data2/jt577/May_2025/Relax_Mag/rel8+1_6/O/runs/calc_/run.in
Running on hosts (process indices):  node3224 (0-8)
Divided in process groups (process indices):  0 (0)  1 (1)  2 (2)  3 (3)  4 (4)  5 (5)  6 (6)  7 (7)  8 (8)
Resource initialization completed at t[s]:      0.00
Run totals: 9 processes, 36 threads, 0 GPUs


Input parsed successfully to the following command list (including defaults):

add-mix 
add-U 	Ni d 0.22 \
	V d 0.12 \
	Cr d 0.16 \
	Co d 0.2
basis kpoint-dependent
coords-type Lattice
core-overlap-check vector
coulomb-interaction Periodic
davidson-band-ratio 1.1
dump End IonicPositions Lattice Ecomponents
dump-name run.$VAR
elec-cutoff 30
elec-eigen-algo Davidson
elec-ex-corr gga-x-rpbe gga-c-pbe
elec-smearing Fermi 0.001
electronic-minimize  \
	dirUpdateScheme      FletcherReeves \
	linminMethod         DirUpdateRecommended \
	nIterations          1000 \
	history              15 \
	knormThreshold       0 \
	energyDiffThreshold  1e-06 \
	nEnergyDiff          5 \
	alphaTstart          1 \
	alphaTmin            1e-10 \
	updateTestStepSize   yes \
	alphaTreduceFactor   0.1 \
	alphaTincreaseFactor 3 \
	nAlphaAdjustMax      3 \
	wolfeEnergy          0.0001 \
	wolfeGradient        0.9 \
	fdTest               no
exchange-regularization WignerSeitzTruncated
fluid None
fluid-ex-corr (null) lda-PZ
fluid-gummel-loop 10 1.000000e-05
fluid-minimize  \
	dirUpdateScheme      PolakRibiere \
	linminMethod         DirUpdateRecommended \
	nIterations          100 \
	history              15 \
	knormThreshold       0 \
	energyDiffThreshold  0 \
	nEnergyDiff          2 \
	alphaTstart          1 \
	alphaTmin            1e-10 \
	updateTestStepSize   yes \
	alphaTreduceFactor   0.1 \
	alphaTincreaseFactor 3 \
	nAlphaAdjustMax      3 \
	wolfeEnergy          0.0001 \
	wolfeGradient        0.9 \
	fdTest               no
fluid-solvent H2O 55.338 ScalarEOS \
	epsBulk 78.4 \
	pMol 0.92466 \
	epsInf 1.77 \
	Pvap 1.06736e-10 \
	sigmaBulk 4.62e-05 \
	Rvdw 2.61727 \
	Res 1.42 \
	tauNuc 343133 \
	poleEl 15 7 1
forces-output-coords Positions
initial-magnetic-moments  \
	Ni 1 -1 -1 1 1 \
	V -1 1 -1 1 -1 \
	Cr 1 -1 1 \
	Co -1 1 -1
initial-state run.$VAR
ion Ni  0.000000000000000   0.000000000000000   0.150000000000000 1
ion Ni -0.250000000000000   0.250000000000000   0.050000000000000 1
ion Ni  0.000000000000000   0.000000000000000  -0.050000000000000 0
ion Ni  0.500000000000000   0.000000000000000  -0.050000000000000 0
ion Ni -0.250000000000000   0.250000000000000  -0.150000000000000 0
ion V  0.500000000000000   0.000000000000000   0.150000000000000 1
ion V  0.000000000000000   0.500000000000000   0.150000000000000 1
ion V  0.500000000000000   0.500000000000000   0.150000000000000 1
ion V  0.250000000000000   0.750000000000000   0.050000000000000 1
ion V  0.250000000000000   0.750000000000000  -0.150000000000000 0
ion Cr  0.250000000000000   0.250000000000000   0.050000000000000 1
ion Cr  0.000000000000000   0.500000000000000  -0.050000000000000 0
ion Cr -0.250000000000000   0.750000000000000  -0.150000000000000 0
ion Co -0.250000000000000   0.750000000000000   0.050000000000000 1
ion Co  0.500000000000000   0.500000000000000  -0.050000000000000 0
ion Co  0.250000000000000   0.250000000000000  -0.150000000000000 0
ion O  0.250000000000000   0.250000000000000   0.150000000000000 1
ion O  0.250000000000000   0.750000000000000   0.150000000000000 1
ion O -0.250000000000000   0.250000000000000   0.150000000000000 1
ion O -0.250000000000000   0.750000000000000   0.150000000000000 1
ion O  0.000000000000000   0.000000000000000   0.050000000000000 1
ion O  0.500000000000000   0.000000000000000   0.050000000000000 1
ion O  0.000000000000000   0.500000000000000   0.050000000000000 1
ion O  0.500000000000000   0.500000000000000   0.050000000000000 1
ion O  0.250000000000000   0.250000000000000  -0.050000000000000 0
ion O  0.250000000000000   0.750000000000000  -0.050000000000000 0
ion O -0.250000000000000   0.250000000000000  -0.050000000000000 0
ion O -0.250000000000000   0.750000000000000  -0.050000000000000 0
ion O  0.000000000000000   0.000000000000000  -0.150000000000000 0
ion O  0.500000000000000   0.000000000000000  -0.150000000000000 0
ion O  0.000000000000000   0.500000000000000  -0.150000000000000 0
ion O  0.500000000000000   0.500000000000000  -0.150000000000000 0
ion O -0.000095572322686   0.000198307128402   0.224876729873325 1
ion-species SG15/$ID_ONCV_PBE.upf
ion-width 0
ionic-minimize  \
	dirUpdateScheme      L-BFGS \
	linminMethod         DirUpdateRecommended \
	nIterations          1000 \
	history              15 \
	knormThreshold       0.0001 \
	energyDiffThreshold  0.0001 \
	nEnergyDiff          3 \
	alphaTstart          1 \
	alphaTmin            1e-10 \
	updateTestStepSize   yes \
	alphaTreduceFactor   0.1 \
	alphaTincreaseFactor 3 \
	nAlphaAdjustMax      3 \
	wolfeEnergy          0.0001 \
	wolfeGradient        0.9 \
	fdTest               no
kpoint   0.500000000000   0.500000000000   0.500000000000  1.00000000000000
kpoint-folding 3 3 1 
latt-move-scale 1 1 1
latt-scale 1 1 1 
lattice  \
	   8.140000000000001    8.140000000000001    0.000000000000000  \
	   8.140000000000001   -8.140000000000001    0.000000000000000  \
	   0.000000000000000    0.000000000000000   40.700000000000003 
lattice-minimize  \
	dirUpdateScheme      L-BFGS \
	linminMethod         DirUpdateRecommended \
	nIterations          0 \
	history              15 \
	knormThreshold       0 \
	energyDiffThreshold  1e-06 \
	nEnergyDiff          2 \
	alphaTstart          1 \
	alphaTmin            1e-10 \
	updateTestStepSize   yes \
	alphaTreduceFactor   0.1 \
	alphaTincreaseFactor 3 \
	nAlphaAdjustMax      3 \
	wolfeEnergy          0.0001 \
	wolfeGradient        0.9 \
	fdTest               no
lcao-params -1 1e-06 0.001
pcm-variant GLSSA13
spintype z-spin
subspace-rotation-factor 1 yes
symmetries none
symmetry-threshold 0.0001


Applied RMS atom displacement 0 bohrs to make symmetries exact.

---------- Initializing the Grid ----------
R = 
[         8.14         8.14            0  ]
[         8.14        -8.14            0  ]
[            0            0         40.7  ]
unit cell volume = 5393.53
G =
[   0.385945   0.385945         -0  ]
[   0.385945  -0.385945         -0  ]
[         -0         -0   0.154378  ]
Minimum fftbox size, Smin = [  60  60  204  ]
Chosen fftbox size, S = [  60  60  210  ]

---------- Exchange Correlation functional ----------
Initialized LibXC exchange functional 'Hammer, Hansen, and Norskov'
Initialized LibXC correlation functional 'Perdew, Burke & Ernzerhof'

---------- Setting up pseudopotentials ----------
Width of ionic core gaussian charges (only for fluid interactions / plotting) set to 0

Reading pseudopotential file '/data2/jt577/jdftx_eat_withLibXC/build/pseudopotentials/SG15/Ni_ONCV_PBE.upf':
  'Ni' pseudopotential, 'PBE' functional
  Generated using ONCVPSP code by D. R. Hamann
  Author: Martin Schlipf and Francois Gygi  Date: 150915.
  18 valence electrons, 4 orbitals, 6 projectors, 1292 radial grid points, with lMax = 2
  Transforming local potential to a uniform radial grid of dG=0.02 with 1419 points.
  Transforming nonlocal projectors to a uniform radial grid of dG=0.02 with 528 points.
    3S    l: 0   occupation:  2.0   eigenvalue: -4.081355
    3P    l: 1   occupation:  6.0   eigenvalue: -2.623460
    4S    l: 0   occupation:  2.0   eigenvalue: -0.207378
    3D    l: 2   occupation:  8.0   eigenvalue: -0.326118
  Transforming atomic orbitals to a uniform radial grid of dG=0.02 with 528 points.
  WARNING: large normalization error in atomic orbital 1s (integral: 0.000006).
  Core radius for overlap checks: 1.99 bohrs.
  Reading pulay file /data2/jt577/jdftx_eat_withLibXC/build/pseudopotentials/SG15/Ni_ONCV_PBE.pulay ... using dE_dnG = -7.250568e-04 computed for Ecut = 30.

Reading pseudopotential file '/data2/jt577/jdftx_eat_withLibXC/build/pseudopotentials/SG15/V_ONCV_PBE.upf':
  'V' pseudopotential, 'PBE' functional
  Generated using ONCVPSP code by D. R. Hamann
  Author: Martin Schlipf and Francois Gygi  Date: 150915.
  13 valence electrons, 4 orbitals, 6 projectors, 1536 radial grid points, with lMax = 2
  Transforming local potential to a uniform radial grid of dG=0.02 with 1419 points.
  Transforming nonlocal projectors to a uniform radial grid of dG=0.02 with 528 points.
    3S    l: 0   occupation:  2.0   eigenvalue: -2.581105
    3P    l: 1   occupation:  6.0   eigenvalue: -1.618486
    4S    l: 0   occupation:  2.0   eigenvalue: -0.172804
    3D    l: 2   occupation:  3.0   eigenvalue: -0.189795
  Transforming atomic orbitals to a uniform radial grid of dG=0.02 with 528 points.
  Core radius for overlap checks: 1.80 bohrs.
  Reading pulay file /data2/jt577/jdftx_eat_withLibXC/build/pseudopotentials/SG15/V_ONCV_PBE.pulay ... using dE_dnG = -1.698632e-04 computed for Ecut = 30.

Reading pseudopotential file '/data2/jt577/jdftx_eat_withLibXC/build/pseudopotentials/SG15/Cr_ONCV_PBE.upf':
  'Cr' pseudopotential, 'PBE' functional
  Generated using ONCVPSP code by D. R. Hamann
  Author: Martin Schlipf and Francois Gygi  Date: 150915.
  14 valence electrons, 4 orbitals, 6 projectors, 1160 radial grid points, with lMax = 2
  Transforming local potential to a uniform radial grid of dG=0.02 with 1419 points.
  Transforming nonlocal projectors to a uniform radial grid of dG=0.02 with 528 points.
    3S    l: 0   occupation:  2.0   eigenvalue: -2.865131
    3P    l: 1   occupation:  6.0   eigenvalue: -1.810600
    4S    l: 0   occupation:  2.0   eigenvalue: -0.180525
    3D    l: 2   occupation:  4.0   eigenvalue: -0.220312
  Transforming atomic orbitals to a uniform radial grid of dG=0.02 with 528 points.
  WARNING: large normalization error in atomic orbital 1s (integral: 0.000001).
  Core radius for overlap checks: 2.10 bohrs.
  Reading pulay file /data2/jt577/jdftx_eat_withLibXC/build/pseudopotentials/SG15/Cr_ONCV_PBE.pulay ... using dE_dnG = -9.817895e-06 computed for Ecut = 30.

Reading pseudopotential file '/data2/jt577/jdftx_eat_withLibXC/build/pseudopotentials/SG15/Co_ONCV_PBE.upf':
  'Co' pseudopotential, 'PBE' functional
  Generated using ONCVPSP code by D. R. Hamann
  Author: Martin Schlipf and Francois Gygi  Date: 150915.
  17 valence electrons, 4 orbitals, 6 projectors, 1388 radial grid points, with lMax = 2
  Transforming local potential to a uniform radial grid of dG=0.02 with 1419 points.
  Transforming nonlocal projectors to a uniform radial grid of dG=0.02 with 528 points.
    3S    l: 0   occupation:  2.0   eigenvalue: -3.763303
    3P    l: 1   occupation:  6.0   eigenvalue: -2.412101
    4S    l: 0   occupation:  2.0   eigenvalue: -0.201022
    3D    l: 2   occupation:  7.0   eigenvalue: -0.301498
  Transforming atomic orbitals to a uniform radial grid of dG=0.02 with 528 points.
  Core radius for overlap checks: 1.94 bohrs.
  Reading pulay file /data2/jt577/jdftx_eat_withLibXC/build/pseudopotentials/SG15/Co_ONCV_PBE.pulay ... using dE_dnG = -9.787391e-05 computed for Ecut = 30.

Reading pseudopotential file '/data2/jt577/jdftx_eat_withLibXC/build/pseudopotentials/SG15/O_ONCV_PBE.upf':
  'O' pseudopotential, 'PBE' functional
  Generated using ONCVPSP code by D. R. Hamann
  Author: Martin Schlipf and Francois Gygi  Date: 150915.
  6 valence electrons, 2 orbitals, 4 projectors, 936 radial grid points, with lMax = 1
  Transforming local potential to a uniform radial grid of dG=0.02 with 1419 points.
  Transforming nonlocal projectors to a uniform radial grid of dG=0.02 with 528 points.
    2S    l: 0   occupation:  2.0   eigenvalue: -0.880572
    2P    l: 1   occupation:  4.0   eigenvalue: -0.331869
  Transforming atomic orbitals to a uniform radial grid of dG=0.02 with 528 points.
  Core radius for overlap checks: 1.29 bohrs.
  Reading pulay file /data2/jt577/jdftx_eat_withLibXC/build/pseudopotentials/SG15/O_ONCV_PBE.pulay ... using dE_dnG = -8.209514e-03 computed for Ecut = 30.

Initialized 5 species with 33 total atoms.

Folded 1 k-points by 3x3x1 to 9 k-points.

---------- Setting up k-points, bands, fillings ----------
No reducable k-points. 
Computing the number of bands and number of electrons
Calculating initial fillings.
nElectrons: 350.000000   nBands: 228   nStates: 18

----- Setting up reduced wavefunction bases (one per k-point) -----
average nbasis = 42312.000 , ideal nbasis = 42330.081

---------- Setting up ewald sum ----------
Optimum gaussian width for ewald sums = 3.906449 bohr.
Real space sum over 605 unit cells with max indices [  5  5  2  ]
Reciprocal space sum over 5915 terms with max indices [  6  6  17  ]

---------- Allocating electronic variables ----------
Initializing wave functions:  linear combination of atomic orbitals
Ni (M=1) pseudo-atom majority spin occupations:   s ( 1 0.5 )  p ( 3 )  d ( 5 )
Ni (M=1) pseudo-atom minority spin occupations:   s ( 1 0 )  p ( 3 )  d ( 4.5 )
V (M=1) pseudo-atom majority spin occupations:   s ( 1 0 )  p ( 3 )  d ( 3 )
V (M=1) pseudo-atom minority spin occupations:   s ( 1 0 )  p ( 3 )  d ( 2 )
Cr (M=1) pseudo-atom majority spin occupations:   s ( 1 0 )  p ( 3 )  d ( 3.5 )
Cr (M=1) pseudo-atom minority spin occupations:   s ( 1 0 )  p ( 3 )  d ( 2.5 )
Co (M=1) pseudo-atom majority spin occupations:   s ( 1 0 )  p ( 3 )  d ( 5 )
Co (M=1) pseudo-atom minority spin occupations:   s ( 1 0 )  p ( 3 )  d ( 4 )
O pseudo-atom occupations:   s ( 2 )  p ( 4 )
	FillingsUpdate:  mu: +0.693458118  nElectrons: 350.000000  magneticMoment: [ Abs: 0.27962  Tot: -0.00000 ]
LCAOMinimize: Iter:   0  F: -1896.5520885202263344  |grad|_K:  6.816e-03  alpha:  1.000e+00
	FillingsUpdate:  mu: +0.653380424  nElectrons: 350.000000  magneticMoment: [ Abs: 0.31684  Tot: -0.00000 ]
LCAOMinimize: Iter:   1  F: -1898.7090789171636516  |grad|_K:  7.641e-03  alpha:  4.271e-02  linmin: -8.278e-02  cgtest:  8.273e-01  t[s]:     97.28
LCAOMinimize: 	Wrong curvature in test step, increasing alphaT to 1.281170e-01.
	FillingsUpdate:  mu: +0.649489386  nElectrons: 350.000000  magneticMoment: [ Abs: 1.96101  Tot: +0.00000 ]
LCAOMinimize: Iter:   2  F: -1911.8077735615547681  |grad|_K:  1.308e-02  alpha: -6.861e-03  linmin: -7.403e-02  cgtest:  4.313e-01  t[s]:    132.47
LCAOMinimize: 	Step increased F by 5.072187e+02, reducing alpha to 3.218265e-02.
	FillingsUpdate:  mu: +1.359507858  nElectrons: 350.000000  magneticMoment: [ Abs: 2.29402  Tot: +0.00000 ]
LCAOMinimize: Iter:   3  F: -1933.0034356879821189  |grad|_K:  3.075e-02  alpha:  3.218e-02  linmin:  3.492e-02  cgtest: -3.003e-01  t[s]:    193.18
LCAOMinimize: 	Bad step direction: g.d > 0.
LCAOMinimize: 	Undoing step.
LCAOMinimize: 	Step failed: resetting search direction.
	FillingsUpdate:  mu: +1.359507858  nElectrons: 350.000000  magneticMoment: [ Abs: 2.29402  Tot: +0.00000 ]
LCAOMinimize: Iter:   4  F: -1933.0034356879821189  |grad|_K:  3.075e-02  alpha:  0.000e+00
	FillingsUpdate:  mu: +0.151768724  nElectrons: 350.000000  magneticMoment: [ Abs: 1.75209  Tot: +0.00000 ]
LCAOMinimize: Iter:   5  F: -1949.9171793147379503  |grad|_K:  1.344e-02  alpha:  4.390e-02  linmin:  6.269e-02  cgtest: -1.045e+00  t[s]:    250.80
LCAOMinimize: 	Step increased F by 6.373435e+01, reducing alpha to 9.735613e-03.
	FillingsUpdate:  mu: +0.129644606  nElectrons: 350.000000  magneticMoment: [ Abs: 2.05148  Tot: -0.00000 ]
LCAOMinimize: Iter:   6  F: -1950.6451967514906300  |grad|_K:  1.532e-02  alpha:  9.736e-03  linmin: -2.941e-02  cgtest:  9.068e-01  t[s]:    308.52
LCAOMinimize: 	Wrong curvature in test step, increasing alphaT to 2.920684e-02.
	FillingsUpdate:  mu: -0.033865377  nElectrons: 350.000000  magneticMoment: [ Abs: 2.86268  Tot: +0.00000 ]
LCAOMinimize: Iter:   7  F: -1953.8254680619195369  |grad|_K:  1.571e-02  alpha: -1.446e-02  linmin: -9.914e-02  cgtest:  7.410e-01  t[s]:    339.98
LCAOMinimize: 	Step increased F by 3.651031e+02, reducing alpha to 1.796574e-02.
	FillingsUpdate:  mu: +0.110350357  nElectrons: 350.000000  magneticMoment: [ Abs: 4.44424  Tot: +0.00000 ]
LCAOMinimize: Iter:   8  F: -1957.1054757854392392  |grad|_K:  1.506e-02  alpha:  1.797e-02  linmin:  1.325e-02  cgtest: -2.861e-02  t[s]:    397.92
	FillingsUpdate:  mu: +0.200445445  nElectrons: 350.000000  magneticMoment: [ Abs: 5.03874  Tot: +0.00000 ]
LCAOMinimize: Iter:   9  F: -1958.2491372106528615  |grad|_K:  1.902e-02  alpha:  9.283e-03  linmin: -9.441e-03  cgtest:  8.460e-01  t[s]:    431.90
LCAOMinimize: 	Wrong curvature in test step, increasing alphaT to 2.784967e-02.
	FillingsUpdate:  mu: +0.197312978  nElectrons: 350.000000  magneticMoment: [ Abs: 5.38291  Tot: +0.00000 ]
LCAOMinimize: Iter:  10  F: -1961.6733722689407386  |grad|_K:  9.975e-03  alpha: -1.276e+00  linmin: -1.170e-01  cgtest:  8.029e-01  t[s]:    463.19
LCAOMinimize: Encountered beta<0, resetting CG.
LCAOMinimize: 	Step increased F by 3.619502e+01, reducing alpha to 1.912422e-02.
	FillingsUpdate:  mu: +0.158703445  nElectrons: 350.000000  magneticMoment: [ Abs: 5.28700  Tot: -0.00000 ]
LCAOMinimize: Iter:  11  F: -1962.8738764966701638  |grad|_K:  9.109e-03  alpha:  1.912e-02  linmin: -5.959e-02  cgtest:  2.794e-01  t[s]:    520.83
LCAOMinimize: 	Step increased F by 3.563065e-01, reducing alpha to 3.366153e-03.
	FillingsUpdate:  mu: +0.142397803  nElectrons: 350.000000  magneticMoment: [ Abs: 5.43286  Tot: +0.00000 ]
LCAOMinimize: Iter:  12  F: -1963.2102240818617247  |grad|_K:  8.120e-03  alpha:  3.366e-03  linmin: -1.287e-01  cgtest:  9.480e-01  t[s]:    578.58
LCAOMinimize: Encountered beta<0, resetting CG.
LCAOMinimize: 	Predicted alpha/alphaT>3.000000, increasing alphaT to 1.009846e-02.
LCAOMinimize: 	Predicted alpha/alphaT>3.000000, increasing alphaT to 3.029538e-02.
	FillingsUpdate:  mu: +0.106246783  nElectrons: 350.000000  magneticMoment: [ Abs: 6.23654  Tot: -0.00000 ]
LCAOMinimize: Iter:  13  F: -1963.8816815328627854  |grad|_K:  7.898e-03  alpha:  1.552e-02  linmin: -2.560e-02  cgtest:  1.862e-01  t[s]:    631.57
	FillingsUpdate:  mu: +0.039704219  nElectrons: 350.000000  magneticMoment: [ Abs: 8.75977  Tot: +0.00000 ]
LCAOMinimize: Iter:  14  F: -1964.5965225231600471  |grad|_K:  1.236e-02  alpha:  3.538e-02  linmin:  4.946e-02  cgtest:  2.834e-01  t[s]:    665.16
	FillingsUpdate:  mu: +0.040647639  nElectrons: 350.000000  magneticMoment: [ Abs: 8.76734  Tot: +0.00000 ]
LCAOMinimize: Iter:  15  F: -1964.5966170589251760  |grad|_K:  1.235e-02  alpha:  5.580e-05  linmin: -2.571e-04  cgtest:  9.997e-01  t[s]:    698.84
LCAOMinimize: Encountered beta<0, resetting CG.
LCAOMinimize: 	Predicted alpha/alphaT>3.000000, increasing alphaT to 1.674129e-04.
LCAOMinimize: 	Predicted alpha/alphaT>3.000000, increasing alphaT to 5.022387e-04.
LCAOMinimize: 	Predicted alpha/alphaT>3.000000, increasing alphaT to 1.506716e-03.
	FillingsUpdate:  mu: +0.101760417  nElectrons: 350.000000  magneticMoment: [ Abs: 7.64047  Tot: +0.00000 ]
LCAOMinimize: Iter:  16  F: -1965.3614076546716660  |grad|_K:  6.799e-03  alpha:  1.079e-02  linmin:  7.962e-03  cgtest: -4.966e-02  t[s]:    751.44
	FillingsUpdate:  mu: +0.061147689  nElectrons: 350.000000  magneticMoment: [ Abs: 7.62973  Tot: +0.00000 ]
LCAOMinimize: Iter:  17  F: -1965.7751924484048232  |grad|_K:  2.519e-03  alpha:  1.774e-02  linmin: -9.012e-02  cgtest:  3.851e-01  t[s]:    785.49
LCAOMinimize: Encountered beta<0, resetting CG.
LCAOMinimize: 	Predicted alpha/alphaT>3.000000, increasing alphaT to 5.321109e-02.
	FillingsUpdate:  mu: +0.051536073  nElectrons: 350.000000  magneticMoment: [ Abs: 8.98022  Tot: -0.00000 ]
LCAOMinimize: Iter:  18  F: -1965.9764679793088362  |grad|_K:  3.054e-03  alpha:  7.645e-02  linmin:  1.869e-02  cgtest: -1.900e-01  t[s]:    829.35
	FillingsUpdate:  mu: +0.044827351  nElectrons: 350.000000  magneticMoment: [ Abs: 9.07625  Tot: -0.00000 ]
LCAOMinimize: Iter:  19  F: -1965.9944093630419957  |grad|_K:  2.510e-03  alpha:  5.361e-03  linmin: -7.602e-03  cgtest:  9.214e-01  t[s]:    864.68
LCAOMinimize: Encountered beta<0, resetting CG.
LCAOMinimize: 	Predicted alpha/alphaT>3.000000, increasing alphaT to 1.608250e-02.
	FillingsUpdate:  mu: +0.064904072  nElectrons: 350.000000  magneticMoment: [ Abs: 8.85060  Tot: -0.00000 ]
LCAOMinimize: Iter:  20  F: -1966.0745095403435698  |grad|_K:  1.714e-03  alpha:  2.558e-02  linmin: -1.505e-02  cgtest:  1.604e-01  t[s]:    907.72
	FillingsUpdate:  mu: +0.062760752  nElectrons: 350.000000  magneticMoment: [ Abs: 8.99823  Tot: +0.00000 ]
LCAOMinimize: Iter:  21  F: -1966.1034134463000100  |grad|_K:  1.456e-03  alpha:  1.939e-02  linmin: -5.466e-04  cgtest: -1.274e-01  t[s]:    940.86
	FillingsUpdate:  mu: +0.052525420  nElectrons: 350.000000  magneticMoment: [ Abs: 9.30812  Tot: -0.00000 ]
LCAOMinimize: Iter:  22  F: -1966.1563049528754163  |grad|_K:  1.302e-03  alpha:  4.964e-02  linmin: -2.644e-03  cgtest:  8.634e-02  t[s]:    974.08
	FillingsUpdate:  mu: +0.074955670  nElectrons: 350.000000  magneticMoment: [ Abs: 10.49815  Tot: +0.00000 ]
LCAOMinimize: Iter:  23  F: -1966.2132638124960522  |grad|_K:  1.495e-03  alpha:  6.583e-02  linmin: -1.962e-05  cgtest: -5.217e-02  t[s]:   1007.91
	FillingsUpdate:  mu: +0.088377887  nElectrons: 350.000000  magneticMoment: [ Abs: 10.89165  Tot: +0.00000 ]
LCAOMinimize: Iter:  24  F: -1966.2360106081623599  |grad|_K:  1.088e-03  alpha:  2.064e-02  linmin: -8.349e-04  cgtest:  1.930e-01  t[s]:   1041.87
	FillingsUpdate:  mu: +0.066889522  nElectrons: 350.000000  magneticMoment: [ Abs: 11.62852  Tot: -0.00000 ]
LCAOMinimize: Iter:  25  F: -1966.2734323453021261  |grad|_K:  1.017e-03  alpha:  6.111e-02  linmin: -2.698e-03  cgtest:  1.750e-01  t[s]:   1076.97
	FillingsUpdate:  mu: +0.090795694  nElectrons: 350.000000  magneticMoment: [ Abs: 12.52145  Tot: -0.00000 ]
LCAOMinimize: Iter:  26  F: -1966.3282206069413860  |grad|_K:  1.461e-03  alpha:  9.559e-02  linmin: -2.232e-03  cgtest: -3.175e-02  t[s]:   1111.06
	FillingsUpdate:  mu: +0.089978999  nElectrons: 350.000000  magneticMoment: [ Abs: 13.45729  Tot: -0.00000 ]
LCAOMinimize: Iter:  27  F: -1966.3579267895042904  |grad|_K:  1.192e-03  alpha:  3.221e-02  linmin:  2.404e-03  cgtest: -6.536e-01  t[s]:   1145.22
	FillingsUpdate:  mu: +0.088415455  nElectrons: 350.000000  magneticMoment: [ Abs: 14.27929  Tot: +0.00000 ]
LCAOMinimize: Iter:  28  F: -1966.3707249405597395  |grad|_K:  1.145e-03  alpha:  2.899e-02  linmin:  1.296e-05  cgtest:  9.367e-01  t[s]:   1179.21
	FillingsUpdate:  mu: +0.088162843  nElectrons: 350.000000  magneticMoment: [ Abs: 14.25011  Tot: -0.00000 ]
LCAOMinimize: Iter:  29  F: -1966.3818600178283305  |grad|_K:  5.481e-04  alpha:  1.814e-02  linmin:  9.162e-04  cgtest: -2.963e-03  t[s]:   1212.89
LCAOMinimize: 	Predicted alpha/alphaT>3.000000, increasing alphaT to 5.441985e-02.
	FillingsUpdate:  mu: +0.080976010  nElectrons: 350.000000  magneticMoment: [ Abs: 14.78440  Tot: -0.00000 ]
LCAOMinimize: Iter:  30  F: -1966.3989735744821701  |grad|_K:  4.452e-04  alpha:  1.186e-01  linmin: -7.148e-03  cgtest:  9.385e-02  t[s]:   1257.38
LCAOMinimize: None of the convergence criteria satisfied after 30 iterations.


---- Citations for features of the code used in this run ----

   Software package:
      R. Sundararaman, K. Letchworth-Weaver, K.A. Schwarz, D. Gunceler, Y. Ozhabes and T.A. Arias, 'JDFTx: software for joint density-functional theory', SoftwareX 6, 278 (2017)

   Simplified rotationally-invariant DFT+U:
      S. L. Dudarev et al., Phys. Rev. B 57, 1505 (1998)

   LibXC library of exchange-correlation functions:
      M. A. L. Marques, M. J. T. Oliveira and T. Burnus, Comput. Phys. Commun. 183, 2272 (2012)

   Hammer, Hansen, and Norskov exchange functional:
      B. Hammer, L. B. Hansen, and J. K. Nørskov, Phys. Rev. B 59, 7413 (1999)

   Perdew, Burke & Ernzerhof correlation functional:
      J. P. Perdew, K. Burke, and M. Ernzerhof, Phys. Rev. Lett. 77, 3865 (1996)

   Pseudopotentials:
      M Schlipf and F Gygi, Comput. Phys. Commun. 196, 36 (2015)

   Total energy minimization with Auxiliary Hamiltonian:
      C. Freysoldt, S. Boeck, and J. Neugebauer, Phys. Rev. B 79, 241103(R) (2009)

This list may not be complete. Please suggest additional citations or
report any other bugs at https://github.com/shankar1729/jdftx/issues

Initialization completed successfully at t[s]:   1268.90


-------- Electronic minimization -----------
	FillingsUpdate:  mu: +0.080976010  nElectrons: 350.000000  magneticMoment: [ Abs: 14.78440  Tot: -0.00000 ]
ElecMinimize: Iter:   0  F: -1966.398973574488309  |grad|_K:  9.694e-04  alpha:  1.000e+00
	FillingsUpdate:  mu: +0.432940881  nElectrons: 350.000000  magneticMoment: [ Abs: 16.23982  Tot: +0.00000 ]
	SubspaceRotationAdjust: set factor to 0.999
ElecMinimize: Iter:   1  F: -2010.787021665148131  |grad|_K:  1.180e-03  alpha:  4.784e-01  linmin:  1.180e-02  t[s]:   1378.37
	FillingsUpdate:  mu: +0.361955291  nElectrons: 350.000000  magneticMoment: [ Abs: 19.16944  Tot: -0.00000 ]
	SubspaceRotationAdjust: set factor to 0.675
ElecMinimize: Iter:   2  F: -2011.576523793197566  |grad|_K:  1.465e-03  alpha:  1.715e-01  linmin:  4.083e-03  t[s]:   1452.48
	FillingsUpdate:  mu: +0.318897686  nElectrons: 350.000000  magneticMoment: [ Abs: 20.37370  Tot: -0.00000 ]
	SubspaceRotationAdjust: set factor to 0.993
ElecMinimize: Iter:   3  F: -2023.031943175634524  |grad|_K:  7.062e-04  alpha:  4.281e-02  linmin: -2.353e-04  t[s]:   1527.16
	FillingsUpdate:  mu: +0.799144239  nElectrons: 350.000000  magneticMoment: [ Abs: 20.01181  Tot: +0.00000 ]
	SubspaceRotationAdjust: set factor to 0.646
ElecMinimize: Iter:   4  F: -2031.890572821305113  |grad|_K:  1.034e-03  alpha:  8.950e-02  linmin: -1.149e-03  t[s]:   1602.10
	FillingsUpdate:  mu: +0.616839631  nElectrons: 350.000000  magneticMoment: [ Abs: 20.77592  Tot: +0.00000 ]
	SubspaceRotationAdjust: set factor to 0.526
ElecMinimize: Iter:   5  F: -2036.181764490678461  |grad|_K:  7.219e-04  alpha:  1.057e-02  linmin: -4.308e-03  t[s]:   1676.53
ElecMinimize: 	Predicted alpha/alphaT>3.000000, increasing alphaT to 3.170514e-02.
	FillingsUpdate:  mu: +0.174312287  nElectrons: 350.000000  magneticMoment: [ Abs: 23.84437  Tot: +0.00000 ]
	SubspaceRotationAdjust: set factor to 0.381
ElecMinimize: Iter:   6  F: -2042.767103939524759  |grad|_K:  5.582e-04  alpha:  4.313e-02  linmin:  3.479e-03  t[s]:   1772.16
	FillingsUpdate:  mu: +0.161907050  nElectrons: 350.000000  magneticMoment: [ Abs: 23.99028  Tot: -0.00000 ]
	SubspaceRotationAdjust: set factor to 0.402
ElecMinimize: Iter:   7  F: -2042.801446257566113  |grad|_K:  5.295e-04  alpha:  3.180e-03  linmin: -1.038e-04  t[s]:   1847.94
ElecMinimize: 	Predicted alpha/alphaT>3.000000, increasing alphaT to 9.540939e-03.
ElecMinimize: 	Predicted alpha/alphaT>3.000000, increasing alphaT to 2.862282e-02.
	FillingsUpdate:  mu: +0.122225367  nElectrons: 350.000000  magneticMoment: [ Abs: 24.77956  Tot: -0.00000 ]
	SubspaceRotationAdjust: set factor to 0.301
ElecMinimize: Iter:   8  F: -2044.183964556597630  |grad|_K:  5.590e-04  alpha:  2.716e-02  linmin:  3.542e-04  t[s]:   1965.30
	FillingsUpdate:  mu: +0.202454908  nElectrons: 350.000000  magneticMoment: [ Abs: 25.12406  Tot: -0.00000 ]
	SubspaceRotationAdjust: set factor to 0.222
ElecMinimize: Iter:   9  F: -2044.851691231021050  |grad|_K:  4.977e-04  alpha:  1.190e-02  linmin: -3.311e-04  t[s]:   2041.32
	FillingsUpdate:  mu: +0.244115631  nElectrons: 350.000000  magneticMoment: [ Abs: 25.44255  Tot: -0.00000 ]
	SubspaceRotationAdjust: set factor to 0.149
ElecMinimize: Iter:  10  F: -2045.618562301364818  |grad|_K:  4.658e-04  alpha:  1.653e-02  linmin:  3.171e-04  t[s]:   2117.91
	FillingsUpdate:  mu: +0.279741453  nElectrons: 350.000000  magneticMoment: [ Abs: 25.60776  Tot: -0.00000 ]
	SubspaceRotationAdjust: set factor to 0.0981
	SubspaceRotationAdjust: resetting CG because factor has changed by 0.0980803
ElecMinimize: 	State modified externally: resetting search direction.
ElecMinimize: Iter:  11  F: -2046.135270523674080  |grad|_K:  3.694e-04  alpha:  1.511e-02
ElecMinimize: 	Predicted alpha/alphaT>3.000000, increasing alphaT to 4.533539e-02.
ElecMinimize: 	Predicted alpha/alphaT>3.000000, increasing alphaT to 1.360062e-01.
	FillingsUpdate:  mu: +0.151668540  nElectrons: 350.000000  magneticMoment: [ Abs: 24.93758  Tot: -0.00000 ]
	SubspaceRotationAdjust: set factor to 0.0711
ElecMinimize: Iter:  12  F: -2050.602414442014833  |grad|_K:  1.671e-04  alpha:  1.810e-01  linmin: -1.166e-02  t[s]:   2346.02
	FillingsUpdate:  mu: +0.126908522  nElectrons: 350.000000  magneticMoment: [ Abs: 25.04246  Tot: +0.00000 ]
	SubspaceRotationAdjust: set factor to 0.069
ElecMinimize: Iter:  13  F: -2051.721182332087665  |grad|_K:  9.631e-05  alpha:  2.058e-01  linmin: -2.883e-03  t[s]:   2421.44
	FillingsUpdate:  mu: +0.155190285  nElectrons: 350.000000  magneticMoment: [ Abs: 24.71519  Tot: -0.00000 ]
	SubspaceRotationAdjust: set factor to 0.0636
ElecMinimize: Iter:  14  F: -2052.414727744949687  |grad|_K:  7.705e-05  alpha:  3.933e-01  linmin:  1.143e-04  t[s]:   2495.52
	FillingsUpdate:  mu: +0.151772378  nElectrons: 350.000000  magneticMoment: [ Abs: 24.51824  Tot: +0.00000 ]
	SubspaceRotationAdjust: set factor to 0.0767
ElecMinimize: Iter:  15  F: -2052.856468351849799  |grad|_K:  6.287e-05  alpha:  4.328e-01  linmin:  1.066e-04  t[s]:   2570.50
	FillingsUpdate:  mu: +0.120436135  nElectrons: 350.000000  magneticMoment: [ Abs: 24.61350  Tot: +0.00000 ]
	SubspaceRotationAdjust: set factor to 0.0805
ElecMinimize: Iter:  16  F: -2053.120481731808468  |grad|_K:  5.273e-05  alpha:  3.905e-01  linmin: -1.202e-04  t[s]:   2645.89
	FillingsUpdate:  mu: +0.126733299  nElectrons: 350.000000  magneticMoment: [ Abs: 24.98323  Tot: +0.00000 ]
	SubspaceRotationAdjust: set factor to 0.0831
ElecMinimize: Iter:  17  F: -2053.308498634450643  |grad|_K:  4.825e-05  alpha:  3.805e-01  linmin: -3.855e-06  t[s]:   2720.84
	FillingsUpdate:  mu: +0.129752374  nElectrons: 350.000000  magneticMoment: [ Abs: 25.70039  Tot: +0.00000 ]
	SubspaceRotationAdjust: set factor to 0.0862
ElecMinimize: Iter:  18  F: -2053.488558488742910  |grad|_K:  4.632e-05  alpha:  4.450e-01  linmin: -7.933e-05  t[s]:   2796.43
	FillingsUpdate:  mu: +0.151463187  nElectrons: 350.000000  magneticMoment: [ Abs: 26.50602  Tot: -0.00000 ]
	SubspaceRotationAdjust: set factor to 0.0899
ElecMinimize: Iter:  19  F: -2053.643601274945468  |grad|_K:  4.412e-05  alpha:  4.003e-01  linmin: -7.289e-05  t[s]:   2872.17
	FillingsUpdate:  mu: +0.130789245  nElectrons: 350.000000  magneticMoment: [ Abs: 27.27701  Tot: +0.00000 ]
	SubspaceRotationAdjust: set factor to 0.0951
ElecMinimize: Iter:  20  F: -2053.783103657050560  |grad|_K:  4.767e-05  alpha:  3.988e-01  linmin: -4.218e-05  t[s]:   2946.63
	FillingsUpdate:  mu: +0.133001633  nElectrons: 350.000000  magneticMoment: [ Abs: 28.45286  Tot: +0.00000 ]
	SubspaceRotationAdjust: set factor to 0.119
ElecMinimize: Iter:  21  F: -2053.957656248988314  |grad|_K:  4.961e-05  alpha:  4.284e-01  linmin: -1.256e-04  t[s]:   3021.81
	FillingsUpdate:  mu: +0.150907763  nElectrons: 350.000000  magneticMoment: [ Abs: 30.02233  Tot: -0.00000 ]
	SubspaceRotationAdjust: set factor to 0.12
ElecMinimize: Iter:  22  F: -2054.139779765816002  |grad|_K:  5.680e-05  alpha:  3.862e-01  linmin:  1.476e-05  t[s]:   3097.91
	FillingsUpdate:  mu: +0.146554964  nElectrons: 350.000000  magneticMoment: [ Abs: 30.17781  Tot: +0.00000 ]
	SubspaceRotationAdjust: set factor to 0.162
ElecMinimize: Iter:  23  F: -2054.167461365635063  |grad|_K:  5.135e-05  alpha:  4.011e-02  linmin: -1.051e-03  t[s]:   3173.77
ElecMinimize: 	Predicted alpha/alphaT>3.000000, increasing alphaT to 1.203193e-01.
	FillingsUpdate:  mu: +0.130704567  nElectrons: 350.000000  magneticMoment: [ Abs: 30.45790  Tot: -0.00000 ]
	SubspaceRotationAdjust: set factor to 0.0995
ElecMinimize: Iter:  24  F: -2054.299159428485837  |grad|_K:  8.489e-05  alpha:  1.574e-01  linmin:  5.682e-05  t[s]:   3270.87
ElecMinimize: 	Step increased F by 6.087192e-03, reducing alpha to 3.098869e-04.
ElecMinimize: 	Step increased F by 1.300446e-02, reducing alpha to 3.098869e-05.
ElecMinimize: 	Step increased F by 1.371588e-02, reducing alpha to 3.098869e-06.
ElecMinimize: 	Step failed to reduce F after 3 attempts. Quitting step.
ElecMinimize: 	Undoing step.
ElecMinimize: 	Step failed: resetting search direction.
	FillingsUpdate:  mu: +0.129924605  nElectrons: 350.000000  magneticMoment: [ Abs: 30.45330  Tot: -0.00000 ]
	SubspaceRotationAdjust: set factor to 0.0682
ElecMinimize: Iter:  25  F: -2054.285435625505215  |grad|_K:  7.022e-05  alpha:  3.099e-06
	FillingsUpdate:  mu: +0.132278788  nElectrons: 350.000000  magneticMoment: [ Abs: 30.72791  Tot: +0.00000 ]
	SubspaceRotationAdjust: set factor to 0.0355
ElecMinimize: Iter:  26  F: -2054.354707274922930  |grad|_K:  3.228e-05  alpha:  8.279e-02  linmin:  3.576e-03  t[s]:   3566.70
ElecMinimize: 	Predicted alpha/alphaT>3.000000, increasing alphaT to 2.483757e-01.
	FillingsUpdate:  mu: +0.149094415  nElectrons: 350.000000  magneticMoment: [ Abs: 30.79467  Tot: -0.00000 ]
	SubspaceRotationAdjust: set factor to 0.0458
ElecMinimize: Iter:  27  F: -2054.446016242387032  |grad|_K:  3.161e-05  alpha:  5.145e-01  linmin: -2.844e-04  t[s]:   3662.59
	FillingsUpdate:  mu: +0.143914860  nElectrons: 350.000000  magneticMoment: [ Abs: 30.77948  Tot: -0.00000 ]
	SubspaceRotationAdjust: set factor to 0.0459
ElecMinimize: Iter:  28  F: -2054.499281058627730  |grad|_K:  2.248e-05  alpha:  3.063e-01  linmin: -1.754e-05  t[s]:   3736.69
	FillingsUpdate:  mu: +0.130189225  nElectrons: 350.000000  magneticMoment: [ Abs: 30.97836  Tot: +0.00000 ]
	SubspaceRotationAdjust: set factor to 0.0486
ElecMinimize: Iter:  29  F: -2054.532232421202480  |grad|_K:  1.944e-05  alpha:  3.754e-01  linmin:  2.493e-04  t[s]:   3810.84
	FillingsUpdate:  mu: +0.125687266  nElectrons: 350.000000  magneticMoment: [ Abs: 31.14114  Tot: -0.00000 ]
	SubspaceRotationAdjust: set factor to 0.0585
ElecMinimize: Iter:  30  F: -2054.560085496185366  |grad|_K:  1.626e-05  alpha:  4.260e-01  linmin: -3.476e-04  t[s]:   3885.15
	FillingsUpdate:  mu: +0.127936180  nElectrons: 350.000000  magneticMoment: [ Abs: 31.34716  Tot: -0.00000 ]
	SubspaceRotationAdjust: set factor to 0.0657
ElecMinimize: Iter:  31  F: -2054.581808415860905  |grad|_K:  1.729e-05  alpha:  4.652e-01  linmin: -2.113e-04  t[s]:   3959.34
	FillingsUpdate:  mu: +0.122884261  nElectrons: 350.000000  magneticMoment: [ Abs: 31.71398  Tot: -0.00000 ]
	SubspaceRotationAdjust: set factor to 0.0686
ElecMinimize: Iter:  32  F: -2054.602342460270393  |grad|_K:  1.754e-05  alpha:  3.889e-01  linmin: -6.957e-05  t[s]:   4034.93
	FillingsUpdate:  mu: +0.126394182  nElectrons: 350.000000  magneticMoment: [ Abs: 32.07785  Tot: +0.00000 ]
	SubspaceRotationAdjust: set factor to 0.0635
ElecMinimize: Iter:  33  F: -2054.622049877093104  |grad|_K:  1.781e-05  alpha:  3.657e-01  linmin: -4.151e-05  t[s]:   4108.29
	FillingsUpdate:  mu: +0.116349228  nElectrons: 350.000000  magneticMoment: [ Abs: 32.59359  Tot: -0.00000 ]
	SubspaceRotationAdjust: set factor to 0.0655
ElecMinimize: Iter:  34  F: -2054.639624302258653  |grad|_K:  1.519e-05  alpha:  3.181e-01  linmin: -1.420e-04  t[s]:   4183.43
	FillingsUpdate:  mu: +0.113418687  nElectrons: 350.000000  magneticMoment: [ Abs: 33.00507  Tot: -0.00000 ]
	SubspaceRotationAdjust: set factor to 0.0763
ElecMinimize: Iter:  35  F: -2054.655561304108687  |grad|_K:  1.443e-05  alpha:  3.911e-01  linmin: -4.591e-05  t[s]:   4258.52
	FillingsUpdate:  mu: +0.111853454  nElectrons: 350.000000  magneticMoment: [ Abs: 33.38399  Tot: -0.00000 ]
	SubspaceRotationAdjust: set factor to 0.0908
ElecMinimize: Iter:  36  F: -2054.672641681589539  |grad|_K:  1.518e-05  alpha:  4.675e-01  linmin: -1.190e-04  t[s]:   4333.90
	FillingsUpdate:  mu: +0.119519413  nElectrons: 350.000000  magneticMoment: [ Abs: 33.73818  Tot: -0.00000 ]
	SubspaceRotationAdjust: set factor to 0.0896
ElecMinimize: Iter:  37  F: -2054.688399658195976  |grad|_K:  1.850e-05  alpha:  3.815e-01  linmin:  8.451e-05  t[s]:   4410.67
	FillingsUpdate:  mu: +0.115930734  nElectrons: 350.000000  magneticMoment: [ Abs: 33.98119  Tot: +0.00000 ]
	SubspaceRotationAdjust: set factor to 0.0824
ElecMinimize: Iter:  38  F: -2054.701430468301169  |grad|_K:  1.514e-05  alpha:  2.238e-01  linmin: -3.202e-05  t[s]:   4486.89
	FillingsUpdate:  mu: +0.117545668  nElectrons: 350.000000  magneticMoment: [ Abs: 34.30114  Tot: -0.00000 ]
	SubspaceRotationAdjust: set factor to 0.0947
ElecMinimize: Iter:  39  F: -2054.713502879191765  |grad|_K:  1.348e-05  alpha:  3.045e-01  linmin:  2.203e-04  t[s]:   4563.33
	FillingsUpdate:  mu: +0.114742986  nElectrons: 350.000000  magneticMoment: [ Abs: 34.65105  Tot: +0.00000 ]
	SubspaceRotationAdjust: set factor to 0.111
ElecMinimize: Iter:  40  F: -2054.723315697962789  |grad|_K:  1.286e-05  alpha:  3.211e-01  linmin:  1.096e-04  t[s]:   4639.03
	FillingsUpdate:  mu: +0.116082422  nElectrons: 350.000000  magneticMoment: [ Abs: 34.92177  Tot: +0.00000 ]
	SubspaceRotationAdjust: set factor to 0.122
ElecMinimize: Iter:  41  F: -2054.730015109415035  |grad|_K:  1.164e-05  alpha:  2.389e-01  linmin: -6.401e-05  t[s]:   4715.61
	FillingsUpdate:  mu: +0.113731104  nElectrons: 350.000000  magneticMoment: [ Abs: 35.22069  Tot: -0.00000 ]
	SubspaceRotationAdjust: set factor to 0.153
ElecMinimize: Iter:  42  F: -2054.735632269163034  |grad|_K:  1.010e-05  alpha:  2.363e-01  linmin: -2.348e-05  t[s]:   4792.35
	FillingsUpdate:  mu: +0.114037733  nElectrons: 350.000000  magneticMoment: [ Abs: 35.54953  Tot: +0.00000 ]
	SubspaceRotationAdjust: set factor to 0.186
ElecMinimize: Iter:  43  F: -2054.740920961878601  |grad|_K:  1.043e-05  alpha:  2.970e-01  linmin: -1.066e-05  t[s]:   4867.81
	FillingsUpdate:  mu: +0.117194617  nElectrons: 350.000000  magneticMoment: [ Abs: 35.90146  Tot: +0.00000 ]
	SubspaceRotationAdjust: set factor to 0.171
ElecMinimize: Iter:  44  F: -2054.745715529173140  |grad|_K:  1.153e-05  alpha:  2.513e-01  linmin:  3.485e-05  t[s]:   4944.87
	FillingsUpdate:  mu: +0.117132756  nElectrons: 350.000000  magneticMoment: [ Abs: 36.44887  Tot: -0.00000 ]
	SubspaceRotationAdjust: set factor to 0.169
ElecMinimize: Iter:  45  F: -2054.751226966947343  |grad|_K:  1.371e-05  alpha:  2.363e-01  linmin:  4.655e-04  t[s]:   5020.85
	FillingsUpdate:  mu: +0.118628925  nElectrons: 350.000000  magneticMoment: [ Abs: 36.84955  Tot: -0.00000 ]
	SubspaceRotationAdjust: set factor to 0.156
ElecMinimize: Iter:  46  F: -2054.755000881502838  |grad|_K:  1.511e-05  alpha:  1.150e-01  linmin: -1.744e-04  t[s]:   5097.20
	FillingsUpdate:  mu: +0.115754000  nElectrons: 350.000000  magneticMoment: [ Abs: 37.19422  Tot: +0.00000 ]
	SubspaceRotationAdjust: set factor to 0.173
ElecMinimize: Iter:  47  F: -2054.759143049906470  |grad|_K:  1.330e-05  alpha:  1.031e-01  linmin: -4.190e-04  t[s]:   5171.40
	FillingsUpdate:  mu: +0.116625102  nElectrons: 350.000000  magneticMoment: [ Abs: 37.50353  Tot: -0.00000 ]
	SubspaceRotationAdjust: set factor to 0.232
ElecMinimize: Iter:  48  F: -2054.764283910621543  |grad|_K:  1.284e-05  alpha:  1.518e-01  linmin: -5.535e-04  t[s]:   5246.19
	FillingsUpdate:  mu: +0.124943116  nElectrons: 350.000000  magneticMoment: [ Abs: 37.81785  Tot: -0.00000 ]
	SubspaceRotationAdjust: set factor to 0.273
ElecMinimize: Iter:  49  F: -2054.769898754378573  |grad|_K:  1.460e-05  alpha:  1.823e-01  linmin:  3.725e-04  t[s]:   5321.71
	FillingsUpdate:  mu: +0.132505091  nElectrons: 350.000000  magneticMoment: [ Abs: 38.02757  Tot: +0.00000 ]
	SubspaceRotationAdjust: set factor to 0.27
ElecMinimize: Iter:  50  F: -2054.773843470495194  |grad|_K:  1.677e-05  alpha:  1.087e-01  linmin: -1.440e-04  t[s]:   5397.77
	FillingsUpdate:  mu: +0.132363126  nElectrons: 350.000000  magneticMoment: [ Abs: 38.22476  Tot: +0.00000 ]
	SubspaceRotationAdjust: set factor to 0.301
ElecMinimize: Iter:  51  F: -2054.778757304938154  |grad|_K:  1.696e-05  alpha:  9.829e-02  linmin: -1.478e-04  t[s]:   5472.43
	FillingsUpdate:  mu: +0.126605069  nElectrons: 350.000000  magneticMoment: [ Abs: 38.38934  Tot: -0.00000 ]
	SubspaceRotationAdjust: set factor to 0.325
ElecMinimize: Iter:  52  F: -2054.783588972314192  |grad|_K:  1.820e-05  alpha:  9.030e-02  linmin:  7.262e-04  t[s]:   5547.24
	FillingsUpdate:  mu: +0.128208013  nElectrons: 350.000000  magneticMoment: [ Abs: 38.50256  Tot: +0.00000 ]
	SubspaceRotationAdjust: set factor to 0.28
ElecMinimize: Iter:  53  F: -2054.785506259490830  |grad|_K:  2.117e-05  alpha:  3.957e-02  linmin:  6.421e-05  t[s]:   5624.45
	FillingsUpdate:  mu: +0.127635872  nElectrons: 350.000000  magneticMoment: [ Abs: 38.73451  Tot: +0.00000 ]
	SubspaceRotationAdjust: set factor to 0.245
ElecMinimize: Iter:  54  F: -2054.789043224930083  |grad|_K:  2.134e-05  alpha:  4.553e-02  linmin: -2.213e-04  t[s]:   5701.11
	FillingsUpdate:  mu: +0.124691066  nElectrons: 350.000000  magneticMoment: [ Abs: 39.01298  Tot: -0.00000 ]
	SubspaceRotationAdjust: set factor to 0.263
ElecMinimize: Iter:  55  F: -2054.793325298920990  |grad|_K:  1.929e-05  alpha:  5.121e-02  linmin: -1.661e-05  t[s]:   5776.68
	FillingsUpdate:  mu: +0.122831666  nElectrons: 350.000000  magneticMoment: [ Abs: 39.20894  Tot: -0.00000 ]
	SubspaceRotationAdjust: set factor to 0.296
ElecMinimize: Iter:  56  F: -2054.796856690098593  |grad|_K:  1.892e-05  alpha:  5.430e-02  linmin: -7.878e-06  t[s]:   5852.76
	FillingsUpdate:  mu: +0.117031284  nElectrons: 350.000000  magneticMoment: [ Abs: 39.31393  Tot: +0.00000 ]
	SubspaceRotationAdjust: set factor to 0.401
ElecMinimize: Iter:  57  F: -2054.800050954520430  |grad|_K:  1.752e-05  alpha:  5.115e-02  linmin: -1.808e-05  t[s]:   5927.07
	FillingsUpdate:  mu: +0.117603242  nElectrons: 350.000000  magneticMoment: [ Abs: 39.33861  Tot: -0.00000 ]
	SubspaceRotationAdjust: set factor to 0.498
ElecMinimize: Iter:  58  F: -2054.802547847799815  |grad|_K:  1.621e-05  alpha:  4.656e-02  linmin: -1.887e-05  t[s]:   6003.11
	FillingsUpdate:  mu: +0.115443586  nElectrons: 350.000000  magneticMoment: [ Abs: 39.34731  Tot: -0.00000 ]
	SubspaceRotationAdjust: set factor to 0.488
ElecMinimize: Iter:  59  F: -2054.804892582516004  |grad|_K:  1.801e-05  alpha:  5.094e-02  linmin: -3.150e-05  t[s]:   6077.42
	FillingsUpdate:  mu: +0.117779302  nElectrons: 350.000000  magneticMoment: [ Abs: 39.41487  Tot: +0.00000 ]
	SubspaceRotationAdjust: set factor to 0.508
ElecMinimize: Iter:  60  F: -2054.807675187129917  |grad|_K:  1.725e-05  alpha:  4.885e-02  linmin:  2.706e-05  t[s]:   6152.01
	FillingsUpdate:  mu: +0.121042394  nElectrons: 350.000000  magneticMoment: [ Abs: 39.51021  Tot: -0.00000 ]
	SubspaceRotationAdjust: set factor to 0.639
ElecMinimize: Iter:  61  F: -2054.809695537543575  |grad|_K:  1.633e-05  alpha:  3.906e-02  linmin:  1.767e-05  t[s]:   6226.77
	FillingsUpdate:  mu: +0.122326451  nElectrons: 350.000000  magneticMoment: [ Abs: 39.60221  Tot: -0.00000 ]
	SubspaceRotationAdjust: set factor to 0.667
ElecMinimize: Iter:  62  F: -2054.811712736545360  |grad|_K:  1.762e-05  alpha:  4.360e-02  linmin: -3.104e-05  t[s]:   6301.54
	FillingsUpdate:  mu: +0.116974933  nElectrons: 350.000000  magneticMoment: [ Abs: 39.64929  Tot: +0.00000 ]
	SubspaceRotationAdjust: set factor to 0.869
	SubspaceRotationAdjust: resetting CG because factor has changed by 8.85748
ElecMinimize: 	State modified externally: resetting search direction.
ElecMinimize: Iter:  63  F: -2054.813697530914396  |grad|_K:  1.717e-05  alpha:  3.656e-02
ElecMinimize: 	Predicted alpha/alphaT>3.000000, increasing alphaT to 1.096749e-01.
	FillingsUpdate:  mu: +0.118425480  nElectrons: 350.000000  magneticMoment: [ Abs: 39.59589  Tot: -0.00000 ]
	SubspaceRotationAdjust: set factor to 0.561
ElecMinimize: Iter:  64  F: -2054.820517303058296  |grad|_K:  1.933e-05  alpha:  1.337e-01  linmin:  4.838e-04  t[s]:   6507.69
	FillingsUpdate:  mu: +0.123190576  nElectrons: 350.000000  magneticMoment: [ Abs: 39.68932  Tot: +0.00000 ]
	SubspaceRotationAdjust: set factor to 0.396
ElecMinimize: Iter:  65  F: -2054.826828296380427  |grad|_K:  1.554e-05  alpha:  9.861e-02  linmin:  8.798e-05  t[s]:   6583.13
	FillingsUpdate:  mu: +0.117952832  nElectrons: 350.000000  magneticMoment: [ Abs: 39.62239  Tot: +0.00000 ]
	SubspaceRotationAdjust: set factor to 0.322
ElecMinimize: Iter:  66  F: -2054.832544227373546  |grad|_K:  1.176e-05  alpha:  1.341e-01  linmin: -5.991e-04  t[s]:   6657.97
	FillingsUpdate:  mu: +0.131843078  nElectrons: 350.000000  magneticMoment: [ Abs: 39.64291  Tot: -0.00000 ]
	SubspaceRotationAdjust: set factor to 0.209
ElecMinimize: Iter:  67  F: -2054.835859517448625  |grad|_K:  1.239e-05  alpha:  1.304e-01  linmin:  1.407e-04  t[s]:   6732.91
	FillingsUpdate:  mu: +0.125651678  nElectrons: 350.000000  magneticMoment: [ Abs: 39.48662  Tot: +0.00000 ]
	SubspaceRotationAdjust: set factor to 0.241
ElecMinimize: Iter:  68  F: -2054.839644739981395  |grad|_K:  7.618e-06  alpha:  1.436e-01  linmin:  1.867e-04  t[s]:   6808.40
	FillingsUpdate:  mu: +0.125086974  nElectrons: 350.000000  magneticMoment: [ Abs: 39.44786  Tot: +0.00000 ]
	SubspaceRotationAdjust: set factor to 0.222
ElecMinimize: Iter:  69  F: -2054.842270161160741  |grad|_K:  6.601e-06  alpha:  2.663e-01  linmin:  2.363e-04  t[s]:   6883.76
	FillingsUpdate:  mu: +0.126269732  nElectrons: 350.000000  magneticMoment: [ Abs: 39.49415  Tot: +0.00000 ]
	SubspaceRotationAdjust: set factor to 0.179
ElecMinimize: Iter:  70  F: -2054.843224104908131  |grad|_K:  5.480e-06  alpha:  1.272e-01  linmin: -2.010e-05  t[s]:   6958.46
	FillingsUpdate:  mu: +0.121371160  nElectrons: 350.000000  magneticMoment: [ Abs: 39.47403  Tot: +0.00000 ]
	SubspaceRotationAdjust: set factor to 0.18
ElecMinimize: Iter:  71  F: -2054.844037522082090  |grad|_K:  3.409e-06  alpha:  1.555e-01  linmin:  4.020e-05  t[s]:   7034.63
	FillingsUpdate:  mu: +0.121846917  nElectrons: 350.000000  magneticMoment: [ Abs: 39.45216  Tot: -0.00000 ]
	SubspaceRotationAdjust: set factor to 0.203
ElecMinimize: Iter:  72  F: -2054.844551063646122  |grad|_K:  3.128e-06  alpha:  2.545e-01  linmin:  3.580e-05  t[s]:   7110.37
	FillingsUpdate:  mu: +0.123926317  nElectrons: 350.000000  magneticMoment: [ Abs: 39.46675  Tot: +0.00000 ]
	SubspaceRotationAdjust: set factor to 0.171
ElecMinimize: Iter:  73  F: -2054.844838847295705  |grad|_K:  2.989e-06  alpha:  1.688e-01  linmin:  6.449e-06  t[s]:   7186.14
	FillingsUpdate:  mu: +0.123719024  nElectrons: 350.000000  magneticMoment: [ Abs: 39.45455  Tot: +0.00000 ]
	SubspaceRotationAdjust: set factor to 0.21
ElecMinimize: Iter:  74  F: -2054.845224448684803  |grad|_K:  2.538e-06  alpha:  2.483e-01  linmin:  5.360e-05  t[s]:   7259.71
	FillingsUpdate:  mu: +0.121356163  nElectrons: 350.000000  magneticMoment: [ Abs: 39.45750  Tot: +0.00000 ]
	SubspaceRotationAdjust: set factor to 0.202
ElecMinimize: Iter:  75  F: -2054.845570761577619  |grad|_K:  2.863e-06  alpha:  3.102e-01  linmin:  5.285e-05  t[s]:   7333.84
	FillingsUpdate:  mu: +0.122862071  nElectrons: 350.000000  magneticMoment: [ Abs: 39.48861  Tot: +0.00000 ]
	SubspaceRotationAdjust: set factor to 0.17
ElecMinimize: Iter:  76  F: -2054.845809531833311  |grad|_K:  2.847e-06  alpha:  1.694e-01  linmin:  4.139e-05  t[s]:   7407.98
	FillingsUpdate:  mu: +0.123710162  nElectrons: 350.000000  magneticMoment: [ Abs: 39.48917  Tot: +0.00000 ]
	SubspaceRotationAdjust: set factor to 0.171
ElecMinimize: Iter:  77  F: -2054.846133133105013  |grad|_K:  2.371e-06  alpha:  2.308e-01  linmin:  7.228e-05  t[s]:   7481.08
	FillingsUpdate:  mu: +0.122881750  nElectrons: 350.000000  magneticMoment: [ Abs: 39.48964  Tot: +0.00000 ]
	SubspaceRotationAdjust: set factor to 0.19
ElecMinimize: Iter:  78  F: -2054.846442578500046  |grad|_K:  2.632e-06  alpha:  3.196e-01  linmin:  6.756e-05  t[s]:   7555.46
	FillingsUpdate:  mu: +0.123951728  nElectrons: 350.000000  magneticMoment: [ Abs: 39.52278  Tot: -0.00000 ]
	SubspaceRotationAdjust: set factor to 0.165
ElecMinimize: Iter:  79  F: -2054.846703672147214  |grad|_K:  2.860e-06  alpha:  2.196e-01  linmin: -2.593e-06  t[s]:   7629.74
	FillingsUpdate:  mu: +0.122769315  nElectrons: 350.000000  magneticMoment: [ Abs: 39.54190  Tot: -0.00000 ]
	SubspaceRotationAdjust: set factor to 0.161
ElecMinimize: Iter:  80  F: -2054.847027434351276  |grad|_K:  2.469e-06  alpha:  2.273e-01  linmin:  4.668e-05  t[s]:   7703.80
	FillingsUpdate:  mu: +0.123297834  nElectrons: 350.000000  magneticMoment: [ Abs: 39.57619  Tot: +0.00000 ]
	SubspaceRotationAdjust: set factor to 0.181
ElecMinimize: Iter:  81  F: -2054.847396383397609  |grad|_K:  2.541e-06  alpha:  3.490e-01  linmin: -4.169e-05  t[s]:   7777.76
	FillingsUpdate:  mu: +0.123647127  nElectrons: 350.000000  magneticMoment: [ Abs: 39.61255  Tot: -0.00000 ]
	SubspaceRotationAdjust: set factor to 0.163
ElecMinimize: Iter:  82  F: -2054.847694279550979  |grad|_K:  2.660e-06  alpha:  2.639e-01  linmin: -1.018e-05  t[s]:   7851.70
	FillingsUpdate:  mu: +0.122409957  nElectrons: 350.000000  magneticMoment: [ Abs: 39.62039  Tot: -0.00000 ]
	SubspaceRotationAdjust: set factor to 0.141
ElecMinimize: Iter:  83  F: -2054.847933688056401  |grad|_K:  2.292e-06  alpha:  1.910e-01  linmin:  3.248e-05  t[s]:   7925.51
	FillingsUpdate:  mu: +0.122725139  nElectrons: 350.000000  magneticMoment: [ Abs: 39.65782  Tot: +0.00000 ]
	SubspaceRotationAdjust: set factor to 0.181
ElecMinimize: Iter:  84  F: -2054.848198783573935  |grad|_K:  2.135e-06  alpha:  2.890e-01  linmin: -1.106e-04  t[s]:   8000.07
	FillingsUpdate:  mu: +0.123343851  nElectrons: 350.000000  magneticMoment: [ Abs: 39.69931  Tot: +0.00000 ]
	SubspaceRotationAdjust: set factor to 0.182
ElecMinimize: Iter:  85  F: -2054.848432579114615  |grad|_K:  2.230e-06  alpha:  2.898e-01  linmin: -2.156e-04  t[s]:   8073.53
	FillingsUpdate:  mu: +0.122791552  nElectrons: 350.000000  magneticMoment: [ Abs: 39.71140  Tot: -0.00000 ]
	SubspaceRotationAdjust: set factor to 0.156
ElecMinimize: Iter:  86  F: -2054.848622215308296  |grad|_K:  2.285e-06  alpha:  2.082e-01  linmin:  4.045e-05  t[s]:   8146.96
	FillingsUpdate:  mu: +0.123223463  nElectrons: 350.000000  magneticMoment: [ Abs: 39.74664  Tot: -0.00000 ]
	SubspaceRotationAdjust: set factor to 0.186
ElecMinimize: Iter:  87  F: -2054.848845548016470  |grad|_K:  1.980e-06  alpha:  2.472e-01  linmin:  2.064e-05  t[s]:   8221.69
	FillingsUpdate:  mu: +0.123639821  nElectrons: 350.000000  magneticMoment: [ Abs: 39.78532  Tot: +0.00000 ]
	SubspaceRotationAdjust: set factor to 0.216
ElecMinimize: Iter:  88  F: -2054.849047973340475  |grad|_K:  2.115e-06  alpha:  2.959e-01  linmin: -1.485e-04  t[s]:   8296.53
	FillingsUpdate:  mu: +0.123148160  nElectrons: 350.000000  magneticMoment: [ Abs: 39.80234  Tot: +0.00000 ]
	SubspaceRotationAdjust: set factor to 0.201
ElecMinimize: Iter:  89  F: -2054.849193183665648  |grad|_K:  2.191e-06  alpha:  1.734e-01  linmin: -1.756e-04  t[s]:   8370.48
	FillingsUpdate:  mu: +0.123435561  nElectrons: 350.000000  magneticMoment: [ Abs: 39.83685  Tot: -0.00000 ]
	SubspaceRotationAdjust: set factor to 0.282
ElecMinimize: Iter:  90  F: -2054.849369479750749  |grad|_K:  1.928e-06  alpha:  2.053e-01  linmin: -2.062e-04  t[s]:   8444.68
	FillingsUpdate:  mu: +0.123832859  nElectrons: 350.000000  magneticMoment: [ Abs: 39.86762  Tot: +0.00000 ]
	SubspaceRotationAdjust: set factor to 0.233
ElecMinimize: Iter:  91  F: -2054.849535682574697  |grad|_K:  2.367e-06  alpha:  2.486e-01  linmin: -2.068e-04  t[s]:   8518.82
	FillingsUpdate:  mu: +0.123228593  nElectrons: 350.000000  magneticMoment: [ Abs: 39.87598  Tot: -0.00000 ]
	SubspaceRotationAdjust: set factor to 0.237
ElecMinimize: Iter:  92  F: -2054.849641104770853  |grad|_K:  1.988e-06  alpha:  9.529e-02  linmin: -6.780e-04  t[s]:   8592.76
	FillingsUpdate:  mu: +0.123274264  nElectrons: 350.000000  magneticMoment: [ Abs: 39.90237  Tot: +0.00000 ]
	SubspaceRotationAdjust: set factor to 0.213
ElecMinimize: Iter:  93  F: -2054.849800722583495  |grad|_K:  2.222e-06  alpha:  2.097e-01  linmin: -3.545e-04  t[s]:   8667.67
	FillingsUpdate:  mu: +0.123912651  nElectrons: 350.000000  magneticMoment: [ Abs: 39.93011  Tot: +0.00000 ]
	SubspaceRotationAdjust: set factor to 0.175
ElecMinimize: Iter:  94  F: -2054.849903981021725  |grad|_K:  2.065e-06  alpha:  1.203e-01  linmin:  7.686e-05  t[s]:   8742.91
	FillingsUpdate:  mu: +0.123807910  nElectrons: 350.000000  magneticMoment: [ Abs: 39.96073  Tot: +0.00000 ]
	SubspaceRotationAdjust: set factor to 0.225
ElecMinimize: Iter:  95  F: -2054.850084920487006  |grad|_K:  1.789e-06  alpha:  2.456e-01  linmin: -4.029e-05  t[s]:   8817.85
	FillingsUpdate:  mu: +0.123050256  nElectrons: 350.000000  magneticMoment: [ Abs: 39.97569  Tot: -0.00000 ]
	SubspaceRotationAdjust: set factor to 0.18
ElecMinimize: Iter:  96  F: -2054.850218579719694  |grad|_K:  2.278e-06  alpha:  2.380e-01  linmin:  6.651e-05  t[s]:   8893.04
	FillingsUpdate:  mu: +0.123659714  nElectrons: 350.000000  magneticMoment: [ Abs: 40.00006  Tot: -0.00000 ]
	SubspaceRotationAdjust: set factor to 0.161
ElecMinimize: Iter:  97  F: -2054.850330756143649  |grad|_K:  1.616e-06  alpha:  1.264e-01  linmin:  1.756e-05  t[s]:   8967.86
	FillingsUpdate:  mu: +0.123614311  nElectrons: 350.000000  magneticMoment: [ Abs: 40.02463  Tot: +0.00000 ]
	SubspaceRotationAdjust: set factor to 0.2
ElecMinimize: Iter:  98  F: -2054.850466761032749  |grad|_K:  1.698e-06  alpha:  2.995e-01  linmin: -1.083e-05  t[s]:   9042.65
	FillingsUpdate:  mu: +0.123293958  nElectrons: 350.000000  magneticMoment: [ Abs: 40.03157  Tot: +0.00000 ]
	SubspaceRotationAdjust: set factor to 0.167
ElecMinimize: Iter:  99  F: -2054.850551316703331  |grad|_K:  1.659e-06  alpha:  1.674e-01  linmin: -9.501e-06  t[s]:   9118.31
	FillingsUpdate:  mu: +0.123359874  nElectrons: 350.000000  magneticMoment: [ Abs: 40.04759  Tot: +0.00000 ]
	SubspaceRotationAdjust: set factor to 0.197
ElecMinimize: Iter: 100  F: -2054.850661201293406  |grad|_K:  1.386e-06  alpha:  2.290e-01  linmin: -4.610e-06  t[s]:   9193.33
	FillingsUpdate:  mu: +0.123496620  nElectrons: 350.000000  magneticMoment: [ Abs: 40.05930  Tot: +0.00000 ]
	SubspaceRotationAdjust: set factor to 0.221
ElecMinimize: Iter: 101  F: -2054.850768776698260  |grad|_K:  1.531e-06  alpha:  3.211e-01  linmin: -1.620e-05  t[s]:   9267.63
	FillingsUpdate:  mu: +0.123162734  nElectrons: 350.000000  magneticMoment: [ Abs: 40.05971  Tot: -0.00000 ]
	SubspaceRotationAdjust: set factor to 0.187
ElecMinimize: Iter: 102  F: -2054.850837925739143  |grad|_K:  1.639e-06  alpha:  1.690e-01  linmin:  3.242e-07  t[s]:   9342.38
	FillingsUpdate:  mu: +0.123346156  nElectrons: 350.000000  magneticMoment: [ Abs: 40.07071  Tot: +0.00000 ]
	SubspaceRotationAdjust: set factor to 0.195
ElecMinimize: Iter: 103  F: -2054.850942535344075  |grad|_K:  1.421e-06  alpha:  2.237e-01  linmin: -1.044e-06  t[s]:   9417.74
	FillingsUpdate:  mu: +0.123330254  nElectrons: 350.000000  magneticMoment: [ Abs: 40.07662  Tot: +0.00000 ]
	SubspaceRotationAdjust: set factor to 0.227
ElecMinimize: Iter: 104  F: -2054.851068421162381  |grad|_K:  1.509e-06  alpha:  3.586e-01  linmin:  2.937e-05  t[s]:   9492.33
	FillingsUpdate:  mu: +0.122978522  nElectrons: 350.000000  magneticMoment: [ Abs: 40.07397  Tot: +0.00000 ]
	SubspaceRotationAdjust: set factor to 0.224
ElecMinimize: Iter: 105  F: -2054.851186384675202  |grad|_K:  1.908e-06  alpha:  2.980e-01  linmin:  2.155e-05  t[s]:   9565.84
	FillingsUpdate:  mu: +0.123223285  nElectrons: 350.000000  magneticMoment: [ Abs: 40.07931  Tot: -0.00000 ]
	SubspaceRotationAdjust: set factor to 0.178
ElecMinimize: Iter: 106  F: -2054.851280664476235  |grad|_K:  1.807e-06  alpha:  1.514e-01  linmin:  4.169e-05  t[s]:   9640.51
	FillingsUpdate:  mu: +0.122754433  nElectrons: 350.000000  magneticMoment: [ Abs: 40.07384  Tot: -0.00000 ]
	SubspaceRotationAdjust: set factor to 0.185
ElecMinimize: Iter: 107  F: -2054.851426120520046  |grad|_K:  1.611e-06  alpha:  2.604e-01  linmin:  1.395e-04  t[s]:   9715.48
	FillingsUpdate:  mu: +0.122594503  nElectrons: 350.000000  magneticMoment: [ Abs: 40.06867  Tot: -0.00000 ]
	SubspaceRotationAdjust: set factor to 0.214
ElecMinimize: Iter: 108  F: -2054.851568748118098  |grad|_K:  1.617e-06  alpha:  3.240e-01  linmin:  4.394e-05  t[s]:   9790.12
	FillingsUpdate:  mu: +0.122620209  nElectrons: 350.000000  magneticMoment: [ Abs: 40.06403  Tot: -0.00000 ]
	SubspaceRotationAdjust: set factor to 0.231
ElecMinimize: Iter: 109  F: -2054.851703821988394  |grad|_K:  1.705e-06  alpha:  2.992e-01  linmin: -3.812e-05  t[s]:   9864.51
	FillingsUpdate:  mu: +0.122340958  nElectrons: 350.000000  magneticMoment: [ Abs: 40.05347  Tot: +0.00000 ]
	SubspaceRotationAdjust: set factor to 0.215
ElecMinimize: Iter: 110  F: -2054.851799900945025  |grad|_K:  1.880e-06  alpha:  1.826e-01  linmin: -6.730e-05  t[s]:   9938.51
	FillingsUpdate:  mu: +0.122494642  nElectrons: 350.000000  magneticMoment: [ Abs: 40.05041  Tot: +0.00000 ]
	SubspaceRotationAdjust: set factor to 0.25
ElecMinimize: Iter: 111  F: -2054.851918527414455  |grad|_K:  1.634e-06  alpha:  1.907e-01  linmin: -8.789e-05  t[s]:  10012.31
	FillingsUpdate:  mu: +0.122452039  nElectrons: 350.000000  magneticMoment: [ Abs: 40.04163  Tot: +0.00000 ]
	SubspaceRotationAdjust: set factor to 0.313
ElecMinimize: Iter: 112  F: -2054.852062349608786  |grad|_K:  1.675e-06  alpha:  3.029e-01  linmin: -7.613e-05  t[s]:  10085.72
	FillingsUpdate:  mu: +0.122208806  nElectrons: 350.000000  magneticMoment: [ Abs: 40.02625  Tot: +0.00000 ]
	SubspaceRotationAdjust: set factor to 0.238
ElecMinimize: Iter: 113  F: -2054.852180132802005  |grad|_K:  2.320e-06  alpha:  2.356e-01  linmin:  4.109e-05  t[s]:  10161.50
	FillingsUpdate:  mu: +0.122627145  nElectrons: 350.000000  magneticMoment: [ Abs: 40.02242  Tot: -0.00000 ]
	SubspaceRotationAdjust: set factor to 0.204
ElecMinimize: Iter: 114  F: -2054.852277610708370  |grad|_K:  1.816e-06  alpha:  1.090e-01  linmin:  1.036e-04  t[s]:  10235.82
	FillingsUpdate:  mu: +0.122607154  nElectrons: 350.000000  magneticMoment: [ Abs: 40.00621  Tot: +0.00000 ]
	SubspaceRotationAdjust: set factor to 0.255
ElecMinimize: Iter: 115  F: -2054.852433100656526  |grad|_K:  1.725e-06  alpha:  2.785e-01  linmin:  6.763e-05  t[s]:  10310.25
	FillingsUpdate:  mu: +0.122398229  nElectrons: 350.000000  magneticMoment: [ Abs: 39.99228  Tot: +0.00000 ]
	SubspaceRotationAdjust: set factor to 0.226
ElecMinimize: Iter: 116  F: -2054.852561841404167  |grad|_K:  2.092e-06  alpha:  2.514e-01  linmin:  3.260e-05  t[s]:  10384.16
	FillingsUpdate:  mu: +0.122822362  nElectrons: 350.000000  magneticMoment: [ Abs: 39.99374  Tot: -0.00000 ]
	SubspaceRotationAdjust: set factor to 0.191
ElecMinimize: Iter: 117  F: -2054.852655730666811  |grad|_K:  1.809e-06  alpha:  1.249e-01  linmin:  1.983e-05  t[s]:  10459.35
	FillingsUpdate:  mu: +0.122972878  nElectrons: 350.000000  magneticMoment: [ Abs: 39.98466  Tot: +0.00000 ]
	SubspaceRotationAdjust: set factor to 0.237
ElecMinimize: Iter: 118  F: -2054.852806537451215  |grad|_K:  1.693e-06  alpha:  2.666e-01  linmin:  3.290e-05  t[s]:  10534.63
	FillingsUpdate:  mu: +0.122704345  nElectrons: 350.000000  magneticMoment: [ Abs: 39.97340  Tot: +0.00000 ]
	SubspaceRotationAdjust: set factor to 0.227
ElecMinimize: Iter: 119  F: -2054.852935129004891  |grad|_K:  2.053e-06  alpha:  2.590e-01  linmin:  2.902e-05  t[s]:  10610.72
	FillingsUpdate:  mu: +0.122992921  nElectrons: 350.000000  magneticMoment: [ Abs: 39.97623  Tot: +0.00000 ]
	SubspaceRotationAdjust: set factor to 0.197
ElecMinimize: Iter: 120  F: -2054.853034344836942  |grad|_K:  1.858e-06  alpha:  1.366e-01  linmin:  1.365e-05  t[s]:  10685.77
	FillingsUpdate:  mu: +0.122800674  nElectrons: 350.000000  magneticMoment: [ Abs: 39.97111  Tot: -0.00000 ]
	SubspaceRotationAdjust: set factor to 0.243
ElecMinimize: Iter: 121  F: -2054.853186319650831  |grad|_K:  1.696e-06  alpha:  2.547e-01  linmin:  5.175e-05  t[s]:  10760.10
	FillingsUpdate:  mu: +0.122738527  nElectrons: 350.000000  magneticMoment: [ Abs: 39.96505  Tot: -0.00000 ]
	SubspaceRotationAdjust: set factor to 0.243
ElecMinimize: Iter: 122  F: -2054.853322336673045  |grad|_K:  2.023e-06  alpha:  2.745e-01  linmin:  5.146e-05  t[s]:  10835.32
	FillingsUpdate:  mu: +0.123156419  nElectrons: 350.000000  magneticMoment: [ Abs: 39.97030  Tot: +0.00000 ]
	SubspaceRotationAdjust: set factor to 0.211
ElecMinimize: Iter: 123  F: -2054.853416883802311  |grad|_K:  1.910e-06  alpha:  1.354e-01  linmin:  3.182e-05  t[s]:  10913.75
	FillingsUpdate:  mu: +0.123070931  nElectrons: 350.000000  magneticMoment: [ Abs: 39.96558  Tot: -0.00000 ]
	SubspaceRotationAdjust: set factor to 0.246
ElecMinimize: Iter: 124  F: -2054.853554067162349  |grad|_K:  1.667e-06  alpha:  2.185e-01  linmin:  6.997e-05  t[s]:  10990.30
	FillingsUpdate:  mu: +0.122941322  nElectrons: 350.000000  magneticMoment: [ Abs: 39.96412  Tot: +0.00000 ]
	SubspaceRotationAdjust: set factor to 0.298
ElecMinimize: Iter: 125  F: -2054.853691978963980  |grad|_K:  1.750e-06  alpha:  2.896e-01  linmin:  2.663e-05  t[s]:  11065.45
	FillingsUpdate:  mu: +0.123198418  nElectrons: 350.000000  magneticMoment: [ Abs: 39.96983  Tot: +0.00000 ]
	SubspaceRotationAdjust: set factor to 0.252
ElecMinimize: Iter: 126  F: -2054.853785652403076  |grad|_K:  2.077e-06  alpha:  1.789e-01  linmin:  1.090e-05  t[s]:  11140.55
	FillingsUpdate:  mu: +0.123016836  nElectrons: 350.000000  magneticMoment: [ Abs: 39.96328  Tot: -0.00000 ]
	SubspaceRotationAdjust: set factor to 0.222
ElecMinimize: Iter: 127  F: -2054.853878767228707  |grad|_K:  1.702e-06  alpha:  1.232e-01  linmin:  4.386e-06  t[s]:  11215.07
	FillingsUpdate:  mu: +0.123063628  nElectrons: 350.000000  magneticMoment: [ Abs: 39.96269  Tot: +0.00000 ]
	SubspaceRotationAdjust: set factor to 0.28
ElecMinimize: Iter: 128  F: -2054.854004890728902  |grad|_K:  1.539e-06  alpha:  2.497e-01  linmin: -2.347e-05  t[s]:  11292.02
	FillingsUpdate:  mu: +0.123116293  nElectrons: 350.000000  magneticMoment: [ Abs: 39.96349  Tot: +0.00000 ]
	SubspaceRotationAdjust: set factor to 0.321
ElecMinimize: Iter: 129  F: -2054.854119278344569  |grad|_K:  1.645e-06  alpha:  2.757e-01  linmin: -1.952e-05  t[s]:  11368.99
	FillingsUpdate:  mu: +0.122852713  nElectrons: 350.000000  magneticMoment: [ Abs: 39.95802  Tot: -0.00000 ]
	SubspaceRotationAdjust: set factor to 0.261
ElecMinimize: Iter: 130  F: -2054.854190982622185  |grad|_K:  1.989e-06  alpha:  1.495e-01  linmin: -2.946e-05  t[s]:  11445.27
	FillingsUpdate:  mu: +0.123273988  nElectrons: 350.000000  magneticMoment: [ Abs: 39.96297  Tot: -0.00000 ]
	SubspaceRotationAdjust: set factor to 0.263
ElecMinimize: Iter: 131  F: -2054.854282198227338  |grad|_K:  1.530e-06  alpha:  1.320e-01  linmin: -3.507e-05  t[s]:  11521.24
	FillingsUpdate:  mu: +0.123304873  nElectrons: 350.000000  magneticMoment: [ Abs: 39.96276  Tot: +0.00000 ]
	SubspaceRotationAdjust: set factor to 0.328
ElecMinimize: Iter: 132  F: -2054.854394581136148  |grad|_K:  1.460e-06  alpha:  2.754e-01  linmin:  6.242e-05  t[s]:  11597.29
	FillingsUpdate:  mu: +0.123110309  nElectrons: 350.000000  magneticMoment: [ Abs: 39.96118  Tot: -0.00000 ]
	SubspaceRotationAdjust: set factor to 0.329
ElecMinimize: Iter: 133  F: -2054.854487408283603  |grad|_K:  1.671e-06  alpha:  2.522e-01  linmin:  7.556e-05  t[s]:  11672.45
	FillingsUpdate:  mu: +0.123401168  nElectrons: 350.000000  magneticMoment: [ Abs: 39.96758  Tot: -0.00000 ]
	SubspaceRotationAdjust: set factor to 0.285
ElecMinimize: Iter: 134  F: -2054.854541925117246  |grad|_K:  1.786e-06  alpha:  1.165e-01  linmin:  8.544e-05  t[s]:  11747.42
	FillingsUpdate:  mu: +0.123394484  nElectrons: 350.000000  magneticMoment: [ Abs: 39.96614  Tot: -0.00000 ]
	SubspaceRotationAdjust: set factor to 0.297
ElecMinimize: Iter: 135  F: -2054.854621427838083  |grad|_K:  1.464e-06  alpha:  1.462e-01  linmin:  1.172e-04  t[s]:  11822.07
	FillingsUpdate:  mu: +0.123501734  nElectrons: 350.000000  magneticMoment: [ Abs: 39.97046  Tot: +0.00000 ]
	SubspaceRotationAdjust: set factor to 0.381
ElecMinimize: Iter: 136  F: -2054.854708979965835  |grad|_K:  1.362e-06  alpha:  2.384e-01  linmin: -5.450e-05  t[s]:  11895.54
	FillingsUpdate:  mu: +0.123393536  nElectrons: 350.000000  magneticMoment: [ Abs: 39.97476  Tot: +0.00000 ]
	SubspaceRotationAdjust: set factor to 0.477
ElecMinimize: Iter: 137  F: -2054.854794659374420  |grad|_K:  1.385e-06  alpha:  2.627e-01  linmin: -5.025e-06  t[s]:  11970.35
	FillingsUpdate:  mu: +0.123247160  nElectrons: 350.000000  magneticMoment: [ Abs: 39.97736  Tot: +0.00000 ]
	SubspaceRotationAdjust: set factor to 0.391
ElecMinimize: Iter: 138  F: -2054.854872527483622  |grad|_K:  1.850e-06  alpha:  2.326e-01  linmin:  1.978e-05  t[s]:  12044.74
	FillingsUpdate:  mu: +0.123544222  nElectrons: 350.000000  magneticMoment: [ Abs: 39.98574  Tot: -0.00000 ]
	SubspaceRotationAdjust: set factor to 0.308
ElecMinimize: Iter: 139  F: -2054.854912232393872  |grad|_K:  1.704e-06  alpha:  6.894e-02  linmin:  9.429e-05  t[s]:  12119.60
	FillingsUpdate:  mu: +0.123563142  nElectrons: 350.000000  magneticMoment: [ Abs: 39.99058  Tot: -0.00000 ]
	SubspaceRotationAdjust: set factor to 0.41
ElecMinimize: Iter: 140  F: -2054.854994865066146  |grad|_K:  1.347e-06  alpha:  1.682e-01  linmin:  4.212e-05  t[s]:  12195.15
	FillingsUpdate:  mu: +0.123389656  nElectrons: 350.000000  magneticMoment: [ Abs: 39.99284  Tot: -0.00000 ]
	SubspaceRotationAdjust: set factor to 0.325
ElecMinimize: Iter: 141  F: -2054.855059946947677  |grad|_K:  1.701e-06  alpha:  2.085e-01  linmin:  4.206e-05  t[s]:  12270.69
	FillingsUpdate:  mu: +0.123638427  nElectrons: 350.000000  magneticMoment: [ Abs: 40.00043  Tot: -0.00000 ]
	SubspaceRotationAdjust: set factor to 0.268
ElecMinimize: Iter: 142  F: -2054.855094125889991  |grad|_K:  1.377e-06  alpha:  6.977e-02  linmin:  6.546e-05  t[s]:  12345.66
	FillingsUpdate:  mu: +0.123668145  nElectrons: 350.000000  magneticMoment: [ Abs: 40.00638  Tot: +0.00000 ]
	SubspaceRotationAdjust: set factor to 0.391
ElecMinimize: Iter: 143  F: -2054.855159918781283  |grad|_K:  1.240e-06  alpha:  2.024e-01  linmin:  1.066e-05  t[s]:  12420.01
	FillingsUpdate:  mu: +0.123446733  nElectrons: 350.000000  magneticMoment: [ Abs: 40.00584  Tot: +0.00000 ]
	SubspaceRotationAdjust: set factor to 0.286
ElecMinimize: Iter: 144  F: -2054.855200412840986  |grad|_K:  1.673e-06  alpha:  1.513e-01  linmin:  6.485e-06  t[s]:  12495.40
	FillingsUpdate:  mu: +0.123650329  nElectrons: 350.000000  magneticMoment: [ Abs: 40.01290  Tot: +0.00000 ]
	SubspaceRotationAdjust: set factor to 0.3
ElecMinimize: Iter: 145  F: -2054.855245703123728  |grad|_K:  1.161e-06  alpha:  9.387e-02  linmin:  8.155e-06  t[s]:  12570.94
	FillingsUpdate:  mu: +0.123661466  nElectrons: 350.000000  magneticMoment: [ Abs: 40.01623  Tot: +0.00000 ]
	SubspaceRotationAdjust: set factor to 0.394
ElecMinimize: Iter: 146  F: -2054.855303833158359  |grad|_K:  1.183e-06  alpha:  2.477e-01  linmin: -1.639e-05  t[s]:  12644.84
	FillingsUpdate:  mu: +0.123471927  nElectrons: 350.000000  magneticMoment: [ Abs: 40.01364  Tot: -0.00000 ]
	SubspaceRotationAdjust: set factor to 0.296
ElecMinimize: Iter: 147  F: -2054.855338815808864  |grad|_K:  1.539e-06  alpha:  1.424e-01  linmin: -1.145e-05  t[s]:  12719.18
	FillingsUpdate:  mu: +0.123713339  nElectrons: 350.000000  magneticMoment: [ Abs: 40.01859  Tot: +0.00000 ]
	SubspaceRotationAdjust: set factor to 0.307
ElecMinimize: Iter: 148  F: -2054.855381537112862  |grad|_K:  1.119e-06  alpha:  1.039e-01  linmin: -1.139e-05  t[s]:  12793.96
	FillingsUpdate:  mu: +0.123623398  nElectrons: 350.000000  magneticMoment: [ Abs: 40.01997  Tot: -0.00000 ]
	SubspaceRotationAdjust: set factor to 0.4
ElecMinimize: Iter: 149  F: -2054.855436128378187  |grad|_K:  1.091e-06  alpha:  2.498e-01  linmin: -7.826e-06  t[s]:  12868.24
	FillingsUpdate:  mu: +0.123343304  nElectrons: 350.000000  magneticMoment: [ Abs: 40.01638  Tot: +0.00000 ]
	SubspaceRotationAdjust: set factor to 0.305
ElecMinimize: Iter: 150  F: -2054.855475882200608  |grad|_K:  1.487e-06  alpha:  1.912e-01  linmin:  7.119e-06  t[s]:  12942.99
	FillingsUpdate:  mu: +0.123481202  nElectrons: 350.000000  magneticMoment: [ Abs: 40.01931  Tot: -0.00000 ]
	SubspaceRotationAdjust: set factor to 0.262
ElecMinimize: Iter: 151  F: -2054.855507367127757  |grad|_K:  1.123e-06  alpha:  8.298e-02  linmin:  3.696e-05  t[s]:  13016.90
	FillingsUpdate:  mu: +0.123527652  nElectrons: 350.000000  magneticMoment: [ Abs: 40.01651  Tot: +0.00000 ]
	SubspaceRotationAdjust: set factor to 0.353
ElecMinimize: Iter: 152  F: -2054.855557021599907  |grad|_K:  1.042e-06  alpha:  2.279e-01  linmin: -2.006e-06  t[s]:  13091.46
	FillingsUpdate:  mu: +0.123369576  nElectrons: 350.000000  magneticMoment: [ Abs: 40.01165  Tot: -0.00000 ]
	SubspaceRotationAdjust: set factor to 0.284
ElecMinimize: Iter: 153  F: -2054.855592063569475  |grad|_K:  1.343e-06  alpha:  1.852e-01  linmin:  7.991e-06  t[s]:  13165.72
	FillingsUpdate:  mu: +0.123518380  nElectrons: 350.000000  magneticMoment: [ Abs: 40.01353  Tot: +0.00000 ]
	SubspaceRotationAdjust: set factor to 0.256
ElecMinimize: Iter: 154  F: -2054.855621888429141  |grad|_K:  1.009e-06  alpha:  9.605e-02  linmin:  2.180e-05  t[s]:  13239.18
	FillingsUpdate:  mu: +0.123421459  nElectrons: 350.000000  magneticMoment: [ Abs: 40.01003  Tot: -0.00000 ]
	SubspaceRotationAdjust: set factor to 0.339
ElecMinimize: Iter: 155  F: -2054.855664684073417  |grad|_K:  9.632e-07  alpha:  2.424e-01  linmin:  5.263e-06  t[s]:  13313.59
	FillingsUpdate:  mu: +0.123300190  nElectrons: 350.000000  magneticMoment: [ Abs: 40.00357  Tot: +0.00000 ]
	SubspaceRotationAdjust: set factor to 0.275
ElecMinimize: Iter: 156  F: -2054.855695438843668  |grad|_K:  1.222e-06  alpha:  1.900e-01  linmin:  1.427e-05  t[s]:  13388.25
	FillingsUpdate:  mu: +0.123473543  nElectrons: 350.000000  magneticMoment: [ Abs: 40.00358  Tot: -0.00000 ]
	SubspaceRotationAdjust: set factor to 0.254
ElecMinimize: Iter: 157  F: -2054.855721555322361  |grad|_K:  9.402e-07  alpha:  1.016e-01  linmin:  2.115e-05  t[s]:  13463.10
	FillingsUpdate:  mu: +0.123491423  nElectrons: 350.000000  magneticMoment: [ Abs: 39.99954  Tot: +0.00000 ]
	SubspaceRotationAdjust: set factor to 0.338
ElecMinimize: Iter: 158  F: -2054.855758634158974  |grad|_K:  8.825e-07  alpha:  2.420e-01  linmin:  1.022e-05  t[s]:  13538.23
	FillingsUpdate:  mu: +0.123350094  nElectrons: 350.000000  magneticMoment: [ Abs: 39.99466  Tot: -0.00000 ]
	SubspaceRotationAdjust: set factor to 0.273
ElecMinimize: Iter: 159  F: -2054.855785268676300  |grad|_K:  1.114e-06  alpha:  1.962e-01  linmin:  2.333e-05  t[s]:  13613.12
	FillingsUpdate:  mu: +0.123451445  nElectrons: 350.000000  magneticMoment: [ Abs: 39.99576  Tot: +0.00000 ]
	SubspaceRotationAdjust: set factor to 0.25
ElecMinimize: Iter: 160  F: -2054.855806579091677  |grad|_K:  8.740e-07  alpha:  1.000e-01  linmin:  3.049e-05  t[s]:  13687.99
	FillingsUpdate:  mu: +0.123471813  nElectrons: 350.000000  magneticMoment: [ Abs: 39.99210  Tot: +0.00000 ]
	SubspaceRotationAdjust: set factor to 0.332
ElecMinimize: Iter: 161  F: -2054.855838252096873  |grad|_K:  8.223e-07  alpha:  2.397e-01  linmin:  1.938e-05  t[s]:  13762.69
	FillingsUpdate:  mu: +0.123401448  nElectrons: 350.000000  magneticMoment: [ Abs: 39.98789  Tot: +0.00000 ]
	SubspaceRotationAdjust: set factor to 0.27
ElecMinimize: Iter: 162  F: -2054.855861262851249  |grad|_K:  1.042e-06  alpha:  1.955e-01  linmin:  2.083e-05  t[s]:  13838.25
	FillingsUpdate:  mu: +0.123502429  nElectrons: 350.000000  magneticMoment: [ Abs: 39.99023  Tot: -0.00000 ]
	SubspaceRotationAdjust: set factor to 0.249
ElecMinimize: Iter: 163  F: -2054.855880135862208  |grad|_K:  8.130e-07  alpha:  1.010e-01  linmin:  2.098e-05  t[s]:  13913.40
	FillingsUpdate:  mu: +0.123453299  nElectrons: 350.000000  magneticMoment: [ Abs: 39.99062  Tot: -0.00000 ]
	SubspaceRotationAdjust: set factor to 0.327
ElecMinimize: Iter: 164  F: -2054.855907790086803  |grad|_K:  7.793e-07  alpha:  2.414e-01  linmin:  9.137e-06  t[s]:  13988.47
	FillingsUpdate:  mu: +0.123388148  nElectrons: 350.000000  magneticMoment: [ Abs: 39.98831  Tot: -0.00000 ]
	SubspaceRotationAdjust: set factor to 0.268
ElecMinimize: Iter: 165  F: -2054.855928300998130  |grad|_K:  9.972e-07  alpha:  1.938e-01  linmin:  1.316e-05  t[s]:  14064.22
	FillingsUpdate:  mu: +0.123516757  nElectrons: 350.000000  magneticMoment: [ Abs: 39.99125  Tot: -0.00000 ]
	SubspaceRotationAdjust: set factor to 0.248
ElecMinimize: Iter: 166  F: -2054.855946185097764  |grad|_K:  7.778e-07  alpha:  1.041e-01  linmin:  1.110e-05  t[s]:  14139.58
	FillingsUpdate:  mu: +0.123542928  nElectrons: 350.000000  magneticMoment: [ Abs: 39.99254  Tot: -0.00000 ]
	SubspaceRotationAdjust: set factor to 0.329
ElecMinimize: Iter: 167  F: -2054.855971596641211  |grad|_K:  7.468e-07  alpha:  2.420e-01  linmin:  8.453e-06  t[s]:  14214.78
	FillingsUpdate:  mu: +0.123425954  nElectrons: 350.000000  magneticMoment: [ Abs: 39.99279  Tot: +0.00000 ]
	SubspaceRotationAdjust: set factor to 0.268
ElecMinimize: Iter: 168  F: -2054.855989920922184  |grad|_K:  9.508e-07  alpha:  1.887e-01  linmin:  6.680e-06  t[s]:  14289.82
	FillingsUpdate:  mu: +0.123466681  nElectrons: 350.000000  magneticMoment: [ Abs: 39.99869  Tot: +0.00000 ]
	SubspaceRotationAdjust: set factor to 0.253
ElecMinimize: Iter: 169  F: -2054.856006615861588  |grad|_K:  7.561e-07  alpha:  1.065e-01  linmin:  5.195e-06  t[s]:  14364.76
	FillingsUpdate:  mu: +0.123452463  nElectrons: 350.000000  magneticMoment: [ Abs: 40.00352  Tot: -0.00000 ]
	SubspaceRotationAdjust: set factor to 0.336
ElecMinimize: Iter: 170  F: -2054.856031298879316  |grad|_K:  7.453e-07  alpha:  2.483e-01  linmin:  4.364e-06  t[s]:  14439.79
	FillingsUpdate:  mu: +0.123409902  nElectrons: 350.000000  magneticMoment: [ Abs: 40.00442  Tot: +0.00000 ]
	SubspaceRotationAdjust: set factor to 0.274
ElecMinimize: Iter: 171  F: -2054.856049947682095  |grad|_K:  9.577e-07  alpha:  1.928e-01  linmin:  4.539e-06  t[s]:  14514.61
	FillingsUpdate:  mu: +0.123507784  nElectrons: 350.000000  magneticMoment: [ Abs: 40.01019  Tot: -0.00000 ]
	SubspaceRotationAdjust: set factor to 0.253
ElecMinimize: Iter: 172  F: -2054.856066294852099  |grad|_K:  7.609e-07  alpha:  1.027e-01  linmin:  6.337e-06  t[s]:  14590.50
	FillingsUpdate:  mu: +0.123463427  nElectrons: 350.000000  magneticMoment: [ Abs: 40.01570  Tot: -0.00000 ]
	SubspaceRotationAdjust: set factor to 0.333
ElecMinimize: Iter: 173  F: -2054.856090649187081  |grad|_K:  7.377e-07  alpha:  2.420e-01  linmin:  6.268e-06  t[s]:  14666.70
	FillingsUpdate:  mu: +0.123365903  nElectrons: 350.000000  magneticMoment: [ Abs: 40.01832  Tot: -0.00000 ]
	SubspaceRotationAdjust: set factor to 0.277
ElecMinimize: Iter: 174  F: -2054.856109097470380  |grad|_K:  9.385e-07  alpha:  1.947e-01  linmin:  6.955e-06  t[s]:  14741.61
	FillingsUpdate:  mu: +0.123453803  nElectrons: 350.000000  magneticMoment: [ Abs: 40.02505  Tot: +0.00000 ]
	SubspaceRotationAdjust: set factor to 0.251
ElecMinimize: Iter: 175  F: -2054.856124536705465  |grad|_K:  7.410e-07  alpha:  1.013e-01  linmin:  1.471e-05  t[s]:  14816.93
	FillingsUpdate:  mu: +0.123478189  nElectrons: 350.000000  magneticMoment: [ Abs: 40.03022  Tot: -0.00000 ]
	SubspaceRotationAdjust: set factor to 0.33
ElecMinimize: Iter: 176  F: -2054.856146870135035  |grad|_K:  6.955e-07  alpha:  2.343e-01  linmin:  5.917e-06  t[s]:  14891.52
	FillingsUpdate:  mu: +0.123395061  nElectrons: 350.000000  magneticMoment: [ Abs: 40.03218  Tot: -0.00000 ]
	SubspaceRotationAdjust: set factor to 0.283
ElecMinimize: Iter: 177  F: -2054.856163502950039  |grad|_K:  8.700e-07  alpha:  1.974e-01  linmin:  1.347e-05  t[s]:  14967.52
	FillingsUpdate:  mu: +0.123450560  nElectrons: 350.000000  magneticMoment: [ Abs: 40.03784  Tot: +0.00000 ]
	SubspaceRotationAdjust: set factor to 0.252
ElecMinimize: Iter: 178  F: -2054.856176659776793  |grad|_K:  6.972e-07  alpha:  1.008e-01  linmin:  1.855e-05  t[s]:  15043.24
	FillingsUpdate:  mu: +0.123422234  nElectrons: 350.000000  magneticMoment: [ Abs: 40.04205  Tot: +0.00000 ]
	SubspaceRotationAdjust: set factor to 0.334
ElecMinimize: Iter: 179  F: -2054.856195945274521  |grad|_K:  6.413e-07  alpha:  2.288e-01  linmin:  7.221e-06  t[s]:  15119.28
	FillingsUpdate:  mu: +0.123387124  nElectrons: 350.000000  magneticMoment: [ Abs: 40.04317  Tot: +0.00000 ]
	SubspaceRotationAdjust: set factor to 0.285
ElecMinimize: Iter: 180  F: -2054.856210638878565  |grad|_K:  8.024e-07  alpha:  2.053e-01  linmin:  1.512e-05  t[s]:  15196.30
	FillingsUpdate:  mu: +0.123474883  nElectrons: 350.000000  magneticMoment: [ Abs: 40.04741  Tot: -0.00000 ]
	SubspaceRotationAdjust: set factor to 0.253
ElecMinimize: Iter: 181  F: -2054.856221616046696  |grad|_K:  6.571e-07  alpha:  9.917e-02  linmin:  2.839e-05  t[s]:  15274.72
	FillingsUpdate:  mu: +0.123435780  nElectrons: 350.000000  magneticMoment: [ Abs: 40.04988  Tot: -0.00000 ]
	SubspaceRotationAdjust: set factor to 0.338
ElecMinimize: Iter: 182  F: -2054.856238210925312  |grad|_K:  5.934e-07  alpha:  2.224e-01  linmin:  2.263e-05  t[s]:  15353.64
	FillingsUpdate:  mu: +0.123341961  nElectrons: 350.000000  magneticMoment: [ Abs: 40.05062  Tot: -0.00000 ]
	SubspaceRotationAdjust: set factor to 0.28
ElecMinimize: Iter: 183  F: -2054.856251083293955  |grad|_K:  7.504e-07  alpha:  2.107e-01  linmin:  2.328e-05  t[s]:  15430.97
	FillingsUpdate:  mu: +0.123407040  nElectrons: 350.000000  magneticMoment: [ Abs: 40.05432  Tot: +0.00000 ]
	SubspaceRotationAdjust: set factor to 0.253
ElecMinimize: Iter: 184  F: -2054.856260516216025  |grad|_K:  6.188e-07  alpha:  9.753e-02  linmin:  3.436e-05  t[s]:  15508.17
	FillingsUpdate:  mu: +0.123410318  nElectrons: 350.000000  magneticMoment: [ Abs: 40.05610  Tot: -0.00000 ]
	SubspaceRotationAdjust: set factor to 0.341
ElecMinimize: Iter: 185  F: -2054.856275515126072  |grad|_K:  5.811e-07  alpha:  2.264e-01  linmin:  8.357e-06  t[s]:  15583.91
	FillingsUpdate:  mu: +0.123346662  nElectrons: 350.000000  magneticMoment: [ Abs: 40.05555  Tot: +0.00000 ]
	SubspaceRotationAdjust: set factor to 0.273
ElecMinimize: Iter: 186  F: -2054.856287236906610  |grad|_K:  7.650e-07  alpha:  1.995e-01  linmin:  1.851e-05  t[s]:  15659.71
	FillingsUpdate:  mu: +0.123407112  nElectrons: 350.000000  magneticMoment: [ Abs: 40.05843  Tot: -0.00000 ]
	SubspaceRotationAdjust: set factor to 0.255
ElecMinimize: Iter: 187  F: -2054.856297230724067  |grad|_K:  5.997e-07  alpha:  9.911e-02  linmin:  2.303e-05  t[s]:  15737.70
	FillingsUpdate:  mu: +0.123401157  nElectrons: 350.000000  magneticMoment: [ Abs: 40.05960  Tot: -0.00000 ]
	SubspaceRotationAdjust: set factor to 0.337
ElecMinimize: Iter: 188  F: -2054.856312447795062  |grad|_K:  6.036e-07  alpha:  2.441e-01  linmin:  9.228e-06  t[s]:  15817.38
	FillingsUpdate:  mu: +0.123349044  nElectrons: 350.000000  magneticMoment: [ Abs: 40.05846  Tot: +0.00000 ]
	SubspaceRotationAdjust: set factor to 0.277
ElecMinimize: Iter: 189  F: -2054.856323612300457  |grad|_K:  7.793e-07  alpha:  1.758e-01  linmin:  4.185e-06  t[s]:  15896.95
	FillingsUpdate:  mu: +0.123455469  nElectrons: 350.000000  magneticMoment: [ Abs: 40.06129  Tot: +0.00000 ]
	SubspaceRotationAdjust: set factor to 0.273
ElecMinimize: Iter: 190  F: -2054.856335526855673  |grad|_K:  6.119e-07  alpha:  1.132e-01  linmin:  1.927e-06  t[s]:  15975.30
	FillingsUpdate:  mu: +0.123452736  nElectrons: 350.000000  magneticMoment: [ Abs: 40.06242  Tot: +0.00000 ]
	SubspaceRotationAdjust: set factor to 0.35
ElecMinimize: Iter: 191  F: -2054.856352145628534  |grad|_K:  6.231e-07  alpha:  2.550e-01  linmin:  1.870e-06  t[s]:  16053.13
	FillingsUpdate:  mu: +0.123350658  nElectrons: 350.000000  magneticMoment: [ Abs: 40.06104  Tot: -0.00000 ]
[...]
	SubspaceRotationAdjust: set factor to 0.166
ElecMinimize: Iter:  22  F: -2054.894092877842922  |grad|_K:  7.318e-08  alpha:  4.020e-01  linmin: -8.225e-06  t[s]:  60749.54
	FillingsUpdate:  mu: +0.116776135  nElectrons: 350.000000  magneticMoment: [ Abs: 40.65282  Tot: -0.00000 ]
	SubspaceRotationAdjust: set factor to 0.193
ElecMinimize: Iter:  23  F: -2054.894093265709671  |grad|_K:  6.302e-08  alpha:  4.156e-01  linmin:  8.447e-06  t[s]:  60823.90
	FillingsUpdate:  mu: +0.116776667  nElectrons: 350.000000  magneticMoment: [ Abs: 40.65314  Tot: -0.00000 ]
	SubspaceRotationAdjust: set factor to 0.235
ElecMinimize: Iter:  24  F: -2054.894093552734830  |grad|_K:  5.749e-08  alpha:  4.153e-01  linmin: -1.682e-05  t[s]:  60898.47
	FillingsUpdate:  mu: +0.116769598  nElectrons: 350.000000  magneticMoment: [ Abs: 40.65358  Tot: -0.00000 ]
	SubspaceRotationAdjust: set factor to 0.279
ElecMinimize: Iter:  25  F: -2054.894093829693247  |grad|_K:  6.017e-08  alpha:  4.799e-01  linmin: -1.475e-05  t[s]:  60972.98
ElecMinimize: Converged (|Delta F|<1.000000e-06 for 5 iters).
Setting wave functions to eigenvectors of Hamiltonian

# Ionic positions in lattice coordinates:
ion Ni  -0.001365234671204  -0.000832489975303   0.156850686389561 1
ion Ni  -0.249696612839100   0.250826024997261   0.048214967868626 1
ion Ni   0.000000000000000   0.000000000000000  -0.050000000000000 0
ion Ni   0.500000000000000   0.000000000000000  -0.050000000000000 0
ion Ni  -0.250000000000000   0.250000000000000  -0.150000000000000 0
ion V   0.500011390372727   0.002725465688924   0.153478464679606 1
ion V  -0.007219973059702   0.498819666258419   0.156404167813362 1
ion V   0.498656845644471   0.500365355425130   0.150606419303211 1
ion V   0.251162986429801   0.757728550765001   0.051884404106002 1
ion V   0.250000000000000   0.750000000000000  -0.150000000000000 0
ion Cr   0.249112522755551   0.249727579795973   0.049578873356775 1
ion Cr   0.000000000000000   0.500000000000000  -0.050000000000000 0
ion Cr  -0.250000000000000   0.750000000000000  -0.150000000000000 0
ion Co  -0.246159577768423   0.770058290927066   0.048612434098192 1
ion Co   0.500000000000000   0.500000000000000  -0.050000000000000 0
ion Co   0.250000000000000   0.250000000000000  -0.150000000000000 0
ion O   0.245409294966194   0.250142259507670   0.144242833052651 1
ion O   0.244797878891223   0.755948320626198   0.150785249578161 1
ion O  -0.256078915054435   0.246478616778351   0.146283533392871 1
ion O  -0.256971521893069   0.753433242857172   0.146093793796617 1
ion O   0.008092243093086   0.018762350239252   0.048507264777441 1
ion O   0.491011365981569   0.019698176855877   0.052355908310200 1
ion O   0.009084543012387   0.490063672636076   0.047193079130660 1
ion O   0.490852421532519   0.487199016382911   0.050822532279401 1
ion O   0.250000000000000   0.250000000000000  -0.050000000000000 0
ion O   0.250000000000000   0.750000000000000  -0.050000000000000 0
ion O  -0.250000000000000   0.250000000000000  -0.050000000000000 0
ion O  -0.250000000000000   0.750000000000000  -0.050000000000000 0
ion O   0.000000000000000   0.000000000000000  -0.150000000000000 0
ion O   0.500000000000000   0.000000000000000  -0.150000000000000 0
ion O   0.000000000000000   0.500000000000000  -0.150000000000000 0
ion O   0.500000000000000   0.500000000000000  -0.150000000000000 0
ion O  -0.002715281695553   0.010482706035948   0.242071585680111 1

# Forces in Lattice coordinates:
force Ni  -0.009216762203014   0.002800424305451   0.045793973835938 1
force Ni   0.000502467733811   0.002701367420657   0.033308311093301 1
force Ni  -0.065019553043505   0.067823626163157  -0.625528886392578 0
force Ni   0.072628605124316   0.070162211856159  -0.530718270360722 0
force Ni  -0.011121845371193  -0.059817900801895  -0.327980032801762 0
force V   0.006641057376261  -0.003593410167394   0.006699557967440 1
force V  -0.004340777821002   0.001558813254862   0.019504125685495 1
force V   0.005252318561649   0.003640737807683   0.027174559949525 1
force V   0.000027299950528   0.004145394157209  -0.028826004449809 1
force V   0.051272162206141   0.071238521948973  -0.247651179986755 0
force Cr  -0.015079854072157  -0.007817889405357   0.001850966431992 1
force Cr  -0.114417946344831  -0.087324088487393  -0.814010550140586 0
force Cr  -0.029013461355918   0.086730961491572  -1.514280631167337 0
force Co   0.002619915339420   0.003589509614989  -0.051090141748523 1
force Co   0.095558668292557  -0.073239125240588  -0.506534341684716 0
force Co   0.065097947674960  -0.079904148726436  -0.471032253945015 0
force O  -0.001416165710408   0.004224411855712  -0.024070756242001 1
force O  -0.003914805201500  -0.002756717805442   0.020648105074980 1
force O  -0.000537515450775   0.005950432208039  -0.011963133400415 1
force O  -0.000298268892239  -0.000587081184667  -0.010346840561953 1
force O   0.002208845030005   0.003866385525580   0.006629128427237 1
force O  -0.000560342611187   0.002037462786577   0.011343879308890 1
force O   0.001941646283978   0.004553193701046  -0.025397081268705 1
force O   0.003816326881904   0.004145022559741  -0.020408030879080 1
force O  -0.165501470801860   0.065575685636197   0.722056365514235 0
force O  -0.151699840625676  -0.048075652114847   0.120919982607169 0
force O   0.149805403501627   0.047874029386370   0.899503322288294 0
force O   0.161166442316790  -0.070880643854770   1.340834399964532 0
force O  -0.026330017637079   0.010575545902163   0.412675371266443 0
force O  -0.028491247894550  -0.018302706060288   0.346870949825561 0
force O   0.012370045901038  -0.001408630434712   0.808809655790956 0
force O  -0.008486387692078   0.005917735281692   0.153735863609208 0
force O  -0.011363013724468   0.000437653207701  -0.014154708130036 1

# Energy components:
   Eewald =     5720.2808607383321942
       EH =     7569.9524166852970666
     Eloc =   -15490.8579600711782405
      Enl =     -549.1291165197903865
   Epulay =       -0.0004839299775536
      Exc =     -249.4444030547616933
       KE =      942.9731246531367788
        U =        1.3321620943997594
-------------------------------------
     Etot =    -2054.8933994045419240
       TS =        0.0006944251513327
-------------------------------------
        F =    -2054.8940938296932472

IonicMinimize: Iter:  11  F: -2054.894093829693247  |grad|_K:  4.977e-04  alpha:  1.000e+00  linmin:  4.056e-03  t[s]:  60998.09

#--- Lowdin population analysis ---
# oxidation-state Ni +3.747 +3.515 +3.495 +3.425 +3.425
# magnetic-moments Ni -0.932 +0.964 -0.944 +0.884 -0.569
# oxidation-state V +1.173 +1.134 +1.106 +0.939 +1.081
# magnetic-moments V -2.736 +2.955 -2.843 +2.940 -2.852
# oxidation-state Cr +2.947 +2.913 +2.961
# magnetic-moments Cr +3.120 -1.308 +3.884
# oxidation-state Co +1.275 +1.239 +1.321
# magnetic-moments Co -2.773 +2.714 -2.820
# oxidation-state O -0.821 -0.888 -0.844 -0.930 -0.805 -0.823 -0.840 -0.887 -0.840 -0.831 -0.743 -0.871 -0.844 -0.858 -0.858 -0.947 -0.508
# magnetic-moments O -0.144 -0.105 +0.054 -0.108 -0.092 +0.088 +0.050 +0.054 -0.048 +0.049 +0.220 +0.002 -0.273 +0.056 -0.022 -0.056 +0.649


-------- Electronic minimization -----------
	FillingsUpdate:  mu: +0.124670437  nElectrons: 350.000000  magneticMoment: [ Abs: 40.65418  Tot: -0.00000 ]
ElecMinimize: Iter:   0  F: -2054.817191729484875  |grad|_K:  4.586e-05  alpha:  1.000e+00
	FillingsUpdate:  mu: +0.119160659  nElectrons: 350.000000  magneticMoment: [ Abs: 40.65384  Tot: +0.00000 ]
	SubspaceRotationAdjust: set factor to 0.311
ElecMinimize: Iter:   1  F: -2054.888107231287449  |grad|_K:  8.826e-06  alpha:  1.951e-01  linmin:  2.313e-03  t[s]:  61126.83
	FillingsUpdate:  mu: +0.118487489  nElectrons: 350.000000  magneticMoment: [ Abs: 40.65199  Tot: -0.00000 ]
	SubspaceRotationAdjust: set factor to 0.355
ElecMinimize: Iter:   2  F: -2054.891740384766308  |grad|_K:  4.217e-06  alpha:  2.697e-01  linmin: -9.401e-05  t[s]:  61200.86
	FillingsUpdate:  mu: +0.117383526  nElectrons: 350.000000  magneticMoment: [ Abs: 40.64886  Tot: +0.00000 ]
	SubspaceRotationAdjust: set factor to 0.219
ElecMinimize: Iter:   3  F: -2054.892368168541452  |grad|_K:  4.597e-06  alpha:  1.987e-01  linmin:  1.701e-04  t[s]:  61274.98
	FillingsUpdate:  mu: +0.116606159  nElectrons: 350.000000  magneticMoment: [ Abs: 40.64980  Tot: +0.00000 ]
	SubspaceRotationAdjust: set factor to 0.21
ElecMinimize: Iter:   4  F: -2054.892932934083092  |grad|_K:  2.583e-06  alpha:  1.559e-01  linmin: -9.960e-05  t[s]:  61349.39
	FillingsUpdate:  mu: +0.116461608  nElectrons: 350.000000  magneticMoment: [ Abs: 40.65024  Tot: +0.00000 ]
	SubspaceRotationAdjust: set factor to 0.282
ElecMinimize: Iter:   5  F: -2054.893443819428740  |grad|_K:  2.099e-06  alpha:  4.363e-01  linmin: -2.660e-06  t[s]:  61424.04
	FillingsUpdate:  mu: +0.117392501  nElectrons: 350.000000  magneticMoment: [ Abs: 40.65023  Tot: +0.00000 ]
	SubspaceRotationAdjust: set factor to 0.191
ElecMinimize: Iter:   6  F: -2054.893729868451373  |grad|_K:  2.581e-06  alpha:  3.715e-01  linmin:  5.898e-05  t[s]:  61498.57
	FillingsUpdate:  mu: +0.116615832  nElectrons: 350.000000  magneticMoment: [ Abs: 40.65245  Tot: +0.00000 ]
	SubspaceRotationAdjust: set factor to 0.125
ElecMinimize: Iter:   7  F: -2054.893906991298536  |grad|_K:  1.445e-06  alpha:  1.590e-01  linmin:  1.730e-04  t[s]:  61573.05
	FillingsUpdate:  mu: +0.116594214  nElectrons: 350.000000  magneticMoment: [ Abs: 40.65331  Tot: +0.00000 ]
	SubspaceRotationAdjust: set factor to 0.158
ElecMinimize: Iter:   8  F: -2054.894037363886582  |grad|_K:  1.076e-06  alpha:  3.659e-01  linmin: -5.084e-07  t[s]:  61646.79
	FillingsUpdate:  mu: +0.116750178  nElectrons: 350.000000  magneticMoment: [ Abs: 40.65334  Tot: +0.00000 ]
	SubspaceRotationAdjust: set factor to 0.144
ElecMinimize: Iter:   9  F: -2054.894092474124136  |grad|_K:  6.899e-07  alpha:  2.732e-01  linmin:  4.356e-06  t[s]:  61719.87
	FillingsUpdate:  mu: +0.116642844  nElectrons: 350.000000  magneticMoment: [ Abs: 40.65369  Tot: +0.00000 ]
	SubspaceRotationAdjust: set factor to 0.126
ElecMinimize: Iter:  10  F: -2054.894118125633213  |grad|_K:  4.563e-07  alpha:  3.096e-01  linmin: -1.055e-05  t[s]:  61793.92
	FillingsUpdate:  mu: +0.116716162  nElectrons: 350.000000  magneticMoment: [ Abs: 40.65367  Tot: -0.00000 ]
	SubspaceRotationAdjust: set factor to 0.133
ElecMinimize: Iter:  11  F: -2054.894130246556870  |grad|_K:  3.193e-07  alpha:  3.341e-01  linmin:  4.138e-06  t[s]:  61867.30
	FillingsUpdate:  mu: +0.116720127  nElectrons: 350.000000  magneticMoment: [ Abs: 40.65372  Tot: +0.00000 ]
	SubspaceRotationAdjust: set factor to 0.155
ElecMinimize: Iter:  12  F: -2054.894135902038670  |grad|_K:  2.394e-07  alpha:  3.186e-01  linmin:  2.418e-07  t[s]:  61941.12
	FillingsUpdate:  mu: +0.116690703  nElectrons: 350.000000  magneticMoment: [ Abs: 40.65380  Tot: -0.00000 ]
	SubspaceRotationAdjust: set factor to 0.17
ElecMinimize: Iter:  13  F: -2054.894139452967465  |grad|_K:  1.919e-07  alpha:  3.559e-01  linmin:  1.011e-06  t[s]:  62015.42
	FillingsUpdate:  mu: +0.116734122  nElectrons: 350.000000  magneticMoment: [ Abs: 40.65375  Tot: -0.00000 ]
	SubspaceRotationAdjust: set factor to 0.174
ElecMinimize: Iter:  14  F: -2054.894141809917528  |grad|_K:  1.711e-07  alpha:  3.677e-01  linmin:  4.687e-06  t[s]:  62089.77
	FillingsUpdate:  mu: +0.116701023  nElectrons: 350.000000  magneticMoment: [ Abs: 40.65386  Tot: +0.00000 ]
	SubspaceRotationAdjust: set factor to 0.181
ElecMinimize: Iter:  15  F: -2054.894143758724113  |grad|_K:  1.504e-07  alpha:  3.823e-01  linmin:  5.116e-07  t[s]:  62163.72
	FillingsUpdate:  mu: +0.116718269  nElectrons: 350.000000  magneticMoment: [ Abs: 40.65390  Tot: -0.00000 ]
	SubspaceRotationAdjust: set factor to 0.198
ElecMinimize: Iter:  16  F: -2054.894145246090375  |grad|_K:  1.279e-07  alpha:  3.777e-01  linmin: -3.351e-08  t[s]:  62238.16
	FillingsUpdate:  mu: +0.116720737  nElectrons: 350.000000  magneticMoment: [ Abs: 40.65400  Tot: -0.00000 ]
	SubspaceRotationAdjust: set factor to 0.221
ElecMinimize: Iter:  17  F: -2054.894146370984345  |grad|_K:  1.033e-07  alpha:  3.947e-01  linmin: -2.075e-06  t[s]:  62312.28
	FillingsUpdate:  mu: +0.116709258  nElectrons: 350.000000  magneticMoment: [ Abs: 40.65413  Tot: -0.00000 ]
	SubspaceRotationAdjust: set factor to 0.229
ElecMinimize: Iter:  18  F: -2054.894147022470406  |grad|_K:  8.314e-08  alpha:  3.507e-01  linmin: -6.937e-07  t[s]:  62386.49
	FillingsUpdate:  mu: +0.116727897  nElectrons: 350.000000  magneticMoment: [ Abs: 40.65420  Tot: -0.00000 ]
	SubspaceRotationAdjust: set factor to 0.194
ElecMinimize: Iter:  19  F: -2054.894147373145643  |grad|_K:  6.891e-08  alpha:  2.912e-01  linmin: -1.908e-06  t[s]:  62461.39
	FillingsUpdate:  mu: +0.116711287  nElectrons: 350.000000  magneticMoment: [ Abs: 40.65430  Tot: -0.00000 ]
	SubspaceRotationAdjust: set factor to 0.145
ElecMinimize: Iter:  20  F: -2054.894147564655668  |grad|_K:  5.215e-08  alpha:  2.318e-01  linmin: -5.147e-06  t[s]:  62535.68
	FillingsUpdate:  mu: +0.116720681  nElectrons: 350.000000  magneticMoment: [ Abs: 40.65437  Tot: -0.00000 ]
	SubspaceRotationAdjust: set factor to 0.162
ElecMinimize: Iter:  21  F: -2054.894147708469518  |grad|_K:  3.833e-08  alpha:  3.027e-01  linmin:  5.974e-06  t[s]:  62610.12
	FillingsUpdate:  mu: +0.116723814  nElectrons: 350.000000  magneticMoment: [ Abs: 40.65444  Tot: +0.00000 ]
	SubspaceRotationAdjust: set factor to 0.189
ElecMinimize: Iter:  22  F: -2054.894147796757807  |grad|_K:  3.287e-08  alpha:  3.449e-01  linmin: -5.877e-05  t[s]:  62684.12
ElecMinimize: Converged (|Delta F|<1.000000e-06 for 5 iters).
Setting wave functions to eigenvectors of Hamiltonian

# Ionic positions in lattice coordinates:
ion Ni  -0.001875199206416  -0.000495353136270   0.157197466792384 1
ion Ni  -0.250057572157701   0.251111246437636   0.048254706281835 1
ion Ni   0.000000000000000   0.000000000000000  -0.050000000000000 0
ion Ni   0.500000000000000   0.000000000000000  -0.050000000000000 0
ion Ni  -0.250000000000000   0.250000000000000  -0.150000000000000 0
ion V   0.500149667570057   0.002782197519002   0.153538800479394 1
ion V  -0.007619816773039   0.498907961800994   0.156520182178003 1
ion V   0.498672469737567   0.500565879417348   0.150711791975390 1
ion V   0.251018503596560   0.758078915584231   0.051890167985370 1
ion V   0.250000000000000   0.750000000000000  -0.150000000000000 0
ion Cr   0.248569563013708   0.249771216448691   0.049629169265907 1
ion Cr   0.000000000000000   0.500000000000000  -0.050000000000000 0
ion Cr  -0.250000000000000   0.750000000000000  -0.150000000000000 0
ion Co  -0.246230266031648   0.770322946412067   0.048513844456972 1
ion Co   0.500000000000000   0.500000000000000  -0.050000000000000 0
ion Co   0.250000000000000   0.250000000000000  -0.150000000000000 0
ion O   0.245126781758251   0.250449787066281   0.144287794645161 1
ion O   0.244281096596638   0.756163390405329   0.150921936905032 1
ion O  -0.256275421520361   0.246777648313299   0.146304152494235 1
ion O  -0.257162426970127   0.753700770191295   0.146070602504086 1
ion O   0.008080575368862   0.019282379680911   0.048382592599123 1
ion O   0.490872314354901   0.020101704276878   0.052466674177357 1
ion O   0.009012711282927   0.490372561072857   0.047186267816259 1
ion O   0.490866700361005   0.487626813257494   0.050866870731361 1
ion O   0.250000000000000   0.250000000000000  -0.050000000000000 0
ion O   0.250000000000000   0.750000000000000  -0.050000000000000 0
ion O  -0.250000000000000   0.250000000000000  -0.050000000000000 0
ion O  -0.250000000000000   0.750000000000000  -0.050000000000000 0
ion O   0.000000000000000   0.000000000000000  -0.150000000000000 0
ion O   0.500000000000000   0.000000000000000  -0.150000000000000 0
ion O   0.000000000000000   0.500000000000000  -0.150000000000000 0
ion O   0.500000000000000   0.500000000000000  -0.150000000000000 0
ion O  -0.003891915226453   0.010759266497381   0.242431932880875 1

# Forces in Lattice coordinates:
force Ni  -0.005337884821462  -0.000363810401780   0.026030345737929 1
force Ni   0.004032914350873   0.002310853031799   0.047232375742289 1
force Ni  -0.065381521268775   0.068963667147662  -0.603121223701430 0
force Ni   0.072684740225099   0.071428893835966  -0.507057589933105 0
force Ni  -0.011078508887770  -0.059638500074588  -0.322880519088715 0
force V  -0.004202645520010   0.002153471993355   0.014251023758989 1
force V  -0.004656289741932   0.006327652390488   0.005110050504143 1
force V  -0.003758316811066   0.007119558936336   0.033781882826389 1
force V  -0.004456693070713   0.006042046158701   0.004294766260024 1
force V   0.051128994010891   0.071481896297019  -0.245226698083469 0
force Cr  -0.006595087647360  -0.002068218081161  -0.000148313512831 1
force Cr  -0.114251149625953  -0.087697011282860  -0.805382951318605 0
force Cr  -0.028917269506582   0.086589769722715  -1.513360547647159 0
force Co   0.000724389008007   0.003603038061368  -0.020163381751205 1
force Co   0.094838649241573  -0.074068091896050  -0.490411869467831 0
force Co   0.064742702772721  -0.079823278105194  -0.465990105822520 0
force O  -0.000425105891272   0.002775201193751  -0.021845418743695 1
force O  -0.001406734752085  -0.001012812901706   0.005140914291744 1
force O   0.000969592243716   0.004065346332400  -0.015078761734911 1
force O   0.002503861529865  -0.000405081356450  -0.009472090856567 1
force O  -0.001762867522586   0.000477221768163   0.001117133331469 1
force O  -0.000182637298371   0.000144945268889   0.008300322872513 1
force O   0.000322296175763   0.003073289702291  -0.023655184183680 1
force O   0.000817702527504   0.002744085376836  -0.014937772015287 1
force O  -0.165376525848649   0.066080478069337   0.722901116615504 0
force O  -0.151138326744810  -0.048177411861685   0.122560058539397 0
force O   0.149160022255607   0.048188555117952   0.911706179326681 0
force O   0.160947927358813  -0.070599148625940   1.338344184026897 0
force O  -0.025585122878357   0.009722310980677   0.411016803032576 0
force O  -0.029046494750443  -0.018936666576697   0.345865921508138 0
force O   0.012811714868033  -0.000879465892941   0.807202390049326 0
force O  -0.009004701853466   0.006473096685152   0.152601562784598 0
force O  -0.010786426668373   0.001500200681041  -0.010313634033604 1

# Energy components:
   Eewald =     5716.3563928952762581
       EH =     7566.0228005825083528
     Eloc =   -15482.9993599055014784
      Enl =     -549.1271172452893552
   Epulay =       -0.0004839299775536
      Exc =     -249.4417704624357270
       KE =      942.9639162029276349
        U =        1.3321674064196709
-------------------------------------
     Etot =    -2054.8934544560734139
       TS =        0.0006933406842683
-------------------------------------
        F =    -2054.8941477967578066

IonicMinimize: Iter:  12  F: -2054.894147796757807  |grad|_K:  3.866e-04  alpha:  1.000e+00  linmin: -1.614e-02  t[s]:  62709.42
IonicMinimize: Converged (|Delta F|<1.000000e-04 for 3 iters).

#--- Lowdin population analysis ---
# oxidation-state Ni +3.750 +3.516 +3.495 +3.425 +3.424
# magnetic-moments Ni -0.933 +0.964 -0.944 +0.884 -0.568
# oxidation-state V +1.173 +1.134 +1.107 +0.940 +1.081
# magnetic-moments V -2.736 +2.955 -2.843 +2.941 -2.851
# oxidation-state Cr +2.947 +2.913 +2.961
# magnetic-moments Cr +3.120 -1.309 +3.884
# oxidation-state Co +1.275 +1.239 +1.321
# magnetic-moments Co -2.773 +2.714 -2.820
# oxidation-state O -0.822 -0.888 -0.844 -0.930 -0.804 -0.823 -0.840 -0.888 -0.841 -0.831 -0.743 -0.872 -0.845 -0.858 -0.858 -0.947 -0.508
# magnetic-moments O -0.144 -0.105 +0.054 -0.108 -0.093 +0.088 +0.050 +0.054 -0.049 +0.049 +0.221 +0.002 -0.272 +0.056 -0.022 -0.056 +0.648


Dumping 'run.ionpos' ... done
Dumping 'run.lattice' ... done
Dumping 'run.Ecomponents' ... done
End date and time: Wed May  7 08:20:39 2025  (Duration: 0-17:25:15.89)
Done!
