
*************** JDFTx 1.7.0  ***************

Start date and time: Fri May 16 21:18:33 2025
Executable /data2/jt577/jdftx_eat_withLibXC/build/jdftx with command-line: -i /data2/jt577/May_2025/Relax_Mag_litU/rel1+1_6/OH/runs/calc_/run.in
Running on hosts (process indices):  node3303 (0-8)
Divided in process groups (process indices):  0 (0)  1 (1)  2 (2)  3 (3)  4 (4)  5 (5)  6 (6)  7 (7)  8 (8)
Resource initialization completed at t[s]:      0.00
Run totals: 9 processes, 63 threads, 0 GPUs


Input parsed successfully to the following command list (including defaults):

add-mix 
add-U 	Ni d 0.235196 \
	V d 0.113923 \
	Co d 0.121273 \
	Cr d 0.128623
basis kpoint-dependent
coords-type Lattice
core-overlap-check vector
coulomb-interaction Periodic
davidson-band-ratio 1.1
dump End IonicPositions Lattice Ecomponents
dump-name run.$VAR
elec-cutoff 30
elec-eigen-algo Davidson
elec-ex-corr gga-x-rpbe gga-c-pbe
elec-smearing Fermi 0.001
electronic-minimize  \
	dirUpdateScheme      FletcherReeves \
	linminMethod         DirUpdateRecommended \
	nIterations          1000 \
	history              15 \
	knormThreshold       0 \
	energyDiffThreshold  1e-06 \
	nEnergyDiff          5 \
	alphaTstart          1 \
	alphaTmin            1e-10 \
	updateTestStepSize   yes \
	alphaTreduceFactor   0.1 \
	alphaTincreaseFactor 3 \
	nAlphaAdjustMax      3 \
	wolfeEnergy          0.0001 \
	wolfeGradient        0.9 \
	fdTest               no
exchange-regularization WignerSeitzTruncated
fluid None
fluid-ex-corr (null) lda-PZ
fluid-gummel-loop 10 1.000000e-05
fluid-minimize  \
	dirUpdateScheme      PolakRibiere \
	linminMethod         DirUpdateRecommended \
	nIterations          100 \
	history              15 \
	knormThreshold       0 \
	energyDiffThreshold  0 \
	nEnergyDiff          2 \
	alphaTstart          1 \
	alphaTmin            1e-10 \
	updateTestStepSize   yes \
	alphaTreduceFactor   0.1 \
	alphaTincreaseFactor 3 \
	nAlphaAdjustMax      3 \
	wolfeEnergy          0.0001 \
	wolfeGradient        0.9 \
	fdTest               no
fluid-solvent H2O 55.338 ScalarEOS \
	epsBulk 78.4 \
	pMol 0.92466 \
	epsInf 1.77 \
	Pvap 1.06736e-10 \
	sigmaBulk 4.62e-05 \
	Rvdw 2.61727 \
	Res 1.42 \
	tauNuc 343133 \
	poleEl 15 7 1
forces-output-coords Positions
initial-magnetic-moments  \
	Ni 1 -1 1 \
	V -1 1 -1 1 1 -1 -1 \
	Co 1 -1 -1 -1 1 \
	Cr 1
initial-state run.$VAR
ion Ni  0.000000000000000   0.000000000000000   0.150000000000000 1
ion Ni  0.000000000000000   0.000000000000000  -0.050000000000000 0
ion Ni -0.250000000000000   0.250000000000000  -0.150000000000000 0
ion V  0.500000000000000   0.000000000000000   0.150000000000000 1
ion V  0.000000000000000   0.500000000000000   0.150000000000000 1
ion V  0.500000000000000   0.500000000000000   0.150000000000000 1
ion V  0.250000000000000   0.250000000000000   0.050000000000000 1
ion V  0.250000000000000   0.750000000000000   0.050000000000000 1
ion V -0.250000000000000   0.250000000000000   0.050000000000000 1
ion V -0.250000000000000   0.750000000000000   0.050000000000000 1
ion Co  0.500000000000000   0.000000000000000  -0.050000000000000 0
ion Co  0.000000000000000   0.500000000000000  -0.050000000000000 0
ion Co  0.250000000000000   0.250000000000000  -0.150000000000000 0
ion Co  0.250000000000000   0.750000000000000  -0.150000000000000 0
ion Co -0.250000000000000   0.750000000000000  -0.150000000000000 0
ion Cr  0.500000000000000   0.500000000000000  -0.050000000000000 0
ion O  0.250000000000000   0.250000000000000   0.150000000000000 1
ion O  0.250000000000000   0.750000000000000   0.150000000000000 1
ion O -0.250000000000000   0.250000000000000   0.150000000000000 1
ion O -0.250000000000000   0.750000000000000   0.150000000000000 1
ion O  0.000000000000000   0.000000000000000   0.050000000000000 1
ion O  0.500000000000000   0.000000000000000   0.050000000000000 1
ion O  0.000000000000000   0.500000000000000   0.050000000000000 1
ion O  0.500000000000000   0.500000000000000   0.050000000000000 1
ion O  0.250000000000000   0.250000000000000  -0.050000000000000 0
ion O  0.250000000000000   0.750000000000000  -0.050000000000000 0
ion O -0.250000000000000   0.250000000000000  -0.050000000000000 0
ion O -0.250000000000000   0.750000000000000  -0.050000000000000 0
ion O  0.000000000000000   0.000000000000000  -0.150000000000000 0
ion O  0.500000000000000   0.000000000000000  -0.150000000000000 0
ion O  0.000000000000000   0.500000000000000  -0.150000000000000 0
ion O  0.500000000000000   0.500000000000000  -0.150000000000000 0
ion O -0.008040138212305  -0.008269777577920   0.235000196603227 1
ion H  0.095742872057713   0.094897636790041   0.252810710255288 1
ion-species SG15/$ID_ONCV_PBE.upf
ion-width 0
ionic-minimize  \
	dirUpdateScheme      L-BFGS \
	linminMethod         DirUpdateRecommended \
	nIterations          1000 \
	history              15 \
	knormThreshold       0.0001 \
	energyDiffThreshold  0.0001 \
	nEnergyDiff          3 \
	alphaTstart          1 \
	alphaTmin            1e-10 \
	updateTestStepSize   yes \
	alphaTreduceFactor   0.1 \
	alphaTincreaseFactor 3 \
	nAlphaAdjustMax      3 \
	wolfeEnergy          0.0001 \
	wolfeGradient        0.9 \
	fdTest               no
kpoint   0.500000000000   0.500000000000   0.500000000000  1.00000000000000
kpoint-folding 3 3 1 
latt-move-scale 1 1 1
latt-scale 1 1 1 
lattice  \
	   8.140000000000001    8.140000000000001    0.000000000000000  \
	   8.140000000000001   -8.140000000000001    0.000000000000000  \
	   0.000000000000000    0.000000000000000   40.700000000000003 
lattice-minimize  \
	dirUpdateScheme      L-BFGS \
	linminMethod         DirUpdateRecommended \
	nIterations          0 \
	history              15 \
	knormThreshold       0 \
	energyDiffThreshold  1e-06 \
	nEnergyDiff          2 \
	alphaTstart          1 \
	alphaTmin            1e-10 \
	updateTestStepSize   yes \
	alphaTreduceFactor   0.1 \
	alphaTincreaseFactor 3 \
	nAlphaAdjustMax      3 \
	wolfeEnergy          0.0001 \
	wolfeGradient        0.9 \
	fdTest               no
lcao-params -1 1e-06 0.001
pcm-variant GLSSA13
spintype z-spin
subspace-rotation-factor 1 yes
symmetries none
symmetry-threshold 0.0001


Applied RMS atom displacement 0 bohrs to make symmetries exact.

---------- Initializing the Grid ----------
R = 
[         8.14         8.14            0  ]
[         8.14        -8.14            0  ]
[            0            0         40.7  ]
unit cell volume = 5393.53
G =
[   0.385945   0.385945         -0  ]
[   0.385945  -0.385945         -0  ]
[         -0         -0   0.154378  ]
Minimum fftbox size, Smin = [  60  60  204  ]
Chosen fftbox size, S = [  60  60  210  ]

---------- Exchange Correlation functional ----------
Initialized LibXC exchange functional 'Hammer, Hansen, and Norskov'
Initialized LibXC correlation functional 'Perdew, Burke & Ernzerhof'

---------- Setting up pseudopotentials ----------
Width of ionic core gaussian charges (only for fluid interactions / plotting) set to 0

Reading pseudopotential file '/data2/jt577/jdftx_eat_withLibXC/build/pseudopotentials/SG15/Ni_ONCV_PBE.upf':
  'Ni' pseudopotential, 'PBE' functional
  Generated using ONCVPSP code by D. R. Hamann
  Author: Martin Schlipf and Francois Gygi  Date: 150915.
  18 valence electrons, 4 orbitals, 6 projectors, 1292 radial grid points, with lMax = 2
  Transforming local potential to a uniform radial grid of dG=0.02 with 1419 points.
  Transforming nonlocal projectors to a uniform radial grid of dG=0.02 with 528 points.
    3S    l: 0   occupation:  2.0   eigenvalue: -4.081355
    3P    l: 1   occupation:  6.0   eigenvalue: -2.623460
    4S    l: 0   occupation:  2.0   eigenvalue: -0.207378
    3D    l: 2   occupation:  8.0   eigenvalue: -0.326118
  Transforming atomic orbitals to a uniform radial grid of dG=0.02 with 528 points.
  WARNING: large normalization error in atomic orbital 1s (integral: 0.000006).
  Core radius for overlap checks: 1.99 bohrs.
  Reading pulay file /data2/jt577/jdftx_eat_withLibXC/build/pseudopotentials/SG15/Ni_ONCV_PBE.pulay ... using dE_dnG = -7.250568e-04 computed for Ecut = 30.

Reading pseudopotential file '/data2/jt577/jdftx_eat_withLibXC/build/pseudopotentials/SG15/V_ONCV_PBE.upf':
  'V' pseudopotential, 'PBE' functional
  Generated using ONCVPSP code by D. R. Hamann
  Author: Martin Schlipf and Francois Gygi  Date: 150915.
  13 valence electrons, 4 orbitals, 6 projectors, 1536 radial grid points, with lMax = 2
  Transforming local potential to a uniform radial grid of dG=0.02 with 1419 points.
  Transforming nonlocal projectors to a uniform radial grid of dG=0.02 with 528 points.
    3S    l: 0   occupation:  2.0   eigenvalue: -2.581105
    3P    l: 1   occupation:  6.0   eigenvalue: -1.618486
    4S    l: 0   occupation:  2.0   eigenvalue: -0.172804
    3D    l: 2   occupation:  3.0   eigenvalue: -0.189795
  Transforming atomic orbitals to a uniform radial grid of dG=0.02 with 528 points.
  Core radius for overlap checks: 1.80 bohrs.
  Reading pulay file /data2/jt577/jdftx_eat_withLibXC/build/pseudopotentials/SG15/V_ONCV_PBE.pulay ... using dE_dnG = -1.698632e-04 computed for Ecut = 30.

Reading pseudopotential file '/data2/jt577/jdftx_eat_withLibXC/build/pseudopotentials/SG15/Co_ONCV_PBE.upf':
  'Co' pseudopotential, 'PBE' functional
  Generated using ONCVPSP code by D. R. Hamann
  Author: Martin Schlipf and Francois Gygi  Date: 150915.
  17 valence electrons, 4 orbitals, 6 projectors, 1388 radial grid points, with lMax = 2
  Transforming local potential to a uniform radial grid of dG=0.02 with 1419 points.
  Transforming nonlocal projectors to a uniform radial grid of dG=0.02 with 528 points.
    3S    l: 0   occupation:  2.0   eigenvalue: -3.763303
    3P    l: 1   occupation:  6.0   eigenvalue: -2.412101
    4S    l: 0   occupation:  2.0   eigenvalue: -0.201022
    3D    l: 2   occupation:  7.0   eigenvalue: -0.301498
  Transforming atomic orbitals to a uniform radial grid of dG=0.02 with 528 points.
  Core radius for overlap checks: 1.94 bohrs.
  Reading pulay file /data2/jt577/jdftx_eat_withLibXC/build/pseudopotentials/SG15/Co_ONCV_PBE.pulay ... using dE_dnG = -9.787391e-05 computed for Ecut = 30.

Reading pseudopotential file '/data2/jt577/jdftx_eat_withLibXC/build/pseudopotentials/SG15/Cr_ONCV_PBE.upf':
  'Cr' pseudopotential, 'PBE' functional
  Generated using ONCVPSP code by D. R. Hamann
  Author: Martin Schlipf and Francois Gygi  Date: 150915.
  14 valence electrons, 4 orbitals, 6 projectors, 1160 radial grid points, with lMax = 2
  Transforming local potential to a uniform radial grid of dG=0.02 with 1419 points.
  Transforming nonlocal projectors to a uniform radial grid of dG=0.02 with 528 points.
    3S    l: 0   occupation:  2.0   eigenvalue: -2.865131
    3P    l: 1   occupation:  6.0   eigenvalue: -1.810600
    4S    l: 0   occupation:  2.0   eigenvalue: -0.180525
    3D    l: 2   occupation:  4.0   eigenvalue: -0.220312
  Transforming atomic orbitals to a uniform radial grid of dG=0.02 with 528 points.
  WARNING: large normalization error in atomic orbital 1s (integral: 0.000001).
  Core radius for overlap checks: 2.10 bohrs.
  Reading pulay file /data2/jt577/jdftx_eat_withLibXC/build/pseudopotentials/SG15/Cr_ONCV_PBE.pulay ... using dE_dnG = -9.817895e-06 computed for Ecut = 30.

Reading pseudopotential file '/data2/jt577/jdftx_eat_withLibXC/build/pseudopotentials/SG15/O_ONCV_PBE.upf':
  'O' pseudopotential, 'PBE' functional
  Generated using ONCVPSP code by D. R. Hamann
  Author: Martin Schlipf and Francois Gygi  Date: 150915.
  6 valence electrons, 2 orbitals, 4 projectors, 936 radial grid points, with lMax = 1
  Transforming local potential to a uniform radial grid of dG=0.02 with 1419 points.
  Transforming nonlocal projectors to a uniform radial grid of dG=0.02 with 528 points.
    2S    l: 0   occupation:  2.0   eigenvalue: -0.880572
    2P    l: 1   occupation:  4.0   eigenvalue: -0.331869
  Transforming atomic orbitals to a uniform radial grid of dG=0.02 with 528 points.
  Core radius for overlap checks: 1.29 bohrs.
  Reading pulay file /data2/jt577/jdftx_eat_withLibXC/build/pseudopotentials/SG15/O_ONCV_PBE.pulay ... using dE_dnG = -8.209514e-03 computed for Ecut = 30.

Reading pseudopotential file '/data2/jt577/jdftx_eat_withLibXC/build/pseudopotentials/SG15/H_ONCV_PBE.upf':
  'H' pseudopotential, 'PBE' functional
  Generated using ONCVPSP code by D. R. Hamann
  Author: Martin Schlipf and Francois Gygi  Date: 150915.
  1 valence electrons, 1 orbitals, 2 projectors, 1166 radial grid points, with lMax = 0
  Transforming local potential to a uniform radial grid of dG=0.02 with 1419 points.
  Transforming nonlocal projectors to a uniform radial grid of dG=0.02 with 528 points.
    1S    l: 0   occupation:  1.0   eigenvalue: -0.238602
  Transforming atomic orbitals to a uniform radial grid of dG=0.02 with 528 points.
  Core radius for overlap checks: 1.01 bohrs.
  Reading pulay file /data2/jt577/jdftx_eat_withLibXC/build/pseudopotentials/SG15/H_ONCV_PBE.pulay ... using dE_dnG = -8.245991e-05 computed for Ecut = 30.

Initialized 6 species with 34 total atoms.

Folded 1 k-points by 3x3x1 to 9 k-points.

---------- Setting up k-points, bands, fillings ----------
No reducable k-points. 
Computing the number of bands and number of electrons
Calculating initial fillings.
nElectrons: 347.000000   nBands: 229   nStates: 18

----- Setting up reduced wavefunction bases (one per k-point) -----
average nbasis = 42312.000 , ideal nbasis = 42330.081

---------- Setting up ewald sum ----------
Optimum gaussian width for ewald sums = 3.887061 bohr.
Real space sum over 605 unit cells with max indices [  5  5  2  ]
Reciprocal space sum over 5915 terms with max indices [  6  6  17  ]

---------- Allocating electronic variables ----------
Initializing wave functions:  linear combination of atomic orbitals
Ni (M=1) pseudo-atom majority spin occupations:   s ( 1 0.5 )  p ( 3 )  d ( 5 )
Ni (M=1) pseudo-atom minority spin occupations:   s ( 1 0 )  p ( 3 )  d ( 4.5 )
V (M=1) pseudo-atom majority spin occupations:   s ( 1 0 )  p ( 3 )  d ( 3 )
V (M=1) pseudo-atom minority spin occupations:   s ( 1 0 )  p ( 3 )  d ( 2 )
Co (M=1) pseudo-atom majority spin occupations:   s ( 1 0 )  p ( 3 )  d ( 5 )
Co (M=1) pseudo-atom minority spin occupations:   s ( 1 0 )  p ( 3 )  d ( 4 )
Cr (M=1) pseudo-atom majority spin occupations:   s ( 1 0 )  p ( 3 )  d ( 3.5 )
Cr (M=1) pseudo-atom minority spin occupations:   s ( 1 0 )  p ( 3 )  d ( 2.5 )
O pseudo-atom occupations:   s ( 2 )  p ( 4 )
H pseudo-atom occupations:   s ( 1 )
	FillingsUpdate:  mu: +1.945492946  nElectrons: 347.000000  magneticMoment: [ Abs: 5.87888  Tot: -0.00000 ]
LCAOMinimize: Iter:   0  F: -1834.8027923206595915  |grad|_K:  7.249e-02  alpha:  1.000e+00
LCAOMinimize: 	Step increased F by 3.658687e+02, reducing alpha to 4.471073e-02.
	FillingsUpdate:  mu: +2.195671659  nElectrons: 347.000000  magneticMoment: [ Abs: 2.04444  Tot: -0.00000 ]
LCAOMinimize: Iter:   1  F: -1835.2916622849015766  |grad|_K:  3.026e-02  alpha:  4.471e-02  linmin:  1.225e-02  cgtest: -1.965e+00  t[s]:     80.54
LCAOMinimize: 	Wrong curvature in test step, increasing alphaT to 1.341322e-01.
	FillingsUpdate:  mu: +2.641000692  nElectrons: 347.000000  magneticMoment: [ Abs: 8.17869  Tot: -0.00000 ]
LCAOMinimize: Iter:   2  F: -1882.3616871828676267  |grad|_K:  1.678e-02  alpha: -4.317e-02  linmin: -6.074e-03  cgtest:  2.984e-02  t[s]:    100.89
LCAOMinimize: 	Step increased F by 4.994045e+02, reducing alpha to 1.052797e-02.
	FillingsUpdate:  mu: +2.504184417  nElectrons: 347.000000  magneticMoment: [ Abs: 7.91676  Tot: -0.00000 ]
LCAOMinimize: Iter:   3  F: -1885.5914478157562826  |grad|_K:  1.621e-02  alpha:  1.053e-02  linmin: -4.195e-02  cgtest:  5.410e-01  t[s]:    137.80
LCAOMinimize: 	Wrong curvature in test step, increasing alphaT to 3.158392e-02.
	FillingsUpdate:  mu: +2.118226979  nElectrons: 347.000000  magneticMoment: [ Abs: 8.49158  Tot: +0.00000 ]
LCAOMinimize: Iter:   4  F: -1892.3337243782762016  |grad|_K:  2.201e-02  alpha: -6.377e-03  linmin: -3.991e-02  cgtest:  6.629e-01  t[s]:    157.47
LCAOMinimize: 	Step increased F by 8.922681e+02, reducing alpha to 2.527594e-02.
LCAOMinimize: 	Step increased F by 1.819253e+02, reducing alpha to 2.527594e-03.
	FillingsUpdate:  mu: +1.886011964  nElectrons: 347.000000  magneticMoment: [ Abs: 8.95771  Tot: +0.00000 ]
LCAOMinimize: Iter:   5  F: -1895.1862142490260794  |grad|_K:  3.595e-02  alpha:  2.528e-03  linmin: -4.649e-02  cgtest:  5.610e-01  t[s]:    209.30
	FillingsUpdate:  mu: +0.839381042  nElectrons: 347.000000  magneticMoment: [ Abs: 10.72591  Tot: -0.00000 ]
LCAOMinimize: Iter:   6  F: -1906.7492361289439486  |grad|_K:  2.776e-02  alpha:  3.844e-03  linmin:  2.671e-02  cgtest: -5.411e-01  t[s]:    230.24
LCAOMinimize: 	Bad step direction: g.d > 0.
LCAOMinimize: 	Undoing step.
LCAOMinimize: 	Step failed: resetting search direction.
	FillingsUpdate:  mu: +0.839381042  nElectrons: 347.000000  magneticMoment: [ Abs: 10.72591  Tot: -0.00000 ]
LCAOMinimize: Iter:   7  F: -1906.7492361289439486  |grad|_K:  2.776e-02  alpha:  0.000e+00
LCAOMinimize: 	Wrong curvature in test step, increasing alphaT to 1.153086e-02.
	FillingsUpdate:  mu: +0.686601859  nElectrons: 347.000000  magneticMoment: [ Abs: 11.46444  Tot: -0.00000 ]
LCAOMinimize: Iter:   8  F: -1910.4897922820496206  |grad|_K:  2.807e-02  alpha: -5.888e-03  linmin: -6.765e-02  cgtest:  7.741e-01  t[s]:    265.50
LCAOMinimize: 	Step increased F by 2.515884e+02, reducing alpha to 2.918397e-02.
LCAOMinimize: 	Step increased F by 5.174138e+00, reducing alpha to 2.918397e-03.
	FillingsUpdate:  mu: +0.697414779  nElectrons: 347.000000  magneticMoment: [ Abs: 11.77463  Tot: +0.00000 ]
LCAOMinimize: Iter:   9  F: -1912.7565501443352787  |grad|_K:  2.285e-02  alpha:  2.918e-03  linmin: -8.459e-02  cgtest:  9.584e-01  t[s]:    316.98
LCAOMinimize: Encountered beta<0, resetting CG.
LCAOMinimize: 	Wrong curvature in test step, increasing alphaT to 8.755191e-03.
	FillingsUpdate:  mu: +0.668556352  nElectrons: 347.000000  magneticMoment: [ Abs: 12.42143  Tot: -0.00000 ]
LCAOMinimize: Iter:  10  F: -1915.0731465356566332  |grad|_K:  2.815e-02  alpha: -2.445e-03  linmin: -8.403e-02  cgtest:  7.310e-01  t[s]:    336.33
LCAOMinimize: 	Step increased F by 4.860992e+02, reducing alpha to 2.927565e-02.
LCAOMinimize: 	Step increased F by 1.480328e+01, reducing alpha to 2.927565e-03.
	FillingsUpdate:  mu: +0.571770796  nElectrons: 347.000000  magneticMoment: [ Abs: 13.94284  Tot: -0.00000 ]
LCAOMinimize: Iter:  11  F: -1919.7418143995469109  |grad|_K:  2.999e-02  alpha:  2.928e-03  linmin: -1.019e-01  cgtest:  7.516e-01  t[s]:    387.09
	FillingsUpdate:  mu: +0.444757255  nElectrons: 347.000000  magneticMoment: [ Abs: 15.39127  Tot: -0.00000 ]
LCAOMinimize: Iter:  12  F: -1925.1729564701768140  |grad|_K:  1.842e-02  alpha:  5.540e-03  linmin: -1.030e-01  cgtest:  1.097e+00  t[s]:    407.76
LCAOMinimize: Encountered beta<0, resetting CG.
LCAOMinimize: 	Predicted alpha/alphaT>3.000000, increasing alphaT to 1.661969e-02.
LCAOMinimize: 	Step increased F by 2.473928e+00, reducing alpha to 4.019982e-03.
	FillingsUpdate:  mu: +0.397192666  nElectrons: 347.000000  magneticMoment: [ Abs: 15.83888  Tot: -0.00000 ]
LCAOMinimize: Iter:  13  F: -1926.3600214925781984  |grad|_K:  1.617e-02  alpha:  4.020e-03  linmin: -1.098e-01  cgtest:  9.979e-01  t[s]:    449.49
LCAOMinimize: Encountered beta<0, resetting CG.
LCAOMinimize: 	Wrong curvature in test step, increasing alphaT to 1.205995e-02.
	FillingsUpdate:  mu: +0.344779698  nElectrons: 347.000000  magneticMoment: [ Abs: 16.29347  Tot: -0.00000 ]
LCAOMinimize: Iter:  14  F: -1927.4232201202332817  |grad|_K:  1.584e-02  alpha: -3.204e-02  linmin: -9.581e-02  cgtest:  8.819e-01  t[s]:    469.25
LCAOMinimize: 	Step increased F by 5.448375e+01, reducing alpha to 1.286591e-02.
	FillingsUpdate:  mu: +0.050579446  nElectrons: 347.000000  magneticMoment: [ Abs: 17.74468  Tot: +0.00000 ]
LCAOMinimize: Iter:  15  F: -1929.8684121408307419  |grad|_K:  1.059e-02  alpha:  1.287e-02  linmin: -2.500e-02  cgtest:  4.031e-01  t[s]:    505.05
LCAOMinimize: 	Predicted alpha/alphaT>3.000000, increasing alphaT to 3.859773e-02.
	FillingsUpdate:  mu: +0.157436794  nElectrons: 347.000000  magneticMoment: [ Abs: 20.02527  Tot: +0.00000 ]
LCAOMinimize: Iter:  16  F: -1931.6016135719985414  |grad|_K:  1.666e-02  alpha:  2.910e-02  linmin:  2.271e-03  cgtest:  7.846e-02  t[s]:    531.71
LCAOMinimize: 	Predicted alpha/alphaT>3.000000, increasing alphaT to 8.729130e-02.
	FillingsUpdate:  mu: +0.136905501  nElectrons: 347.000000  magneticMoment: [ Abs: 20.07085  Tot: -0.00000 ]
LCAOMinimize: Iter:  17  F: -1933.0540795863532821  |grad|_K:  1.611e-02  alpha:  5.841e-03  linmin: -2.651e-02  cgtest:  9.713e-01  t[s]:    558.53
LCAOMinimize: Encountered beta<0, resetting CG.
	FillingsUpdate:  mu: +0.022694837  nElectrons: 347.000000  magneticMoment: [ Abs: 18.53626  Tot: -0.00000 ]
LCAOMinimize: Iter:  18  F: -1934.3088323635995494  |grad|_K:  1.155e-02  alpha:  1.043e-02  linmin:  5.974e-03  cgtest: -8.194e-02  t[s]:    579.39
LCAOMinimize: 	Predicted alpha/alphaT>3.000000, increasing alphaT to 3.129966e-02.
LCAOMinimize: 	Predicted alpha/alphaT>3.000000, increasing alphaT to 9.389898e-02.
	FillingsUpdate:  mu: +0.113623538  nElectrons: 347.000000  magneticMoment: [ Abs: 17.75301  Tot: -0.00000 ]
LCAOMinimize: Iter:  19  F: -1939.0223555414327166  |grad|_K:  1.054e-02  alpha:  4.307e-02  linmin: -4.718e-02  cgtest:  3.804e-01  t[s]:    612.23
	FillingsUpdate:  mu: +0.070571499  nElectrons: 347.000000  magneticMoment: [ Abs: 18.95690  Tot: +0.00000 ]
LCAOMinimize: Iter:  20  F: -1940.5934416588615932  |grad|_K:  9.290e-03  alpha:  1.681e-02  linmin: -1.565e-02  cgtest: -1.562e-02  t[s]:    633.35
	FillingsUpdate:  mu: -0.005758486  nElectrons: 347.000000  magneticMoment: [ Abs: 17.88134  Tot: +0.00000 ]
LCAOMinimize: Iter:  21  F: -1941.3267431440433484  |grad|_K:  5.500e-03  alpha:  1.380e-02  linmin:  4.004e-03  cgtest:  2.347e-01  t[s]:    654.27
LCAOMinimize: 	Predicted alpha/alphaT>3.000000, increasing alphaT to 4.138595e-02.
	FillingsUpdate:  mu: +0.172376807  nElectrons: 347.000000  magneticMoment: [ Abs: 18.69768  Tot: -0.00000 ]
LCAOMinimize: Iter:  22  F: -1941.8706310157019743  |grad|_K:  7.016e-03  alpha:  3.818e-02  linmin:  2.809e-03  cgtest: -4.770e-02  t[s]:    680.68
	FillingsUpdate:  mu: +0.165938413  nElectrons: 347.000000  magneticMoment: [ Abs: 18.47162  Tot: -0.00000 ]
LCAOMinimize: Iter:  23  F: -1942.0626712667515221  |grad|_K:  5.710e-03  alpha:  5.199e-03  linmin: -2.406e-02  cgtest:  9.540e-01  t[s]:    701.41
LCAOMinimize: Encountered beta<0, resetting CG.
	FillingsUpdate:  mu: +0.085343478  nElectrons: 347.000000  magneticMoment: [ Abs: 18.10979  Tot: +0.00000 ]
LCAOMinimize: Iter:  24  F: -1942.3349860656123838  |grad|_K:  3.543e-03  alpha:  1.545e-02  linmin: -4.287e-02  cgtest:  3.224e-01  t[s]:    722.26
	FillingsUpdate:  mu: +0.117364498  nElectrons: 347.000000  magneticMoment: [ Abs: 19.06626  Tot: -0.00000 ]
LCAOMinimize: Iter:  25  F: -1942.4886601027371853  |grad|_K:  3.648e-03  alpha:  2.160e-02  linmin: -1.434e-02  cgtest: -6.122e-02  t[s]:    743.39
	FillingsUpdate:  mu: +0.127288963  nElectrons: 347.000000  magneticMoment: [ Abs: 19.29644  Tot: -0.00000 ]
LCAOMinimize: Iter:  26  F: -1942.6182960453570558  |grad|_K:  2.449e-03  alpha:  1.268e-02  linmin: -4.635e-03  cgtest:  2.452e-01  t[s]:    764.41
LCAOMinimize: 	Predicted alpha/alphaT>3.000000, increasing alphaT to 3.802726e-02.
	FillingsUpdate:  mu: +0.099886785  nElectrons: 347.000000  magneticMoment: [ Abs: 20.13415  Tot: +0.00000 ]
LCAOMinimize: Iter:  27  F: -1942.8779665001534340  |grad|_K:  2.438e-03  alpha:  8.287e-02  linmin: -3.075e-03  cgtest: -9.913e-03  t[s]:    791.06
	FillingsUpdate:  mu: +0.129122810  nElectrons: 347.000000  magneticMoment: [ Abs: 21.09753  Tot: -0.00000 ]
LCAOMinimize: Iter:  28  F: -1942.9377406949972737  |grad|_K:  1.971e-03  alpha:  2.006e-02  linmin:  6.629e-04  cgtest: -7.443e-02  t[s]:    811.74
	FillingsUpdate:  mu: +0.163767371  nElectrons: 347.000000  magneticMoment: [ Abs: 21.84774  Tot: +0.00000 ]
LCAOMinimize: Iter:  29  F: -1942.9854053215835847  |grad|_K:  1.793e-03  alpha:  2.734e-02  linmin:  2.513e-03  cgtest:  1.261e-01  t[s]:    832.86
	FillingsUpdate:  mu: +0.126904271  nElectrons: 347.000000  magneticMoment: [ Abs: 22.49588  Tot: +0.00000 ]
LCAOMinimize: Iter:  30  F: -1943.0302723472038906  |grad|_K:  1.064e-03  alpha:  3.168e-02  linmin: -2.969e-03  cgtest:  3.565e-01  t[s]:    853.56
LCAOMinimize: None of the convergence criteria satisfied after 30 iterations.


---- Citations for features of the code used in this run ----

   Software package:
      R. Sundararaman, K. Letchworth-Weaver, K.A. Schwarz, D. Gunceler, Y. Ozhabes and T.A. Arias, 'JDFTx: software for joint density-functional theory', SoftwareX 6, 278 (2017)

   Simplified rotationally-invariant DFT+U:
      S. L. Dudarev et al., Phys. Rev. B 57, 1505 (1998)

   LibXC library of exchange-correlation functions:
      M. A. L. Marques, M. J. T. Oliveira and T. Burnus, Comput. Phys. Commun. 183, 2272 (2012)

   Hammer, Hansen, and Norskov exchange functional:
      B. Hammer, L. B. Hansen, and J. K. Nørskov, Phys. Rev. B 59, 7413 (1999)

   Perdew, Burke & Ernzerhof correlation functional:
      J. P. Perdew, K. Burke, and M. Ernzerhof, Phys. Rev. Lett. 77, 3865 (1996)

   Pseudopotentials:
      M Schlipf and F Gygi, Comput. Phys. Commun. 196, 36 (2015)

   Total energy minimization with Auxiliary Hamiltonian:
      C. Freysoldt, S. Boeck, and J. Neugebauer, Phys. Rev. B 79, 241103(R) (2009)

This list may not be complete. Please suggest additional citations or
report any other bugs at https://github.com/shankar1729/jdftx/issues

Initialization completed successfully at t[s]:    861.28


-------- Electronic minimization -----------
	FillingsUpdate:  mu: +0.126904459  nElectrons: 347.000000  magneticMoment: [ Abs: 22.49588  Tot: +0.00000 ]
ElecMinimize: Iter:   0  F: -1943.030272347198888  |grad|_K:  7.581e-04  alpha:  1.000e+00
	FillingsUpdate:  mu: +0.549664433  nElectrons: 347.000000  magneticMoment: [ Abs: 28.12934  Tot: -0.00000 ]
	SubspaceRotationAdjust: set factor to 0.99
ElecMinimize: Iter:   1  F: -1968.514432360363571  |grad|_K:  1.120e-03  alpha:  4.698e-01  linmin:  1.205e-02  t[s]:    929.70
ElecMinimize: 	Step increased F by 1.828699e+01, reducing alpha to 9.644956e-03.
	FillingsUpdate:  mu: +0.269622369  nElectrons: 347.000000  magneticMoment: [ Abs: 26.46610  Tot: -0.00000 ]
	SubspaceRotationAdjust: set factor to 1.43
ElecMinimize: Iter:   2  F: -1970.773863175147881  |grad|_K:  6.650e-04  alpha:  9.645e-03  linmin: -2.460e-03  t[s]:   1006.11
	FillingsUpdate:  mu: +0.205889776  nElectrons: 347.000000  magneticMoment: [ Abs: 24.72664  Tot: +0.00000 ]
	SubspaceRotationAdjust: set factor to 1.53
ElecMinimize: Iter:   3  F: -1973.002742619707305  |grad|_K:  7.309e-04  alpha:  1.916e-02  linmin: -2.838e-03  t[s]:   1052.55
	FillingsUpdate:  mu: +0.269791848  nElectrons: 347.000000  magneticMoment: [ Abs: 27.50326  Tot: +0.00000 ]
	SubspaceRotationAdjust: set factor to 0.98
ElecMinimize: Iter:   4  F: -1978.219219113808549  |grad|_K:  9.644e-04  alpha:  3.495e-02  linmin: -9.752e-04  t[s]:   1099.24
	FillingsUpdate:  mu: +0.173757860  nElectrons: 347.000000  magneticMoment: [ Abs: 27.40260  Tot: +0.00000 ]
	SubspaceRotationAdjust: set factor to 0.81
ElecMinimize: Iter:   5  F: -1985.203593430778255  |grad|_K:  5.106e-04  alpha:  3.336e-02  linmin: -1.659e-04  t[s]:   1145.62
	FillingsUpdate:  mu: +0.501025948  nElectrons: 347.000000  magneticMoment: [ Abs: 28.99554  Tot: +0.00000 ]
	SubspaceRotationAdjust: set factor to 0.483
ElecMinimize: Iter:   6  F: -1986.716521972002283  |grad|_K:  7.338e-04  alpha:  2.318e-02  linmin:  2.232e-04  t[s]:   1193.30
	FillingsUpdate:  mu: +0.542824843  nElectrons: 347.000000  magneticMoment: [ Abs: 29.38311  Tot: +0.00000 ]
	SubspaceRotationAdjust: set factor to 0.32
ElecMinimize: Iter:   7  F: -1986.998725433431218  |grad|_K:  5.926e-04  alpha:  3.002e-03  linmin: -2.043e-04  t[s]:   1241.60
	FillingsUpdate:  mu: +0.421704944  nElectrons: 347.000000  magneticMoment: [ Abs: 29.93153  Tot: -0.00000 ]
	SubspaceRotationAdjust: set factor to 0.306
ElecMinimize: Iter:   8  F: -1987.457376379232755  |grad|_K:  4.188e-04  alpha:  7.054e-03  linmin:  2.510e-04  t[s]:   1289.75
	FillingsUpdate:  mu: +0.386828318  nElectrons: 347.000000  magneticMoment: [ Abs: 30.31191  Tot: -0.00000 ]
	SubspaceRotationAdjust: set factor to 0.326
ElecMinimize: Iter:   9  F: -1987.643783914674486  |grad|_K:  3.874e-04  alpha:  6.895e-03  linmin: -7.103e-05  t[s]:   1337.22
	FillingsUpdate:  mu: +0.390087653  nElectrons: 347.000000  magneticMoment: [ Abs: 30.70258  Tot: +0.00000 ]
	SubspaceRotationAdjust: set factor to 0.33
ElecMinimize: Iter:  10  F: -1987.965210853993312  |grad|_K:  3.690e-04  alpha:  1.123e-02  linmin: -2.296e-04  t[s]:   1384.57
	FillingsUpdate:  mu: +0.385518263  nElectrons: 347.000000  magneticMoment: [ Abs: 31.15724  Tot: -0.00000 ]
	SubspaceRotationAdjust: set factor to 0.292
ElecMinimize: Iter:  11  F: -1988.259785492645278  |grad|_K:  3.593e-04  alpha:  1.117e-02  linmin:  1.710e-04  t[s]:   1432.29
	FillingsUpdate:  mu: +0.391262537  nElectrons: 347.000000  magneticMoment: [ Abs: 31.46595  Tot: +0.00000 ]
	SubspaceRotationAdjust: set factor to 0.239
ElecMinimize: Iter:  12  F: -1988.432367199894770  |grad|_K:  3.451e-04  alpha:  7.929e-03  linmin:  1.587e-05  t[s]:   1479.38
	FillingsUpdate:  mu: +0.412714336  nElectrons: 347.000000  magneticMoment: [ Abs: 31.77081  Tot: -0.00000 ]
	SubspaceRotationAdjust: set factor to 0.184
ElecMinimize: Iter:  13  F: -1988.598278359095730  |grad|_K:  3.258e-04  alpha:  8.021e-03  linmin:  3.067e-05  t[s]:   1526.95
	FillingsUpdate:  mu: +0.403108128  nElectrons: 347.000000  magneticMoment: [ Abs: 32.06370  Tot: +0.00000 ]
	SubspaceRotationAdjust: set factor to 0.139
ElecMinimize: Iter:  14  F: -1988.761689104871721  |grad|_K:  2.959e-04  alpha:  8.926e-03  linmin:  1.981e-05  t[s]:   1574.43
	FillingsUpdate:  mu: +0.353990209  nElectrons: 347.000000  magneticMoment: [ Abs: 32.23283  Tot: +0.00000 ]
	SubspaceRotationAdjust: set factor to 0.107
	SubspaceRotationAdjust: resetting CG because factor has changed by 0.106791
ElecMinimize: 	State modified externally: resetting search direction.
ElecMinimize: Iter:  15  F: -1988.909632617574744  |grad|_K:  2.438e-04  alpha:  9.791e-03
ElecMinimize: 	Predicted alpha/alphaT>3.000000, increasing alphaT to 2.937197e-02.
ElecMinimize: 	Predicted alpha/alphaT>3.000000, increasing alphaT to 8.811590e-02.
	FillingsUpdate:  mu: +0.178770914  nElectrons: 347.000000  magneticMoment: [ Abs: 32.38369  Tot: +0.00000 ]
	SubspaceRotationAdjust: set factor to 0.129
ElecMinimize: Iter:  16  F: -1991.452348217536837  |grad|_K:  9.714e-05  alpha:  2.432e-01  linmin: -3.673e-03  t[s]:   1716.61
	FillingsUpdate:  mu: +0.138635208  nElectrons: 347.000000  magneticMoment: [ Abs: 31.96616  Tot: -0.00000 ]
	SubspaceRotationAdjust: set factor to 0.133
ElecMinimize: Iter:  17  F: -1992.105023344229039  |grad|_K:  7.577e-05  alpha:  3.921e-01  linmin:  1.711e-03  t[s]:   1764.09
	FillingsUpdate:  mu: +0.175816387  nElectrons: 347.000000  magneticMoment: [ Abs: 31.68992  Tot: +0.00000 ]
	SubspaceRotationAdjust: set factor to 0.128
ElecMinimize: Iter:  18  F: -1992.360813245602458  |grad|_K:  6.266e-05  alpha:  2.934e-01  linmin: -1.748e-04  t[s]:   1812.02
	FillingsUpdate:  mu: +0.144993975  nElectrons: 347.000000  magneticMoment: [ Abs: 32.15318  Tot: -0.00000 ]
	SubspaceRotationAdjust: set factor to 0.124
ElecMinimize: Iter:  19  F: -1992.561180250014786  |grad|_K:  4.802e-05  alpha:  2.859e-01  linmin: -1.264e-04  t[s]:   1859.20
	FillingsUpdate:  mu: +0.113398053  nElectrons: 347.000000  magneticMoment: [ Abs: 32.53848  Tot: -0.00000 ]
	SubspaceRotationAdjust: set factor to 0.145
ElecMinimize: Iter:  20  F: -1992.705956239213265  |grad|_K:  3.928e-05  alpha:  3.507e-01  linmin: -7.141e-06  t[s]:   1906.29
	FillingsUpdate:  mu: +0.141485820  nElectrons: 347.000000  magneticMoment: [ Abs: 32.73368  Tot: +0.00000 ]
	SubspaceRotationAdjust: set factor to 0.148
ElecMinimize: Iter:  21  F: -1992.781610770205134  |grad|_K:  3.654e-05  alpha:  2.742e-01  linmin:  3.648e-05  t[s]:   1953.20
	FillingsUpdate:  mu: +0.115890436  nElectrons: 347.000000  magneticMoment: [ Abs: 33.25133  Tot: -0.00000 ]
	SubspaceRotationAdjust: set factor to 0.146
ElecMinimize: Iter:  22  F: -1992.837355371363856  |grad|_K:  3.287e-05  alpha:  2.410e-01  linmin: -4.514e-06  t[s]:   2000.31
	FillingsUpdate:  mu: +0.124323585  nElectrons: 347.000000  magneticMoment: [ Abs: 33.81721  Tot: -0.00000 ]
	SubspaceRotationAdjust: set factor to 0.181
ElecMinimize: Iter:  23  F: -1992.902289726777326  |grad|_K:  3.205e-05  alpha:  3.428e-01  linmin: -1.312e-05  t[s]:   2047.99
	FillingsUpdate:  mu: +0.136217115  nElectrons: 347.000000  magneticMoment: [ Abs: 34.16334  Tot: -0.00000 ]
	SubspaceRotationAdjust: set factor to 0.179
ElecMinimize: Iter:  24  F: -1992.955068166330420  |grad|_K:  3.413e-05  alpha:  2.964e-01  linmin: -6.657e-05  t[s]:   2095.40
	FillingsUpdate:  mu: +0.124248444  nElectrons: 347.000000  magneticMoment: [ Abs: 34.78842  Tot: -0.00000 ]
	SubspaceRotationAdjust: set factor to 0.151
ElecMinimize: Iter:  25  F: -1992.998552623952264  |grad|_K:  3.250e-05  alpha:  1.949e-01  linmin: -1.515e-05  t[s]:   2142.75
	FillingsUpdate:  mu: +0.127813398  nElectrons: 347.000000  magneticMoment: [ Abs: 35.45298  Tot: -0.00000 ]
	SubspaceRotationAdjust: set factor to 0.195
ElecMinimize: Iter:  26  F: -1993.054459402985458  |grad|_K:  3.487e-05  alpha:  3.000e-01  linmin:  1.823e-05  t[s]:   2190.37
ElecMinimize: 	Step increased F by 5.427621e-04, reducing alpha to 6.517589e-04.
ElecMinimize: 	Step increased F by 3.013304e-03, reducing alpha to 6.517589e-05.
ElecMinimize: 	Step increased F by 3.264292e-03, reducing alpha to 6.517589e-06.
ElecMinimize: 	Step failed to reduce F after 3 attempts. Quitting step.
ElecMinimize: 	Undoing step.
ElecMinimize: 	Step failed: resetting search direction.
	FillingsUpdate:  mu: +0.127713198  nElectrons: 347.000000  magneticMoment: [ Abs: 35.45220  Tot: -0.00000 ]
	SubspaceRotationAdjust: set factor to 0.245
ElecMinimize: Iter:  27  F: -1993.051192318735730  |grad|_K:  3.605e-05  alpha:  6.518e-06
	FillingsUpdate:  mu: +0.141552241  nElectrons: 347.000000  magneticMoment: [ Abs: 35.27322  Tot: -0.00000 ]
	SubspaceRotationAdjust: set factor to 0.175
ElecMinimize: Iter:  28  F: -1993.085762475871434  |grad|_K:  3.072e-05  alpha:  1.532e-01  linmin:  3.000e-04  t[s]:   2374.31
	FillingsUpdate:  mu: +0.118884825  nElectrons: 347.000000  magneticMoment: [ Abs: 35.43297  Tot: +0.00000 ]
	SubspaceRotationAdjust: set factor to 0.122
ElecMinimize: Iter:  29  F: -1993.109493507127127  |grad|_K:  1.831e-05  alpha:  1.449e-01  linmin: -2.072e-04  t[s]:   2421.24
	FillingsUpdate:  mu: +0.118845704  nElectrons: 347.000000  magneticMoment: [ Abs: 35.63060  Tot: -0.00000 ]
	SubspaceRotationAdjust: set factor to 0.133
ElecMinimize: Iter:  30  F: -1993.132828331266182  |grad|_K:  1.585e-05  alpha:  3.960e-01  linmin:  6.695e-05  t[s]:   2468.23
	FillingsUpdate:  mu: +0.114196865  nElectrons: 347.000000  magneticMoment: [ Abs: 35.88631  Tot: -0.00000 ]
	SubspaceRotationAdjust: set factor to 0.154
ElecMinimize: Iter:  31  F: -1993.150345369295792  |grad|_K:  1.281e-05  alpha:  4.013e-01  linmin: -4.465e-06  t[s]:   2514.79
	FillingsUpdate:  mu: +0.115220360  nElectrons: 347.000000  magneticMoment: [ Abs: 36.13001  Tot: -0.00000 ]
	SubspaceRotationAdjust: set factor to 0.169
ElecMinimize: Iter:  32  F: -1993.161378407584834  |grad|_K:  1.251e-05  alpha:  3.846e-01  linmin: -2.673e-05  t[s]:   2561.84
	FillingsUpdate:  mu: +0.120527860  nElectrons: 347.000000  magneticMoment: [ Abs: 36.28354  Tot: +0.00000 ]
	SubspaceRotationAdjust: set factor to 0.136
ElecMinimize: Iter:  33  F: -1993.169402434034055  |grad|_K:  1.320e-05  alpha:  2.915e-01  linmin: -1.882e-05  t[s]:   2608.65
	FillingsUpdate:  mu: +0.118435040  nElectrons: 347.000000  magneticMoment: [ Abs: 36.56600  Tot: +0.00000 ]
	SubspaceRotationAdjust: set factor to 0.106
ElecMinimize: Iter:  34  F: -1993.176197487488025  |grad|_K:  1.074e-05  alpha:  2.233e-01  linmin: -2.623e-05  t[s]:   2655.07
	FillingsUpdate:  mu: +0.119612030  nElectrons: 347.000000  magneticMoment: [ Abs: 36.84980  Tot: +0.00000 ]
	SubspaceRotationAdjust: set factor to 0.122
ElecMinimize: Iter:  35  F: -1993.183786790320482  |grad|_K:  9.938e-06  alpha:  3.732e-01  linmin: -2.142e-05  t[s]:   2701.77
	FillingsUpdate:  mu: +0.117853475  nElectrons: 347.000000  magneticMoment: [ Abs: 37.16174  Tot: -0.00000 ]
	SubspaceRotationAdjust: set factor to 0.136
ElecMinimize: Iter:  36  F: -1993.190464879687397  |grad|_K:  8.968e-06  alpha:  3.853e-01  linmin:  1.425e-04  t[s]:   2748.86
	FillingsUpdate:  mu: +0.112195516  nElectrons: 347.000000  magneticMoment: [ Abs: 37.41392  Tot: -0.00000 ]
	SubspaceRotationAdjust: set factor to 0.146
ElecMinimize: Iter:  37  F: -1993.195335457046212  |grad|_K:  8.631e-06  alpha:  3.536e-01  linmin:  2.306e-04  t[s]:   2795.76
	FillingsUpdate:  mu: +0.114006358  nElectrons: 347.000000  magneticMoment: [ Abs: 37.51626  Tot: -0.00000 ]
	SubspaceRotationAdjust: set factor to 0.14
ElecMinimize: Iter:  38  F: -1993.198676610404618  |grad|_K:  8.435e-06  alpha:  2.610e-01  linmin:  3.817e-05  t[s]:   2843.34
	FillingsUpdate:  mu: +0.111999826  nElectrons: 347.000000  magneticMoment: [ Abs: 37.58414  Tot: -0.00000 ]
	SubspaceRotationAdjust: set factor to 0.192
ElecMinimize: Iter:  39  F: -1993.200961079481885  |grad|_K:  5.831e-06  alpha:  1.836e-01  linmin: -4.706e-05  t[s]:   2890.20
	FillingsUpdate:  mu: +0.114819680  nElectrons: 347.000000  magneticMoment: [ Abs: 37.63736  Tot: +0.00000 ]
	SubspaceRotationAdjust: set factor to 0.154
ElecMinimize: Iter:  40  F: -1993.202226536399849  |grad|_K:  6.192e-06  alpha:  2.117e-01  linmin:  7.255e-06  t[s]:   2937.53
	FillingsUpdate:  mu: +0.114287014  nElectrons: 347.000000  magneticMoment: [ Abs: 37.69521  Tot: -0.00000 ]
	SubspaceRotationAdjust: set factor to 0.192
ElecMinimize: Iter:  41  F: -1993.203555930231232  |grad|_K:  5.604e-06  alpha:  1.984e-01  linmin: -5.176e-05  t[s]:   2984.74
	FillingsUpdate:  mu: +0.113513291  nElectrons: 347.000000  magneticMoment: [ Abs: 37.77575  Tot: -0.00000 ]
	SubspaceRotationAdjust: set factor to 0.176
ElecMinimize: Iter:  42  F: -1993.204940156229441  |grad|_K:  6.428e-06  alpha:  2.495e-01  linmin: -2.402e-04  t[s]:   3031.64
	FillingsUpdate:  mu: +0.114750626  nElectrons: 347.000000  magneticMoment: [ Abs: 37.88648  Tot: -0.00000 ]
	SubspaceRotationAdjust: set factor to 0.207
ElecMinimize: Iter:  43  F: -1993.206407633470917  |grad|_K:  6.445e-06  alpha:  1.967e-01  linmin: -4.040e-05  t[s]:   3078.44
	FillingsUpdate:  mu: +0.114057317  nElectrons: 347.000000  magneticMoment: [ Abs: 37.99660  Tot: -0.00000 ]
	SubspaceRotationAdjust: set factor to 0.204
ElecMinimize: Iter:  44  F: -1993.208049209169758  |grad|_K:  7.074e-06  alpha:  2.258e-01  linmin:  3.741e-05  t[s]:   3124.90
	FillingsUpdate:  mu: +0.113838224  nElectrons: 347.000000  magneticMoment: [ Abs: 38.08124  Tot: -0.00000 ]
	SubspaceRotationAdjust: set factor to 0.232
ElecMinimize: Iter:  45  F: -1993.209477668324553  |grad|_K:  7.394e-06  alpha:  1.668e-01  linmin: -1.813e-04  t[s]:   3171.35
	FillingsUpdate:  mu: +0.112003748  nElectrons: 347.000000  magneticMoment: [ Abs: 38.26142  Tot: +0.00000 ]
	SubspaceRotationAdjust: set factor to 0.312
ElecMinimize: Iter:  46  F: -1993.211838538502434  |grad|_K:  7.326e-06  alpha:  2.405e-01  linmin: -2.154e-04  t[s]:   3218.29
	FillingsUpdate:  mu: +0.117104193  nElectrons: 347.000000  magneticMoment: [ Abs: 38.43195  Tot: +0.00000 ]
	SubspaceRotationAdjust: set factor to 0.274
ElecMinimize: Iter:  47  F: -1993.213663496839217  |grad|_K:  9.328e-06  alpha:  1.881e-01  linmin: -2.049e-05  t[s]:   3265.03
	FillingsUpdate:  mu: +0.113104807  nElectrons: 347.000000  magneticMoment: [ Abs: 38.54307  Tot: -0.00000 ]
	SubspaceRotationAdjust: set factor to 0.276
ElecMinimize: Iter:  48  F: -1993.215458597228235  |grad|_K:  7.319e-06  alpha:  1.204e-01  linmin: -2.036e-05  t[s]:   3311.72
	FillingsUpdate:  mu: +0.113934073  nElectrons: 347.000000  magneticMoment: [ Abs: 38.65899  Tot: +0.00000 ]
	SubspaceRotationAdjust: set factor to 0.324
ElecMinimize: Iter:  49  F: -1993.217609640545334  |grad|_K:  7.000e-06  alpha:  2.266e-01  linmin: -1.132e-04  t[s]:   3358.47
	FillingsUpdate:  mu: +0.116456139  nElectrons: 347.000000  magneticMoment: [ Abs: 38.76227  Tot: +0.00000 ]
	SubspaceRotationAdjust: set factor to 0.275
ElecMinimize: Iter:  50  F: -1993.218974447251412  |grad|_K:  8.482e-06  alpha:  1.496e-01  linmin: -4.340e-05  t[s]:   3405.33
	FillingsUpdate:  mu: +0.112765122  nElectrons: 347.000000  magneticMoment: [ Abs: 38.85351  Tot: +0.00000 ]
	SubspaceRotationAdjust: set factor to 0.373
ElecMinimize: Iter:  51  F: -1993.220584076157138  |grad|_K:  6.371e-06  alpha:  1.284e-01  linmin: -1.328e-04  t[s]:   3452.38
	FillingsUpdate:  mu: +0.114515374  nElectrons: 347.000000  magneticMoment: [ Abs: 38.94597  Tot: -0.00000 ]
	SubspaceRotationAdjust: set factor to 0.346
ElecMinimize: Iter:  52  F: -1993.222218255129519  |grad|_K:  7.543e-06  alpha:  2.168e-01  linmin: -5.461e-04  t[s]:   3499.20
	FillingsUpdate:  mu: +0.114544702  nElectrons: 347.000000  magneticMoment: [ Abs: 39.01784  Tot: +0.00000 ]
	SubspaceRotationAdjust: set factor to 0.309
ElecMinimize: Iter:  53  F: -1993.223192388872349  |grad|_K:  6.429e-06  alpha:  7.562e-02  linmin: -1.091e-03  t[s]:   3546.98
	FillingsUpdate:  mu: +0.117220913  nElectrons: 347.000000  magneticMoment: [ Abs: 39.09319  Tot: +0.00000 ]
	SubspaceRotationAdjust: set factor to 0.218
ElecMinimize: Iter:  54  F: -1993.224761942791247  |grad|_K:  9.443e-06  alpha:  2.050e-01  linmin:  1.359e-03  t[s]:   3593.87
	FillingsUpdate:  mu: +0.116203014  nElectrons: 347.000000  magneticMoment: [ Abs: 39.10217  Tot: +0.00000 ]
	SubspaceRotationAdjust: set factor to 0.203
ElecMinimize: Iter:  55  F: -1993.225175095080431  |grad|_K:  7.849e-06  alpha:  2.254e-02  linmin: -2.211e-03  t[s]:   3640.51
	FillingsUpdate:  mu: +0.112885035  nElectrons: 347.000000  magneticMoment: [ Abs: 39.10525  Tot: -0.00000 ]
	SubspaceRotationAdjust: set factor to 0.242
ElecMinimize: Iter:  56  F: -1993.226322634088092  |grad|_K:  5.596e-06  alpha:  6.736e-02  linmin: -1.905e-03  t[s]:   3687.52
	FillingsUpdate:  mu: +0.114014060  nElectrons: 347.000000  magneticMoment: [ Abs: 39.15300  Tot: +0.00000 ]
	SubspaceRotationAdjust: set factor to 0.249
ElecMinimize: Iter:  57  F: -1993.227629606265509  |grad|_K:  5.880e-06  alpha:  1.763e-01  linmin: -3.682e-04  t[s]:   3734.76
	FillingsUpdate:  mu: +0.114315853  nElectrons: 347.000000  magneticMoment: [ Abs: 39.20921  Tot: +0.00000 ]
	SubspaceRotationAdjust: set factor to 0.226
ElecMinimize: Iter:  58  F: -1993.228303528228025  |grad|_K:  7.074e-06  alpha:  8.817e-02  linmin: -7.622e-04  t[s]:   3781.62
	FillingsUpdate:  mu: +0.118985440  nElectrons: 347.000000  magneticMoment: [ Abs: 39.27062  Tot: -0.00000 ]
	SubspaceRotationAdjust: set factor to 0.159
ElecMinimize: Iter:  59  F: -1993.229123211853675  |grad|_K:  9.222e-06  alpha:  8.306e-02  linmin:  3.158e-04  t[s]:   3828.63
	FillingsUpdate:  mu: +0.118421444  nElectrons: 347.000000  magneticMoment: [ Abs: 39.30406  Tot: -0.00000 ]
	SubspaceRotationAdjust: set factor to 0.135
ElecMinimize: Iter:  60  F: -1993.229807557408549  |grad|_K:  8.445e-06  alpha:  4.982e-02  linmin: -1.170e-05  t[s]:   3875.45
	FillingsUpdate:  mu: +0.116098333  nElectrons: 347.000000  magneticMoment: [ Abs: 39.31029  Tot: +0.00000 ]
	SubspaceRotationAdjust: set factor to 0.202
ElecMinimize: Iter:  61  F: -1993.230553807826482  |grad|_K:  6.798e-06  alpha:  5.896e-02  linmin: -2.576e-04  t[s]:   3922.10
	FillingsUpdate:  mu: +0.115817923  nElectrons: 347.000000  magneticMoment: [ Abs: 39.30599  Tot: -0.00000 ]
	SubspaceRotationAdjust: set factor to 0.201
ElecMinimize: Iter:  62  F: -1993.231274964021168  |grad|_K:  7.088e-06  alpha:  8.350e-02  linmin: -2.127e-04  t[s]:   3968.87
	FillingsUpdate:  mu: +0.115746135  nElectrons: 347.000000  magneticMoment: [ Abs: 39.35736  Tot: +0.00000 ]
	SubspaceRotationAdjust: set factor to 0.239
ElecMinimize: Iter:  63  F: -1993.232444726246513  |grad|_K:  7.677e-06  alpha:  1.269e-01  linmin: -7.358e-05  t[s]:   4016.06
	FillingsUpdate:  mu: +0.116505050  nElectrons: 347.000000  magneticMoment: [ Abs: 39.43103  Tot: -0.00000 ]
	SubspaceRotationAdjust: set factor to 0.251
ElecMinimize: Iter:  64  F: -1993.233196732662464  |grad|_K:  7.118e-06  alpha:  6.779e-02  linmin: -1.223e-04  t[s]:   4063.44
	FillingsUpdate:  mu: +0.121097925  nElectrons: 347.000000  magneticMoment: [ Abs: 39.51134  Tot: -0.00000 ]
	SubspaceRotationAdjust: set factor to 0.196
ElecMinimize: Iter:  65  F: -1993.234163739546602  |grad|_K:  1.059e-05  alpha:  1.080e-01  linmin:  1.381e-04  t[s]:   4110.97
	FillingsUpdate:  mu: +0.117985672  nElectrons: 347.000000  magneticMoment: [ Abs: 39.55106  Tot: +0.00000 ]
	SubspaceRotationAdjust: set factor to 0.267
ElecMinimize: Iter:  66  F: -1993.235390392348336  |grad|_K:  9.182e-06  alpha:  6.180e-02  linmin: -1.272e-04  t[s]:   4158.15
	FillingsUpdate:  mu: +0.115893638  nElectrons: 347.000000  magneticMoment: [ Abs: 39.54632  Tot: +0.00000 ]
	SubspaceRotationAdjust: set factor to 0.28
ElecMinimize: Iter:  67  F: -1993.236182758334053  |grad|_K:  8.696e-06  alpha:  5.078e-02  linmin:  1.049e-04  t[s]:   4205.11
	FillingsUpdate:  mu: +0.112762466  nElectrons: 347.000000  magneticMoment: [ Abs: 39.55276  Tot: -0.00000 ]
	SubspaceRotationAdjust: set factor to 0.238
ElecMinimize: Iter:  68  F: -1993.236906388741318  |grad|_K:  1.109e-05  alpha:  5.651e-02  linmin:  4.839e-05  t[s]:   4252.92
	FillingsUpdate:  mu: +0.113857400  nElectrons: 347.000000  magneticMoment: [ Abs: 39.61228  Tot: +0.00000 ]
	SubspaceRotationAdjust: set factor to 0.234
ElecMinimize: Iter:  69  F: -1993.237964777313437  |grad|_K:  9.982e-06  alpha:  5.005e-02  linmin: -4.804e-05  t[s]:   4300.51
	FillingsUpdate:  mu: +0.113892297  nElectrons: 347.000000  magneticMoment: [ Abs: 39.68479  Tot: +0.00000 ]
	SubspaceRotationAdjust: set factor to 0.293
ElecMinimize: Iter:  70  F: -1993.238700902096298  |grad|_K:  8.445e-06  alpha:  4.162e-02  linmin:  1.935e-05  t[s]:   4347.75
	FillingsUpdate:  mu: +0.119057700  nElectrons: 347.000000  magneticMoment: [ Abs: 39.75101  Tot: -0.00000 ]
	SubspaceRotationAdjust: set factor to 0.254
ElecMinimize: Iter:  71  F: -1993.239436551360541  |grad|_K:  1.063e-05  alpha:  5.909e-02  linmin: -3.258e-05  t[s]:   4394.87
	FillingsUpdate:  mu: +0.120450819  nElectrons: 347.000000  magneticMoment: [ Abs: 39.77538  Tot: -0.00000 ]
	SubspaceRotationAdjust: set factor to 0.274
ElecMinimize: Iter:  72  F: -1993.240482376575983  |grad|_K:  9.384e-06  alpha:  5.253e-02  linmin: -3.718e-06  t[s]:   4441.59
	FillingsUpdate:  mu: +0.119424240  nElectrons: 347.000000  magneticMoment: [ Abs: 39.75146  Tot: +0.00000 ]
	SubspaceRotationAdjust: set factor to 0.319
ElecMinimize: Iter:  73  F: -1993.241099766969683  |grad|_K:  7.595e-06  alpha:  3.984e-02  linmin:  1.196e-05  t[s]:   4488.34
	FillingsUpdate:  mu: +0.119740780  nElectrons: 347.000000  magneticMoment: [ Abs: 39.73169  Tot: +0.00000 ]
	SubspaceRotationAdjust: set factor to 0.329
ElecMinimize: Iter:  74  F: -1993.241645077287103  |grad|_K:  9.230e-06  alpha:  5.452e-02  linmin:  6.412e-05  t[s]:   4535.19
	FillingsUpdate:  mu: +0.118730991  nElectrons: 347.000000  magneticMoment: [ Abs: 39.75649  Tot: +0.00000 ]
	SubspaceRotationAdjust: set factor to 0.309
ElecMinimize: Iter:  75  F: -1993.242360529621010  |grad|_K:  9.166e-06  alpha:  4.877e-02  linmin:  8.374e-06  t[s]:   4581.95
	FillingsUpdate:  mu: +0.120999506  nElectrons: 347.000000  magneticMoment: [ Abs: 39.80922  Tot: +0.00000 ]
	SubspaceRotationAdjust: set factor to 0.415
ElecMinimize: Iter:  76  F: -1993.242849374910975  |grad|_K:  7.088e-06  alpha:  3.378e-02  linmin: -8.597e-06  t[s]:   4628.57
	FillingsUpdate:  mu: +0.121758909  nElectrons: 347.000000  magneticMoment: [ Abs: 39.86133  Tot: +0.00000 ]
	SubspaceRotationAdjust: set factor to 0.368
ElecMinimize: Iter:  77  F: -1993.243300927919790  |grad|_K:  8.575e-06  alpha:  5.079e-02  linmin: -1.089e-04  t[s]:   4675.39
	FillingsUpdate:  mu: +0.120775815  nElectrons: 347.000000  magneticMoment: [ Abs: 39.87882  Tot: +0.00000 ]
	SubspaceRotationAdjust: set factor to 0.428
ElecMinimize: Iter:  78  F: -1993.243973972291315  |grad|_K:  7.425e-06  alpha:  5.108e-02  linmin:  3.008e-05  t[s]:   4722.48
	FillingsUpdate:  mu: +0.122237723  nElectrons: 347.000000  magneticMoment: [ Abs: 39.85895  Tot: -0.00000 ]
	SubspaceRotationAdjust: set factor to 0.47
ElecMinimize: Iter:  79  F: -1993.244341552371225  |grad|_K:  6.985e-06  alpha:  3.803e-02  linmin:  1.532e-05  t[s]:   4769.23
	FillingsUpdate:  mu: +0.120834905  nElectrons: 347.000000  magneticMoment: [ Abs: 39.85369  Tot: +0.00000 ]
	SubspaceRotationAdjust: set factor to 0.361
ElecMinimize: Iter:  80  F: -1993.244831856277187  |grad|_K:  9.227e-06  alpha:  5.825e-02  linmin:  7.832e-05  t[s]:   4816.68
	FillingsUpdate:  mu: +0.119812640  nElectrons: 347.000000  magneticMoment: [ Abs: 39.89397  Tot: +0.00000 ]
	SubspaceRotationAdjust: set factor to 0.492
ElecMinimize: Iter:  81  F: -1993.245324203016935  |grad|_K:  7.031e-06  alpha:  3.463e-02  linmin:  9.622e-06  t[s]:   4863.62
	FillingsUpdate:  mu: +0.119755135  nElectrons: 347.000000  magneticMoment: [ Abs: 39.94142  Tot: +0.00000 ]
	SubspaceRotationAdjust: set factor to 0.531
ElecMinimize: Iter:  82  F: -1993.245685955452473  |grad|_K:  6.897e-06  alpha:  4.168e-02  linmin: -8.469e-05  t[s]:   4910.44
	FillingsUpdate:  mu: +0.121050685  nElectrons: 347.000000  magneticMoment: [ Abs: 39.97577  Tot: +0.00000 ]
	SubspaceRotationAdjust: set factor to 0.488
ElecMinimize: Iter:  83  F: -1993.246260744756682  |grad|_K:  7.747e-06  alpha:  6.698e-02  linmin: -2.698e-05  t[s]:   4957.03
	FillingsUpdate:  mu: +0.120390723  nElectrons: 347.000000  magneticMoment: [ Abs: 39.96027  Tot: +0.00000 ]
	SubspaceRotationAdjust: set factor to 0.602
ElecMinimize: Iter:  84  F: -1993.246648308960630  |grad|_K:  6.289e-06  alpha:  3.652e-02  linmin: -3.135e-07  t[s]:   5003.76
	FillingsUpdate:  mu: +0.120886682  nElectrons: 347.000000  magneticMoment: [ Abs: 39.95784  Tot: -0.00000 ]
	SubspaceRotationAdjust: set factor to 0.502
ElecMinimize: Iter:  85  F: -1993.247083808375919  |grad|_K:  7.984e-06  alpha:  6.271e-02  linmin: -2.705e-05  t[s]:   5050.80
	FillingsUpdate:  mu: +0.123242255  nElectrons: 347.000000  magneticMoment: [ Abs: 40.00568  Tot: -0.00000 ]
	SubspaceRotationAdjust: set factor to 0.667
ElecMinimize: Iter:  86  F: -1993.247497182449933  |grad|_K:  6.186e-06  alpha:  3.656e-02  linmin: -4.581e-06  t[s]:   5098.16
	FillingsUpdate:  mu: +0.122648280  nElectrons: 347.000000  magneticMoment: [ Abs: 40.05876  Tot: +0.00000 ]
	SubspaceRotationAdjust: set factor to 0.553
ElecMinimize: Iter:  87  F: -1993.247897328145655  |grad|_K:  8.345e-06  alpha:  6.006e-02  linmin:  3.701e-05  t[s]:   5144.79
	FillingsUpdate:  mu: +0.123051432  nElectrons: 347.000000  magneticMoment: [ Abs: 40.06917  Tot: -0.00000 ]
	SubspaceRotationAdjust: set factor to 0.869
	SubspaceRotationAdjust: resetting CG because factor has changed by 8.13837
ElecMinimize: 	State modified externally: resetting search direction.
ElecMinimize: Iter:  88  F: -1993.248330638796006  |grad|_K:  6.999e-06  alpha:  3.604e-02
	FillingsUpdate:  mu: +0.121495746  nElectrons: 347.000000  magneticMoment: [ Abs: 40.00469  Tot: +0.00000 ]
	SubspaceRotationAdjust: set factor to 0.484
ElecMinimize: Iter:  89  F: -1993.249063880081394  |grad|_K:  1.245e-05  alpha:  8.509e-02  linmin: -2.408e-04  t[s]:   5259.29
	FillingsUpdate:  mu: +0.122416837  nElectrons: 347.000000  magneticMoment: [ Abs: 40.05299  Tot: -0.00000 ]
	SubspaceRotationAdjust: set factor to 0.732
ElecMinimize: Iter:  90  F: -1993.250904335903670  |grad|_K:  5.332e-06  alpha:  6.825e-02  linmin: -2.818e-04  t[s]:   5306.44
ElecMinimize: 	Predicted alpha/alphaT>3.000000, increasing alphaT to 2.047638e-01.
	FillingsUpdate:  mu: +0.121103953  nElectrons: 347.000000  magneticMoment: [ Abs: 40.09954  Tot: +0.00000 ]
	SubspaceRotationAdjust: set factor to 0.412
ElecMinimize: Iter:  91  F: -1993.252179561176263  |grad|_K:  9.978e-06  alpha:  2.522e-01  linmin:  1.154e-04  t[s]:   5366.54
	FillingsUpdate:  mu: +0.122015531  nElectrons: 347.000000  magneticMoment: [ Abs: 40.06594  Tot: -0.00000 ]
	SubspaceRotationAdjust: set factor to 0.343
ElecMinimize: Iter:  92  F: -1993.252839766670832  |grad|_K:  5.274e-06  alpha:  2.731e-02  linmin: -4.681e-03  t[s]:   5413.09
ElecMinimize: 	Predicted alpha/alphaT>3.000000, increasing alphaT to 8.194268e-02.
	FillingsUpdate:  mu: +0.123517609  nElectrons: 347.000000  magneticMoment: [ Abs: 40.03447  Tot: +0.00000 ]
	SubspaceRotationAdjust: set factor to 0.223
ElecMinimize: Iter:  93  F: -1993.253451551512853  |grad|_K:  5.905e-06  alpha:  9.034e-02  linmin: -3.440e-04  t[s]:   5473.81
	FillingsUpdate:  mu: +0.126493699  nElectrons: 347.000000  magneticMoment: [ Abs: 40.06129  Tot: +0.00000 ]
	SubspaceRotationAdjust: set factor to 0.157
ElecMinimize: Iter:  94  F: -1993.254007814053011  |grad|_K:  5.198e-06  alpha:  8.894e-02  linmin: -6.410e-04  t[s]:   5520.84
	FillingsUpdate:  mu: +0.123342028  nElectrons: 347.000000  magneticMoment: [ Abs: 40.09717  Tot: -0.00000 ]
	SubspaceRotationAdjust: set factor to 0.155
ElecMinimize: Iter:  95  F: -1993.254854818022068  |grad|_K:  4.584e-06  alpha:  1.626e-01  linmin: -8.148e-04  t[s]:   5567.98
	FillingsUpdate:  mu: +0.121681535  nElectrons: 347.000000  magneticMoment: [ Abs: 40.07082  Tot: -0.00000 ]
	SubspaceRotationAdjust: set factor to 0.143
ElecMinimize: Iter:  96  F: -1993.255468106769513  |grad|_K:  3.487e-06  alpha:  1.519e-01  linmin:  4.753e-04  t[s]:   5615.32
	FillingsUpdate:  mu: +0.118365016  nElectrons: 347.000000  magneticMoment: [ Abs: 40.04937  Tot: -0.00000 ]
	SubspaceRotationAdjust: set factor to 0.13
ElecMinimize: Iter:  97  F: -1993.255833164433625  |grad|_K:  3.728e-06  alpha:  1.819e-01  linmin:  3.789e-04  t[s]:   5662.02
	FillingsUpdate:  mu: +0.119221784  nElectrons: 347.000000  magneticMoment: [ Abs: 40.05798  Tot: +0.00000 ]
	SubspaceRotationAdjust: set factor to 0.203
ElecMinimize: Iter:  98  F: -1993.256182429059663  |grad|_K:  3.017e-06  alpha:  1.493e-01  linmin: -1.088e-04  t[s]:   5709.00
	FillingsUpdate:  mu: +0.121552959  nElectrons: 347.000000  magneticMoment: [ Abs: 40.07885  Tot: +0.00000 ]
	SubspaceRotationAdjust: set factor to 0.2
ElecMinimize: Iter:  99  F: -1993.256417641985763  |grad|_K:  2.616e-06  alpha:  1.466e-01  linmin: -3.461e-04  t[s]:   5756.33
	FillingsUpdate:  mu: +0.121779923  nElectrons: 347.000000  magneticMoment: [ Abs: 40.08274  Tot: +0.00000 ]
	SubspaceRotationAdjust: set factor to 0.245
ElecMinimize: Iter: 100  F: -1993.256706081051334  |grad|_K:  2.736e-06  alpha:  2.331e-01  linmin: -2.640e-04  t[s]:   5803.26
	FillingsUpdate:  mu: +0.121529879  nElectrons: 347.000000  magneticMoment: [ Abs: 40.06576  Tot: +0.00000 ]
	SubspaceRotationAdjust: set factor to 0.24
ElecMinimize: Iter: 101  F: -1993.256925240291821  |grad|_K:  2.474e-06  alpha:  1.612e-01  linmin:  3.231e-05  t[s]:   5850.11
	FillingsUpdate:  mu: +0.120966774  nElectrons: 347.000000  magneticMoment: [ Abs: 40.07065  Tot: -0.00000 ]
	SubspaceRotationAdjust: set factor to 0.287
ElecMinimize: Iter: 102  F: -1993.257123966520112  |grad|_K:  2.517e-06  alpha:  1.863e-01  linmin:  3.673e-05  t[s]:   5897.75
	FillingsUpdate:  mu: +0.121747877  nElectrons: 347.000000  magneticMoment: [ Abs: 40.09118  Tot: +0.00000 ]
	SubspaceRotationAdjust: set factor to 0.31
ElecMinimize: Iter: 103  F: -1993.257338524576653  |grad|_K:  2.808e-06  alpha:  1.938e-01  linmin: -2.652e-04  t[s]:   5944.98
	FillingsUpdate:  mu: +0.121736949  nElectrons: 347.000000  magneticMoment: [ Abs: 40.08709  Tot: +0.00000 ]
	SubspaceRotationAdjust: set factor to 0.316
ElecMinimize: Iter: 104  F: -1993.257591985524869  |grad|_K:  2.591e-06  alpha:  1.788e-01  linmin: -8.760e-05  t[s]:   5992.93
	FillingsUpdate:  mu: +0.120160802  nElectrons: 347.000000  magneticMoment: [ Abs: 40.08437  Tot: -0.00000 ]
	SubspaceRotationAdjust: set factor to 0.355
ElecMinimize: Iter: 105  F: -1993.257887888982623  |grad|_K:  2.813e-06  alpha:  2.491e-01  linmin:  3.190e-05  t[s]:   6039.74
	FillingsUpdate:  mu: +0.121363156  nElectrons: 347.000000  magneticMoment: [ Abs: 40.10425  Tot: +0.00000 ]
	SubspaceRotationAdjust: set factor to 0.343
ElecMinimize: Iter: 106  F: -1993.258087784080999  |grad|_K:  2.343e-06  alpha:  1.455e-01  linmin: -3.893e-05  t[s]:   6086.40
	FillingsUpdate:  mu: +0.121775186  nElectrons: 347.000000  magneticMoment: [ Abs: 40.10637  Tot: +0.00000 ]
	SubspaceRotationAdjust: set factor to 0.425
ElecMinimize: Iter: 107  F: -1993.258267264395499  |grad|_K:  2.068e-06  alpha:  1.871e-01  linmin:  1.560e-04  t[s]:   6133.17
	FillingsUpdate:  mu: +0.121976248  nElectrons: 347.000000  magneticMoment: [ Abs: 40.10818  Tot: +0.00000 ]
	SubspaceRotationAdjust: set factor to 0.483
ElecMinimize: Iter: 108  F: -1993.258401887854461  |grad|_K:  2.054e-06  alpha:  1.842e-01  linmin: -1.860e-05  t[s]:   6180.62
	FillingsUpdate:  mu: +0.122662540  nElectrons: 347.000000  magneticMoment: [ Abs: 40.12485  Tot: +0.00000 ]
	SubspaceRotationAdjust: set factor to 0.52
ElecMinimize: Iter: 109  F: -1993.258518144640675  |grad|_K:  2.141e-06  alpha:  1.581e-01  linmin: -1.011e-04  t[s]:   6227.68
	FillingsUpdate:  mu: +0.121054674  nElectrons: 347.000000  magneticMoment: [ Abs: 40.11585  Tot: +0.00000 ]
	SubspaceRotationAdjust: set factor to 0.489
ElecMinimize: Iter: 110  F: -1993.258643431312521  |grad|_K:  2.187e-06  alpha:  1.542e-01  linmin:  9.579e-05  t[s]:   6274.79
	FillingsUpdate:  mu: +0.121123529  nElectrons: 347.000000  magneticMoment: [ Abs: 40.12581  Tot: -0.00000 ]
	SubspaceRotationAdjust: set factor to 0.573
ElecMinimize: Iter: 111  F: -1993.258807181782004  |grad|_K:  2.175e-06  alpha:  1.965e-01  linmin: -2.163e-04  t[s]:   6322.19
	FillingsUpdate:  mu: +0.121386767  nElectrons: 347.000000  magneticMoment: [ Abs: 40.12650  Tot: -0.00000 ]
	SubspaceRotationAdjust: set factor to 0.602
ElecMinimize: Iter: 112  F: -1993.259001537952372  |grad|_K:  2.532e-06  alpha:  2.286e-01  linmin:  8.329e-05  t[s]:   6369.90
	FillingsUpdate:  mu: +0.121363642  nElectrons: 347.000000  magneticMoment: [ Abs: 40.12600  Tot: +0.00000 ]
	SubspaceRotationAdjust: set factor to 0.639
ElecMinimize: Iter: 113  F: -1993.259203583454564  |grad|_K:  2.427e-06  alpha:  1.825e-01  linmin: -2.247e-05  t[s]:   6416.71
	FillingsUpdate:  mu: +0.121134952  nElectrons: 347.000000  magneticMoment: [ Abs: 40.11489  Tot: -0.00000 ]
	SubspaceRotationAdjust: set factor to 0.729
ElecMinimize: Iter: 114  F: -1993.259435260629516  |grad|_K:  2.839e-06  alpha:  2.268e-01  linmin:  3.385e-04  t[s]:   6463.47
	FillingsUpdate:  mu: +0.122777332  nElectrons: 347.000000  magneticMoment: [ Abs: 40.12337  Tot: +0.00000 ]
	SubspaceRotationAdjust: set factor to 0.732
ElecMinimize: Iter: 115  F: -1993.259630216645519  |grad|_K:  3.078e-06  alpha:  1.516e-01  linmin: -3.999e-05  t[s]:   6510.04
	FillingsUpdate:  mu: +0.120681199  nElectrons: 347.000000  magneticMoment: [ Abs: 40.09822  Tot: -0.00000 ]
	SubspaceRotationAdjust: set factor to 0.631
ElecMinimize: Iter: 116  F: -1993.259815100513833  |grad|_K:  3.458e-06  alpha:  1.044e-01  linmin:  2.307e-05  t[s]:   6556.77
	FillingsUpdate:  mu: +0.121550541  nElectrons: 347.000000  magneticMoment: [ Abs: 40.10133  Tot: +0.00000 ]
	SubspaceRotationAdjust: set factor to 0.734
ElecMinimize: Iter: 117  F: -1993.260005383598127  |grad|_K:  2.813e-06  alpha:  9.225e-02  linmin: -1.560e-04  t[s]:   6603.68
	FillingsUpdate:  mu: +0.122058014  nElectrons: 347.000000  magneticMoment: [ Abs: 40.10641  Tot: +0.00000 ]
	SubspaceRotationAdjust: set factor to 0.776
ElecMinimize: Iter: 118  F: -1993.260259841736570  |grad|_K:  3.125e-06  alpha:  1.704e-01  linmin: -5.574e-04  t[s]:   6650.55
	FillingsUpdate:  mu: +0.120925265  nElectrons: 347.000000  magneticMoment: [ Abs: 40.08380  Tot: +0.00000 ]
	SubspaceRotationAdjust: set factor to 0.671
ElecMinimize: Iter: 119  F: -1993.260402340508563  |grad|_K:  3.203e-06  alpha:  6.710e-02  linmin: -6.029e-04  t[s]:   6698.02
	FillingsUpdate:  mu: +0.121926125  nElectrons: 347.000000  magneticMoment: [ Abs: 40.08118  Tot: -0.00000 ]
	SubspaceRotationAdjust: set factor to 0.867
ElecMinimize: Iter: 120  F: -1993.260615882493312  |grad|_K:  2.829e-06  alpha:  1.120e-01  linmin:  4.876e-04  t[s]:   6745.26
	FillingsUpdate:  mu: +0.122753783  nElectrons: 347.000000  magneticMoment: [ Abs: 40.09381  Tot: -0.00000 ]
	SubspaceRotationAdjust: set factor to 0.619
ElecMinimize: Iter: 121  F: -1993.260736437557853  |grad|_K:  3.993e-06  alpha:  9.552e-02  linmin: -6.259e-05  t[s]:   6792.60
	FillingsUpdate:  mu: +0.122383857  nElectrons: 347.000000  magneticMoment: [ Abs: 40.07501  Tot: +0.00000 ]
	SubspaceRotationAdjust: set factor to 0.628
ElecMinimize: Iter: 122  F: -1993.260926087041298  |grad|_K:  2.866e-06  alpha:  6.452e-02  linmin: -1.574e-05  t[s]:   6839.90
	FillingsUpdate:  mu: +0.121632423  nElectrons: 347.000000  magneticMoment: [ Abs: 40.07450  Tot: +0.00000 ]
	SubspaceRotationAdjust: set factor to 0.814
ElecMinimize: Iter: 123  F: -1993.261125980135375  |grad|_K:  2.722e-06  alpha:  1.367e-01  linmin: -1.260e-04  t[s]:   6887.41
	FillingsUpdate:  mu: +0.122351712  nElectrons: 347.000000  magneticMoment: [ Abs: 40.09469  Tot: -0.00000 ]
	SubspaceRotationAdjust: set factor to 0.657
ElecMinimize: Iter: 124  F: -1993.261240730287682  |grad|_K:  3.167e-06  alpha:  8.820e-02  linmin:  3.180e-06  t[s]:   6934.77
	FillingsUpdate:  mu: +0.121484772  nElectrons: 347.000000  magneticMoment: [ Abs: 40.08373  Tot: -0.00000 ]
	SubspaceRotationAdjust: set factor to 0.612
ElecMinimize: Iter: 125  F: -1993.261380512142978  |grad|_K:  2.386e-06  alpha:  7.907e-02  linmin:  1.899e-04  t[s]:   6981.98
	FillingsUpdate:  mu: +0.122561327  nElectrons: 347.000000  magneticMoment: [ Abs: 40.09552  Tot: +0.00000 ]
	SubspaceRotationAdjust: set factor to 0.71
ElecMinimize: Iter: 126  F: -1993.261517341971739  |grad|_K:  2.083e-06  alpha:  1.396e-01  linmin: -1.756e-04  t[s]:   7028.78
	FillingsUpdate:  mu: +0.122739491  nElectrons: 347.000000  magneticMoment: [ Abs: 40.10156  Tot: +0.00000 ]
	SubspaceRotationAdjust: set factor to 0.822
ElecMinimize: Iter: 127  F: -1993.261663015080103  |grad|_K:  2.108e-06  alpha:  1.878e-01  linmin:  9.736e-05  t[s]:   7075.82
	FillingsUpdate:  mu: +0.122466150  nElectrons: 347.000000  magneticMoment: [ Abs: 40.10666  Tot: +0.00000 ]
	SubspaceRotationAdjust: set factor to 0.964
ElecMinimize: Iter: 128  F: -1993.261787950062626  |grad|_K:  2.306e-06  alpha:  1.631e-01  linmin:  3.744e-06  t[s]:   7123.54
	FillingsUpdate:  mu: +0.122730447  nElectrons: 347.000000  magneticMoment: [ Abs: 40.12992  Tot: -0.00000 ]
	SubspaceRotationAdjust: set factor to 0.742
ElecMinimize: Iter: 129  F: -1993.261860210103805  |grad|_K:  2.888e-06  alpha:  7.958e-02  linmin:  7.088e-05  t[s]:   7171.08
	FillingsUpdate:  mu: +0.122082309  nElectrons: 347.000000  magneticMoment: [ Abs: 40.12715  Tot: +0.00000 ]
	SubspaceRotationAdjust: set factor to 0.622
ElecMinimize: Iter: 130  F: -1993.261960577753371  |grad|_K:  2.125e-06  alpha:  6.965e-02  linmin: -2.060e-06  t[s]:   7218.65
	FillingsUpdate:  mu: +0.122315708  nElectrons: 347.000000  magneticMoment: [ Abs: 40.14396  Tot: -0.00000 ]
	SubspaceRotationAdjust: set factor to 0.7
ElecMinimize: Iter: 131  F: -1993.262078995287766  |grad|_K:  1.808e-06  alpha:  1.492e-01  linmin: -4.454e-05  t[s]:   7266.49
	FillingsUpdate:  mu: +0.122255398  nElectrons: 347.000000  magneticMoment: [ Abs: 40.14197  Tot: -0.00000 ]
	SubspaceRotationAdjust: set factor to 0.693
ElecMinimize: Iter: 132  F: -1993.262169093478860  |grad|_K:  2.025e-06  alpha:  1.564e-01  linmin:  2.475e-05  t[s]:   7314.33
	FillingsUpdate:  mu: +0.122784673  nElectrons: 347.000000  magneticMoment: [ Abs: 40.15923  Tot: +0.00000 ]
	SubspaceRotationAdjust: set factor to 0.6
ElecMinimize: Iter: 133  F: -1993.262228301075766  |grad|_K:  2.074e-06  alpha:  8.261e-02  linmin: -8.303e-06  t[s]:   7362.25
	FillingsUpdate:  mu: +0.122572657  nElectrons: 347.000000  magneticMoment: [ Abs: 40.15715  Tot: -0.00000 ]
	SubspaceRotationAdjust: set factor to 0.661
ElecMinimize: Iter: 134  F: -1993.262314093859914  |grad|_K:  1.699e-06  alpha:  1.136e-01  linmin: -3.873e-05  t[s]:   7409.52
	FillingsUpdate:  mu: +0.122693561  nElectrons: 347.000000  magneticMoment: [ Abs: 40.16784  Tot: -0.00000 ]
	SubspaceRotationAdjust: set factor to 0.749
ElecMinimize: Iter: 135  F: -1993.262408781374006  |grad|_K:  1.714e-06  alpha:  1.862e-01  linmin: -7.578e-06  t[s]:   7456.88
	FillingsUpdate:  mu: +0.122085063  nElectrons: 347.000000  magneticMoment: [ Abs: 40.16948  Tot: -0.00000 ]
	SubspaceRotationAdjust: set factor to 0.871
ElecMinimize: Iter: 136  F: -1993.262514008087464  |grad|_K:  1.857e-06  alpha:  2.047e-01  linmin:  3.079e-05  t[s]:   7503.69
	FillingsUpdate:  mu: +0.122477733  nElectrons: 347.000000  magneticMoment: [ Abs: 40.17627  Tot: +0.00000 ]
	SubspaceRotationAdjust: set factor to 0.908
ElecMinimize: Iter: 137  F: -1993.262612604618653  |grad|_K:  2.097e-06  alpha:  1.645e-01  linmin: -6.207e-06  t[s]:   7550.43
	FillingsUpdate:  mu: +0.122056095  nElectrons: 347.000000  magneticMoment: [ Abs: 40.16206  Tot: -0.00000 ]
	SubspaceRotationAdjust: set factor to 0.763
ElecMinimize: Iter: 138  F: -1993.262664896608385  |grad|_K:  2.331e-06  alpha:  6.519e-02  linmin: -1.620e-04  t[s]:   7597.14
	FillingsUpdate:  mu: +0.122504116  nElectrons: 347.000000  magneticMoment: [ Abs: 40.16728  Tot: +0.00000 ]
	SubspaceRotationAdjust: set factor to 0.882
ElecMinimize: Iter: 139  F: -1993.262755154770275  |grad|_K:  1.821e-06  alpha:  9.191e-02  linmin: -8.020e-05  t[s]:   7644.05
	FillingsUpdate:  mu: +0.122832112  nElectrons: 347.000000  magneticMoment: [ Abs: 40.16408  Tot: -0.00000 ]
	SubspaceRotationAdjust: set factor to 0.958
ElecMinimize: Iter: 140  F: -1993.262849726878130  |grad|_K:  1.789e-06  alpha:  1.610e-01  linmin:  3.229e-05  t[s]:   7691.39
	FillingsUpdate:  mu: +0.121686006  nElectrons: 347.000000  magneticMoment: [ Abs: 40.15338  Tot: +0.00000 ]
	SubspaceRotationAdjust: set factor to 0.804
ElecMinimize: Iter: 141  F: -1993.262928683879181  |grad|_K:  2.189e-06  alpha:  1.403e-01  linmin:  1.442e-04  t[s]:   7738.02
	FillingsUpdate:  mu: +0.122266321  nElectrons: 347.000000  magneticMoment: [ Abs: 40.15767  Tot: +0.00000 ]
	SubspaceRotationAdjust: set factor to 0.7
ElecMinimize: Iter: 142  F: -1993.262986707080017  |grad|_K:  2.193e-06  alpha:  7.516e-02  linmin:  1.010e-04  t[s]:   7785.28
	FillingsUpdate:  mu: +0.122470485  nElectrons: 347.000000  magneticMoment: [ Abs: 40.14103  Tot: -0.00000 ]
	SubspaceRotationAdjust: set factor to 0.567
ElecMinimize: Iter: 143  F: -1993.263038645046436  |grad|_K:  1.889e-06  alpha:  6.224e-02  linmin:  9.052e-05  t[s]:   7831.88
	FillingsUpdate:  mu: +0.122151459  nElectrons: 347.000000  magneticMoment: [ Abs: 40.13338  Tot: +0.00000 ]
	SubspaceRotationAdjust: set factor to 0.746
ElecMinimize: Iter: 144  F: -1993.263117602299872  |grad|_K:  1.801e-06  alpha:  1.302e-01  linmin:  1.360e-04  t[s]:   7878.53
	FillingsUpdate:  mu: +0.122091010  nElectrons: 347.000000  magneticMoment: [ Abs: 40.13733  Tot: +0.00000 ]
	SubspaceRotationAdjust: set factor to 0.582
ElecMinimize: Iter: 145  F: -1993.263177313547658  |grad|_K:  2.192e-06  alpha:  1.089e-01  linmin: -8.864e-05  t[s]:   7925.78
	FillingsUpdate:  mu: +0.121863370  nElectrons: 347.000000  magneticMoment: [ Abs: 40.12311  Tot: +0.00000 ]
	SubspaceRotationAdjust: set factor to 0.544
ElecMinimize: Iter: 146  F: -1993.263230111828761  |grad|_K:  1.687e-06  alpha:  5.853e-02  linmin: -1.656e-04  t[s]:   7972.89
	FillingsUpdate:  mu: +0.122322575  nElectrons: 347.000000  magneticMoment: [ Abs: 40.11667  Tot: +0.00000 ]
	SubspaceRotationAdjust: set factor to 0.584
ElecMinimize: Iter: 147  F: -1993.263294000857741  |grad|_K:  1.684e-06  alpha:  1.234e-01  linmin: -1.937e-04  t[s]:   8019.61
	FillingsUpdate:  mu: +0.122040368  nElectrons: 347.000000  magneticMoment: [ Abs: 40.11770  Tot: +0.00000 ]
	SubspaceRotationAdjust: set factor to 0.477
ElecMinimize: Iter: 148  F: -1993.263350183495049  |grad|_K:  1.991e-06  alpha:  1.105e-01  linmin: -5.970e-05  t[s]:   8066.70
	FillingsUpdate:  mu: +0.121823464  nElectrons: 347.000000  magneticMoment: [ Abs: 40.10217  Tot: -0.00000 ]
	SubspaceRotationAdjust: set factor to 0.49
ElecMinimize: Iter: 149  F: -1993.263402829926008  |grad|_K:  1.642e-06  alpha:  7.295e-02  linmin: -5.642e-06  t[s]:   8113.94
	FillingsUpdate:  mu: +0.121446023  nElectrons: 347.000000  magneticMoment: [ Abs: 40.09512  Tot: -0.00000 ]
	SubspaceRotationAdjust: set factor to 0.45
ElecMinimize: Iter: 150  F: -1993.263468206441075  |grad|_K:  1.937e-06  alpha:  1.400e-01  linmin:  1.280e-04  t[s]:   8161.62
	FillingsUpdate:  mu: +0.122167414  nElectrons: 347.000000  magneticMoment: [ Abs: 40.10513  Tot: -0.00000 ]
	SubspaceRotationAdjust: set factor to 0.458
ElecMinimize: Iter: 151  F: -1993.263515103838472  |grad|_K:  1.801e-06  alpha:  7.510e-02  linmin:  5.158e-05  t[s]:   8208.88
	FillingsUpdate:  mu: +0.122243884  nElectrons: 347.000000  magneticMoment: [ Abs: 40.10715  Tot: -0.00000 ]
	SubspaceRotationAdjust: set factor to 0.61
ElecMinimize: Iter: 152  F: -1993.263594731300373  |grad|_K:  1.776e-06  alpha:  1.406e-01  linmin: -7.697e-05  t[s]:   8256.02
	FillingsUpdate:  mu: +0.121470781  nElectrons: 347.000000  magneticMoment: [ Abs: 40.09711  Tot: +0.00000 ]
	SubspaceRotationAdjust: set factor to 0.515
ElecMinimize: Iter: 153  F: -1993.263648649146717  |grad|_K:  2.170e-06  alpha:  9.466e-02  linmin:  3.097e-06  t[s]:   8303.34
	FillingsUpdate:  mu: +0.121806016  nElectrons: 347.000000  magneticMoment: [ Abs: 40.10308  Tot: +0.00000 ]
	SubspaceRotationAdjust: set factor to 0.574
ElecMinimize: Iter: 154  F: -1993.263710777725237  |grad|_K:  1.738e-06  alpha:  7.553e-02  linmin: -2.833e-06  t[s]:   8350.08
	FillingsUpdate:  mu: +0.122127675  nElectrons: 347.000000  magneticMoment: [ Abs: 40.10847  Tot: -0.00000 ]
	SubspaceRotationAdjust: set factor to 0.504
ElecMinimize: Iter: 155  F: -1993.263782421469841  |grad|_K:  2.153e-06  alpha:  1.359e-01  linmin:  3.224e-05  t[s]:   8396.71
	FillingsUpdate:  mu: +0.122446596  nElectrons: 347.000000  magneticMoment: [ Abs: 40.10225  Tot: +0.00000 ]
	SubspaceRotationAdjust: set factor to 0.511
ElecMinimize: Iter: 156  F: -1993.263833977340255  |grad|_K:  1.968e-06  alpha:  6.278e-02  linmin: -5.512e-05  t[s]:   8443.23
	FillingsUpdate:  mu: +0.122071984  nElectrons: 347.000000  magneticMoment: [ Abs: 40.11624  Tot: +0.00000 ]
	SubspaceRotationAdjust: set factor to 0.665
ElecMinimize: Iter: 157  F: -1993.263911739385549  |grad|_K:  1.923e-06  alpha:  1.133e-01  linmin: -1.762e-05  t[s]:   8490.02
	FillingsUpdate:  mu: +0.122051926  nElectrons: 347.000000  magneticMoment: [ Abs: 40.13632  Tot: +0.00000 ]
	SubspaceRotationAdjust: set factor to 0.566
ElecMinimize: Iter: 158  F: -1993.263959805679860  |grad|_K:  2.336e-06  alpha:  7.404e-02  linmin: -7.206e-07  t[s]:   8536.28
	FillingsUpdate:  mu: +0.122062434  nElectrons: 347.000000  magneticMoment: [ Abs: 40.14289  Tot: -0.00000 ]
	SubspaceRotationAdjust: set factor to 0.784
ElecMinimize: Iter: 159  F: -1993.264046024089566  |grad|_K:  1.776e-06  alpha:  9.023e-02  linmin: -2.544e-05  t[s]:   8582.98
	FillingsUpdate:  mu: +0.121875143  nElectrons: 347.000000  magneticMoment: [ Abs: 40.14013  Tot: +0.00000 ]
	SubspaceRotationAdjust: set factor to 0.62
ElecMinimize: Iter: 160  F: -1993.264112097681846  |grad|_K:  2.339e-06  alpha:  1.193e-01  linmin:  1.254e-05  t[s]:   8630.02
	FillingsUpdate:  mu: +0.122052481  nElectrons: 347.000000  magneticMoment: [ Abs: 40.15529  Tot: +0.00000 ]
	SubspaceRotationAdjust: set factor to 0.573
ElecMinimize: Iter: 161  F: -1993.264154638388845  |grad|_K:  1.945e-06  alpha:  4.342e-02  linmin: -9.659e-05  t[s]:   8676.82
	FillingsUpdate:  mu: +0.121815730  nElectrons: 347.000000  magneticMoment: [ Abs: 40.17474  Tot: -0.00000 ]
	SubspaceRotationAdjust: set factor to 0.543
ElecMinimize: Iter: 162  F: -1993.264233499274042  |grad|_K:  2.042e-06  alpha:  1.168e-01  linmin: -1.049e-05  t[s]:   8724.11
	FillingsUpdate:  mu: +0.121866520  nElectrons: 347.000000  magneticMoment: [ Abs: 40.17595  Tot: +0.00000 ]
	SubspaceRotationAdjust: set factor to 0.489
ElecMinimize: Iter: 163  F: -1993.264275027438543  |grad|_K:  1.940e-06  alpha:  5.720e-02  linmin:  1.772e-05  t[s]:   8771.31
	FillingsUpdate:  mu: +0.122908898  nElectrons: 347.000000  magneticMoment: [ Abs: 40.19481  Tot: -0.00000 ]
	SubspaceRotationAdjust: set factor to 0.604
ElecMinimize: Iter: 164  F: -1993.264336448757376  |grad|_K:  1.699e-06  alpha:  9.375e-02  linmin:  7.931e-06  t[s]:   8818.87
	FillingsUpdate:  mu: +0.122461649  nElectrons: 347.000000  magneticMoment: [ Abs: 40.21360  Tot: +0.00000 ]
	SubspaceRotationAdjust: set factor to 0.452
ElecMinimize: Iter: 165  F: -1993.264384642687901  |grad|_K:  2.193e-06  alpha:  9.572e-02  linmin:  5.753e-05  t[s]:   8865.63
	FillingsUpdate:  mu: +0.122298802  nElectrons: 347.000000  magneticMoment: [ Abs: 40.21535  Tot: -0.00000 ]
	SubspaceRotationAdjust: set factor to 0.538
ElecMinimize: Iter: 166  F: -1993.264431605582558  |grad|_K:  1.544e-06  alpha:  5.696e-02  linmin:  1.121e-05  t[s]:   8912.72
	FillingsUpdate:  mu: +0.121536197  nElectrons: 347.000000  magneticMoment: [ Abs: 40.21775  Tot: -0.00000 ]
	SubspaceRotationAdjust: set factor to 0.403
ElecMinimize: Iter: 167  F: -1993.264484500535900  |grad|_K:  2.032e-06  alpha:  1.262e-01  linmin: -7.730e-05  t[s]:   8959.55
	FillingsUpdate:  mu: +0.122282609  nElectrons: 347.000000  magneticMoment: [ Abs: 40.23242  Tot: +0.00000 ]
	SubspaceRotationAdjust: set factor to 0.412
ElecMinimize: Iter: 168  F: -1993.264521748999186  |grad|_K:  1.407e-06  alpha:  5.031e-02  linmin: -3.316e-05  t[s]:   9006.31
	FillingsUpdate:  mu: +0.122340214  nElectrons: 347.000000  magneticMoment: [ Abs: 40.24815  Tot: +0.00000 ]
	SubspaceRotationAdjust: set factor to 0.335
ElecMinimize: Iter: 169  F: -1993.264570312928072  |grad|_K:  1.840e-06  alpha:  1.393e-01  linmin:  1.587e-07  t[s]:   9053.45
	FillingsUpdate:  mu: +0.122642252  nElectrons: 347.000000  magneticMoment: [ Abs: 40.24927  Tot: +0.00000 ]
	SubspaceRotationAdjust: set factor to 0.373
ElecMinimize: Iter: 170  F: -1993.264609583916354  |grad|_K:  1.429e-06  alpha:  6.705e-02  linmin:  3.118e-05  t[s]:   9100.63
	FillingsUpdate:  mu: +0.122018573  nElectrons: 347.000000  magneticMoment: [ Abs: 40.25337  Tot: -0.00000 ]
	SubspaceRotationAdjust: set factor to 0.347
ElecMinimize: Iter: 171  F: -1993.264655050225656  |grad|_K:  1.657e-06  alpha:  1.277e-01  linmin: -3.315e-05  t[s]:   9147.49
	FillingsUpdate:  mu: +0.122422545  nElectrons: 347.000000  magneticMoment: [ Abs: 40.26504  Tot: -0.00000 ]
	SubspaceRotationAdjust: set factor to 0.357
ElecMinimize: Iter: 172  F: -1993.264688664688492  |grad|_K:  1.367e-06  alpha:  6.902e-02  linmin: -1.686e-05  t[s]:   9194.61
	FillingsUpdate:  mu: +0.122694979  nElectrons: 347.000000  magneticMoment: [ Abs: 40.27415  Tot: -0.00000 ]
	SubspaceRotationAdjust: set factor to 0.306
ElecMinimize: Iter: 173  F: -1993.264731737209331  |grad|_K:  1.657e-06  alpha:  1.316e-01  linmin:  1.972e-05  t[s]:   9241.29
	FillingsUpdate:  mu: +0.122947125  nElectrons: 347.000000  magneticMoment: [ Abs: 40.27269  Tot: -0.00000 ]
	SubspaceRotationAdjust: set factor to 0.348
ElecMinimize: Iter: 174  F: -1993.264765836700235  |grad|_K:  1.327e-06  alpha:  7.138e-02  linmin:  4.555e-06  t[s]:   9287.85
	FillingsUpdate:  mu: +0.122367152  nElectrons: 347.000000  magneticMoment: [ Abs: 40.27525  Tot: +0.00000 ]
	SubspaceRotationAdjust: set factor to 0.299
ElecMinimize: Iter: 175  F: -1993.264804309106466  |grad|_K:  1.652e-06  alpha:  1.252e-01  linmin:  1.967e-05  t[s]:   9334.81
	FillingsUpdate:  mu: +0.122468790  nElectrons: 347.000000  magneticMoment: [ Abs: 40.28648  Tot: -0.00000 ]
	SubspaceRotationAdjust: set factor to 0.36
ElecMinimize: Iter: 176  F: -1993.264840011727301  |grad|_K:  1.303e-06  alpha:  7.590e-02  linmin:  1.328e-05  t[s]:   9382.03
	FillingsUpdate:  mu: +0.122148604  nElectrons: 347.000000  magneticMoment: [ Abs: 40.29283  Tot: +0.00000 ]
	SubspaceRotationAdjust: set factor to 0.297
ElecMinimize: Iter: 177  F: -1993.264876874417496  |grad|_K:  1.668e-06  alpha:  1.241e-01  linmin: -4.755e-05  t[s]:   9428.94
	FillingsUpdate:  mu: +0.122457734  nElectrons: 347.000000  magneticMoment: [ Abs: 40.28566  Tot: +0.00000 ]
	SubspaceRotationAdjust: set factor to 0.395
ElecMinimize: Iter: 178  F: -1993.264916266283990  |grad|_K:  1.245e-06  alpha:  7.979e-02  linmin: -3.079e-06  t[s]:   9476.18
	FillingsUpdate:  mu: +0.122130918  nElectrons: 347.000000  magneticMoment: [ Abs: 40.27869  Tot: +0.00000 ]
	SubspaceRotationAdjust: set factor to 0.338
ElecMinimize: Iter: 179  F: -1993.264946821275089  |grad|_K:  1.587e-06  alpha:  1.129e-01  linmin:  3.930e-05  t[s]:   9523.55
	FillingsUpdate:  mu: +0.122479774  nElectrons: 347.000000  magneticMoment: [ Abs: 40.28309  Tot: -0.00000 ]
	SubspaceRotationAdjust: set factor to 0.51
ElecMinimize: Iter: 180  F: -1993.264984561006486  |grad|_K:  1.227e-06  alpha:  8.671e-02  linmin: -1.501e-05  t[s]:   9570.13
	FillingsUpdate:  mu: +0.122492603  nElectrons: 347.000000  magneticMoment: [ Abs: 40.29061  Tot: -0.00000 ]
	SubspaceRotationAdjust: set factor to 0.48
ElecMinimize: Iter: 181  F: -1993.265011431395578  |grad|_K:  1.472e-06  alpha:  1.013e-01  linmin: -9.637e-05  t[s]:   9617.05
	FillingsUpdate:  mu: +0.122427465  nElectrons: 347.000000  magneticMoment: [ Abs: 40.28714  Tot: -0.00000 ]
	SubspaceRotationAdjust: set factor to 0.525
ElecMinimize: Iter: 182  F: -1993.265044781584720  |grad|_K:  1.191e-06  alpha:  8.628e-02  linmin:  1.492e-05  t[s]:   9664.36
	FillingsUpdate:  mu: +0.122478678  nElectrons: 347.000000  magneticMoment: [ Abs: 40.27850  Tot: +0.00000 ]
	SubspaceRotationAdjust: set factor to 0.603
ElecMinimize: Iter: 183  F: -1993.265076239274549  |grad|_K:  1.245e-06  alpha:  1.276e-01  linmin:  2.985e-05  t[s]:   9711.38
	FillingsUpdate:  mu: +0.122531632  nElectrons: 347.000000  magneticMoment: [ Abs: 40.27898  Tot: +0.00000 ]
	SubspaceRotationAdjust: set factor to 0.553
ElecMinimize: Iter: 184  F: -1993.265096722538374  |grad|_K:  1.281e-06  alpha:  7.641e-02  linmin:  3.234e-06  t[s]:   9758.49
	FillingsUpdate:  mu: +0.122047853  nElectrons: 347.000000  magneticMoment: [ Abs: 40.27494  Tot: -0.00000 ]
	SubspaceRotationAdjust: set factor to 0.657
ElecMinimize: Iter: 185  F: -1993.265124784012414  |grad|_K:  1.051e-06  alpha:  9.800e-02  linmin:  2.768e-05  t[s]:   9805.15
	FillingsUpdate:  mu: +0.122058015  nElectrons: 347.000000  magneticMoment: [ Abs: 40.27243  Tot: -0.00000 ]
	SubspaceRotationAdjust: set factor to 0.667
ElecMinimize: Iter: 186  F: -1993.265148950104276  |grad|_K:  1.142e-06  alpha:  1.257e-01  linmin: -2.268e-05  t[s]:   9852.19
	FillingsUpdate:  mu: +0.122393010  nElectrons: 347.000000  magneticMoment: [ Abs: 40.27492  Tot: +0.00000 ]
	SubspaceRotationAdjust: set factor to 0.56
ElecMinimize: Iter: 187  F: -1993.265162397526183  |grad|_K:  1.051e-06  alpha:  5.916e-02  linmin:  1.822e-05  t[s]:   9899.46
	FillingsUpdate:  mu: +0.122307634  nElectrons: 347.000000  magneticMoment: [ Abs: 40.26918  Tot: -0.00000 ]
	SubspaceRotationAdjust: set factor to 0.747
[...]
	FillingsUpdate:  mu: +0.127759370  nElectrons: 347.000000  magneticMoment: [ Abs: 41.29063  Tot: +0.00000 ]
	SubspaceRotationAdjust: set factor to 0.153
ElecMinimize: Iter:  18  F: -1993.319470155823637  |grad|_K:  1.729e-07  alpha:  4.710e-01  linmin:  6.266e-07  t[s]:  51040.52
	FillingsUpdate:  mu: +0.127749287  nElectrons: 347.000000  magneticMoment: [ Abs: 41.29105  Tot: -0.00000 ]
	SubspaceRotationAdjust: set factor to 0.179
ElecMinimize: Iter:  19  F: -1993.319472418340865  |grad|_K:  1.633e-07  alpha:  4.327e-01  linmin: -4.527e-07  t[s]:  51087.48
	FillingsUpdate:  mu: +0.127733785  nElectrons: 347.000000  magneticMoment: [ Abs: 41.29210  Tot: +0.00000 ]
	SubspaceRotationAdjust: set factor to 0.192
ElecMinimize: Iter:  20  F: -1993.319474485087540  |grad|_K:  1.533e-07  alpha:  4.432e-01  linmin: -8.637e-07  t[s]:  51135.06
	FillingsUpdate:  mu: +0.127734207  nElectrons: 347.000000  magneticMoment: [ Abs: 41.29167  Tot: -0.00000 ]
	SubspaceRotationAdjust: set factor to 0.175
ElecMinimize: Iter:  21  F: -1993.319475925123015  |grad|_K:  1.523e-07  alpha:  3.501e-01  linmin:  1.202e-06  t[s]:  51182.05
	FillingsUpdate:  mu: +0.127715025  nElectrons: 347.000000  magneticMoment: [ Abs: 41.29339  Tot: +0.00000 ]
	SubspaceRotationAdjust: set factor to 0.133
ElecMinimize: Iter:  22  F: -1993.319476894480204  |grad|_K:  1.290e-07  alpha:  2.390e-01  linmin:  5.963e-08  t[s]:  51228.67
	FillingsUpdate:  mu: +0.127721707  nElectrons: 347.000000  magneticMoment: [ Abs: 41.29339  Tot: +0.00000 ]
	SubspaceRotationAdjust: set factor to 0.133
ElecMinimize: Iter:  23  F: -1993.319477797020454  |grad|_K:  9.898e-08  alpha:  3.100e-01  linmin:  1.156e-06  t[s]:  51275.47
	FillingsUpdate:  mu: +0.127718708  nElectrons: 347.000000  magneticMoment: [ Abs: 41.29381  Tot: -0.00000 ]
	SubspaceRotationAdjust: set factor to 0.156
ElecMinimize: Iter:  24  F: -1993.319478439490695  |grad|_K:  8.395e-08  alpha:  3.751e-01  linmin:  3.369e-06  t[s]:  51322.17
	FillingsUpdate:  mu: +0.127708333  nElectrons: 347.000000  magneticMoment: [ Abs: 41.29479  Tot: +0.00000 ]
	SubspaceRotationAdjust: set factor to 0.151
ElecMinimize: Iter:  25  F: -1993.319478865001201  |grad|_K:  7.875e-08  alpha:  3.452e-01  linmin: -1.523e-06  t[s]:  51368.78
	FillingsUpdate:  mu: +0.127718762  nElectrons: 347.000000  magneticMoment: [ Abs: 41.29460  Tot: -0.00000 ]
	SubspaceRotationAdjust: set factor to 0.144
ElecMinimize: Iter:  26  F: -1993.319479182975329  |grad|_K:  6.837e-08  alpha:  2.931e-01  linmin: -7.677e-06  t[s]:  51415.55
ElecMinimize: Converged (|Delta F|<1.000000e-06 for 5 iters).
Setting wave functions to eigenvectors of Hamiltonian

# Ionic positions in lattice coordinates:
ion Ni  -0.019027569245185   0.008337142412041   0.171546044891056 1
ion Ni   0.000000000000000   0.000000000000000  -0.050000000000000 0
ion Ni  -0.250000000000000   0.250000000000000  -0.150000000000000 0
ion V   0.485409806628904   0.000360073232685   0.159820947011616 1
ion V  -0.015977899851123   0.504739553814984   0.162340517623318 1
ion V   0.483551840059928   0.501816205346868   0.160223878392076 1
ion V   0.241531678746686   0.244839512585381   0.054654398068312 1
ion V   0.241704224847146   0.755633165298559   0.054466246707757 1
ion V  -0.246909720656672   0.246414069679563   0.054183987516799 1
ion V  -0.246763016804625   0.754306787570380   0.054323490117652 1
ion Co   0.500000000000000   0.000000000000000  -0.050000000000000 0
ion Co   0.000000000000000   0.500000000000000  -0.050000000000000 0
ion Co   0.250000000000000   0.250000000000000  -0.150000000000000 0
ion Co   0.250000000000000   0.750000000000000  -0.150000000000000 0
ion Co  -0.250000000000000   0.750000000000000  -0.150000000000000 0
ion Cr   0.500000000000000   0.500000000000000  -0.050000000000000 0
ion O   0.237146952062667   0.245038719368338   0.155718776933338 1
ion O   0.239307663255436   0.755187660420892   0.154863480381020 1
ion O  -0.267966234936432   0.245566333314973   0.154348240234487 1
ion O  -0.268657866005922   0.756426860244093   0.154332867668108 1
ion O  -0.000630111299708   0.000187269877433   0.045301391257374 1
ion O   0.492296270563664   0.000394396336348   0.056815271496583 1
ion O   0.000995893487933   0.500096267442343   0.057012234554201 1
ion O   0.491051480792707   0.500102626305910   0.050455286653106 1
ion O   0.250000000000000   0.250000000000000  -0.050000000000000 0
ion O   0.250000000000000   0.750000000000000  -0.050000000000000 0
ion O  -0.250000000000000   0.250000000000000  -0.050000000000000 0
ion O  -0.250000000000000   0.750000000000000  -0.050000000000000 0
ion O   0.000000000000000   0.000000000000000  -0.150000000000000 0
ion O   0.500000000000000   0.000000000000000  -0.150000000000000 0
ion O   0.000000000000000   0.500000000000000  -0.150000000000000 0
ion O   0.500000000000000   0.500000000000000  -0.150000000000000 0
ion O  -0.031162780241871  -0.014304512331167   0.260027851672965 1
ion H   0.078807489860062   0.076409926602277   0.280112054859844 1

# Forces in Lattice coordinates:
force Ni  -0.000891637879497  -0.003880203332920  -0.033889154438025 1
force Ni  -0.017236339359599   0.021203636210011  -0.601413512393649 0
force Ni   0.053028591898703  -0.054696973193506   0.160445336053093 0
force V   0.007470951615972   0.003097749134998  -0.008016998515424 1
force V  -0.006001516630655  -0.002772681950609  -0.001371193346403 1
force V   0.003092880954650  -0.002348162805763   0.007590566281780 1
force V   0.000468795663784  -0.000822556451502   0.004895038384190 1
force V   0.001067454857085  -0.000553821171394   0.018723786954031 1
force V  -0.000530570581496  -0.002403160527154   0.025583000987425 1
force V  -0.001377102141598   0.001639162154473   0.020535136287486 1
force Co   0.038805553170918   0.029207284474229  -0.452718524601608 0
force Co  -0.027139899078313  -0.020582180269364  -0.473761180454017 0
force Co  -0.044432037673771  -0.064679718682760  -0.329906951646139 0
force Co  -0.044772589760684   0.067229439431141  -0.319499016952417 0
force Co   0.080127050615255   0.043736851296706  -0.359197597551903 0
force Cr   0.046074789255010  -0.029509283061440  -0.481902848792020 0
force O   0.003389043673830   0.003560190993949   0.007696984348215 1
force O   0.003064324309101   0.000507156874332  -0.015097301857976 1
force O  -0.008567543220671  -0.003317641400684   0.010587441189227 1
force O  -0.010361596561459   0.005472644014581   0.013468180584795 1
force O  -0.003320847141781   0.000247993141132  -0.005995163335607 1
force O   0.000551730401381   0.000295733565233  -0.021900475161226 1
force O  -0.003717496022792   0.001469625751180  -0.013599721262939 1
force O  -0.000973842358572   0.000430049474276  -0.003135298443727 1
force O   0.104798633878239   0.124019558182027   0.465280608013804 0
force O   0.101668987563131  -0.120907003834340   0.518287765701571 0
force O  -0.105540037977957   0.108622948841549   0.426641937618061 0
force O  -0.112756867978730  -0.099945087532029   0.373719635419113 0
force O   0.060428680804115  -0.068243363460962   0.371794095030988 0
force O  -0.077719390353743  -0.073448114355520   0.020922946616082 0
force O   0.073679822319909   0.070556835877601   0.057107327787019 0
force O  -0.072786600634556   0.071182378528350   0.580136841254832 0
force O   0.005422673863894   0.003551063505248   0.027567506471598 1
force H  -0.017541316742392  -0.012250885816138  -0.045175956964838 1

# Energy components:
   Eewald =     5140.2591782043073181
       EH =     6936.5790054274120848
     Eloc =   -14233.2851246935970266
      Enl =     -514.8430190455828779
   Epulay =       -0.0004810744731046
      Exc =     -245.2777124407787142
       KE =      922.2062993512572575
        U =        1.0435777681171139
-------------------------------------
     Etot =    -1993.3182765033368469
       TS =        0.0012026796385523
-------------------------------------
        F =    -1993.3194791829753285

IonicMinimize: Iter:  19  F: -1993.319479182975329  |grad|_K:  4.551e-04  alpha:  1.000e+00  linmin:  9.336e-04  t[s]:  51431.98

#--- Lowdin population analysis ---
# oxidation-state Ni +3.783 +3.441 +3.641
# magnetic-moments Ni +1.022 +0.806 -0.667
# oxidation-state V +1.190 +1.113 +1.132 +1.061 +1.061 +1.004 +1.005
# magnetic-moments V -2.687 +2.942 -2.828 +2.707 +2.698 -2.878 -2.872
# oxidation-state Co +1.200 +1.201 +1.247 +1.207 +1.247
# magnetic-moments Co +2.665 -2.654 -2.702 -2.650 +2.702
# oxidation-state Cr +2.955
# magnetic-moments Cr +3.410
# oxidation-state O -0.903 -0.900 -0.890 -0.895 -0.831 -0.929 -0.933 -0.900 -0.924 -0.927 -0.875 -0.924 -0.919 -1.009 -1.007 -0.924 -0.793
# magnetic-moments O +0.085 +0.070 +0.134 +0.117 +0.074 +0.023 -0.045 -0.044 -0.044 -0.044 -0.048 +0.051 +0.094 +0.071 -0.062 -0.095 +0.279
# oxidation-state H +0.371
# magnetic-moments H -0.005


-------- Electronic minimization -----------
	FillingsUpdate:  mu: +0.126628329  nElectrons: 347.000000  magneticMoment: [ Abs: 41.30928  Tot: +0.00000 ]
ElecMinimize: Iter:   0  F: -1993.318672984561545  |grad|_K:  4.968e-06  alpha:  1.000e+00
	FillingsUpdate:  mu: +0.127674561  nElectrons: 347.000000  magneticMoment: [ Abs: 41.29171  Tot: +0.00000 ]
	SubspaceRotationAdjust: set factor to 0.0886
ElecMinimize: Iter:   1  F: -1993.319429780872269  |grad|_K:  1.326e-06  alpha:  1.763e-01  linmin:  2.395e-03  t[s]:  51514.18
	FillingsUpdate:  mu: +0.127614701  nElectrons: 347.000000  magneticMoment: [ Abs: 41.29984  Tot: -0.00000 ]
	SubspaceRotationAdjust: set factor to 0.0501
ElecMinimize: Iter:   2  F: -1993.319479052727502  |grad|_K:  5.106e-07  alpha:  1.611e-01  linmin:  8.832e-05  t[s]:  51561.05
	FillingsUpdate:  mu: +0.127598379  nElectrons: 347.000000  magneticMoment: [ Abs: 41.29835  Tot: -0.00000 ]
	SubspaceRotationAdjust: set factor to 0.0632
ElecMinimize: Iter:   3  F: -1993.319493134710001  |grad|_K:  2.827e-07  alpha:  3.091e-01  linmin:  1.220e-06  t[s]:  51608.38
	FillingsUpdate:  mu: +0.127622702  nElectrons: 347.000000  magneticMoment: [ Abs: 41.29712  Tot: +0.00000 ]
	SubspaceRotationAdjust: set factor to 0.0648
ElecMinimize: Iter:   4  F: -1993.319497302058608  |grad|_K:  1.879e-07  alpha:  2.983e-01  linmin:  1.932e-06  t[s]:  51655.60
	FillingsUpdate:  mu: +0.127640755  nElectrons: 347.000000  magneticMoment: [ Abs: 41.29693  Tot: -0.00000 ]
	SubspaceRotationAdjust: set factor to 0.075
ElecMinimize: Iter:   5  F: -1993.319499249542559  |grad|_K:  1.376e-07  alpha:  3.155e-01  linmin: -3.926e-06  t[s]:  51702.61
	FillingsUpdate:  mu: +0.127647085  nElectrons: 347.000000  magneticMoment: [ Abs: 41.29710  Tot: +0.00000 ]
	SubspaceRotationAdjust: set factor to 0.0872
ElecMinimize: Iter:   6  F: -1993.319500379714555  |grad|_K:  1.146e-07  alpha:  3.411e-01  linmin: -1.714e-06  t[s]:  51749.51
	FillingsUpdate:  mu: +0.127657054  nElectrons: 347.000000  magneticMoment: [ Abs: 41.29684  Tot: -0.00000 ]
	SubspaceRotationAdjust: set factor to 0.109
ElecMinimize: Iter:   7  F: -1993.319501329719515  |grad|_K:  1.029e-07  alpha:  4.133e-01  linmin: -1.815e-06  t[s]:  51796.25
	FillingsUpdate:  mu: +0.127672163  nElectrons: 347.000000  magneticMoment: [ Abs: 41.29634  Tot: -0.00000 ]
	SubspaceRotationAdjust: set factor to 0.127
ElecMinimize: Iter:   8  F: -1993.319502217999343  |grad|_K:  1.154e-07  alpha:  4.796e-01  linmin: -1.760e-06  t[s]:  51843.06
	FillingsUpdate:  mu: +0.127679659  nElectrons: 347.000000  magneticMoment: [ Abs: 41.29630  Tot: -0.00000 ]
	SubspaceRotationAdjust: set factor to 0.145
ElecMinimize: Iter:   9  F: -1993.319503283253198  |grad|_K:  1.199e-07  alpha:  4.575e-01  linmin:  1.229e-06  t[s]:  51889.46
	FillingsUpdate:  mu: +0.127688618  nElectrons: 347.000000  magneticMoment: [ Abs: 41.29586  Tot: -0.00000 ]
	SubspaceRotationAdjust: set factor to 0.158
ElecMinimize: Iter:  10  F: -1993.319504447105828  |grad|_K:  1.233e-07  alpha:  4.631e-01  linmin:  1.490e-06  t[s]:  51936.02
	FillingsUpdate:  mu: +0.127691848  nElectrons: 347.000000  magneticMoment: [ Abs: 41.29572  Tot: -0.00000 ]
	SubspaceRotationAdjust: set factor to 0.169
ElecMinimize: Iter:  11  F: -1993.319505420722862  |grad|_K:  1.090e-07  alpha:  3.664e-01  linmin:  1.600e-07  t[s]:  51982.61
	FillingsUpdate:  mu: +0.127691230  nElectrons: 347.000000  magneticMoment: [ Abs: 41.29576  Tot: -0.00000 ]
	SubspaceRotationAdjust: set factor to 0.177
ElecMinimize: Iter:  12  F: -1993.319506186387571  |grad|_K:  9.099e-08  alpha:  3.684e-01  linmin:  2.480e-07  t[s]:  52030.17
	FillingsUpdate:  mu: +0.127687399  nElectrons: 347.000000  magneticMoment: [ Abs: 41.29566  Tot: +0.00000 ]
	SubspaceRotationAdjust: set factor to 0.184
ElecMinimize: Iter:  13  F: -1993.319506723977383  |grad|_K:  7.478e-08  alpha:  3.714e-01  linmin: -1.342e-06  t[s]:  52077.31
	FillingsUpdate:  mu: +0.127678133  nElectrons: 347.000000  magneticMoment: [ Abs: 41.29616  Tot: +0.00000 ]
	SubspaceRotationAdjust: set factor to 0.176
ElecMinimize: Iter:  14  F: -1993.319507017075466  |grad|_K:  6.392e-08  alpha:  2.995e-01  linmin:  1.098e-06  t[s]:  52124.00
	FillingsUpdate:  mu: +0.127683363  nElectrons: 347.000000  magneticMoment: [ Abs: 41.29587  Tot: +0.00000 ]
	SubspaceRotationAdjust: set factor to 0.155
ElecMinimize: Iter:  15  F: -1993.319507210527490  |grad|_K:  5.496e-08  alpha:  2.708e-01  linmin: -4.015e-06  t[s]:  52171.23
ElecMinimize: Converged (|Delta F|<1.000000e-06 for 5 iters).
Setting wave functions to eigenvectors of Hamiltonian

# Ionic positions in lattice coordinates:
ion Ni  -0.019107791997055   0.008384104029517   0.171452695315561 1
ion Ni   0.000000000000000   0.000000000000000  -0.050000000000000 0
ion Ni  -0.250000000000000   0.250000000000000  -0.150000000000000 0
ion V   0.485341068831215   0.000450032860957   0.159766767004422 1
ion V  -0.016281752644128   0.504783859623827   0.162271931794087 1
ion V   0.483402215517284   0.501796814943148   0.160165219504496 1
ion V   0.241505919159331   0.244892276759166   0.054566102801233 1
ion V   0.241714664974979   0.755608398818043   0.054415199073762 1
ion V  -0.247065271298874   0.246414772272373   0.054181221128885 1
ion V  -0.246955606154968   0.754331441707145   0.054302316995297 1
ion Co   0.500000000000000   0.000000000000000  -0.050000000000000 0
ion Co   0.000000000000000   0.500000000000000  -0.050000000000000 0
ion Co   0.250000000000000   0.250000000000000  -0.150000000000000 0
ion Co   0.250000000000000   0.750000000000000  -0.150000000000000 0
ion Co  -0.250000000000000   0.750000000000000  -0.150000000000000 0
ion Cr   0.500000000000000   0.500000000000000  -0.050000000000000 0
ion O   0.237146177127704   0.245203178722359   0.155703681762975 1
ion O   0.239468344531017   0.755143214035267   0.154801338612227 1
ion O  -0.268054841236436   0.245563362002478   0.154300772885645 1
ion O  -0.268858589532012   0.756499616509452   0.154276353229586 1
ion O  -0.000707994944876   0.000180347578290   0.045223401813068 1
ion O   0.492371768614801   0.000430069843104   0.056642927373883 1
ion O   0.000950667944310   0.500149384688375   0.056829811858161 1
ion O   0.490974979588230   0.500104059713540   0.050368102449792 1
ion O   0.250000000000000   0.250000000000000  -0.050000000000000 0
ion O   0.250000000000000   0.750000000000000  -0.050000000000000 0
ion O  -0.250000000000000   0.250000000000000  -0.050000000000000 0
ion O  -0.250000000000000   0.750000000000000  -0.050000000000000 0
ion O   0.000000000000000   0.000000000000000  -0.150000000000000 0
ion O   0.500000000000000   0.000000000000000  -0.150000000000000 0
ion O   0.000000000000000   0.500000000000000  -0.150000000000000 0
ion O   0.500000000000000   0.500000000000000  -0.150000000000000 0
ion O  -0.031617891209093  -0.014684149714311   0.259923763856835 1
ion H   0.078045078350282   0.075882505922093   0.279941442138546 1

# Forces in Lattice coordinates:
force Ni   0.000032140464129  -0.005030586670995  -0.006951952641796 1
force Ni  -0.017721484695385   0.021131169449681  -0.615084826420903 0
force Ni   0.053602492939738  -0.055293864860797   0.164428533680017 0
force V  -0.000970807214041   0.003319731212410  -0.013920544168075 1
force V  -0.004088945969952   0.002266396200754  -0.011226706444177 1
force V  -0.000093477907841  -0.000462532233084  -0.002476881255182 1
force V  -0.001591774528421  -0.000513207135316   0.000686205527108 1
force V  -0.000250201935020   0.000882925073618   0.007973528306396 1
force V   0.000640112927274  -0.000768670849349   0.006172601142289 1
force V  -0.001012491833427   0.000536611933807   0.002731149150495 1
force Co   0.039024434818779   0.029123976020663  -0.455433647583470 0
force Co  -0.027561594732590  -0.020524496165862  -0.475875042043056 0
force Co  -0.044512889575007  -0.064656087906412  -0.329855147800299 0
force Co  -0.044790874641654   0.067198820630073  -0.318981434273816 0
force Co   0.080093665847705   0.043836494832070  -0.358212369363411 0
force Cr   0.046341998381938  -0.029427599640839  -0.487584908605264 0
force O   0.001884031614784   0.003911713785984   0.012429410164562 1
force O   0.001504477136400  -0.000947695196083  -0.002908825990161 1
force O  -0.007131076086945  -0.001844321470884   0.016253372393812 1
force O  -0.009412152512348   0.003675534832652   0.015198475931283 1
force O  -0.003591529992308  -0.000044672230539   0.015483976210403 1
force O  -0.000343901534701   0.000477551677120  -0.017934736012235 1
force O  -0.002256982440856   0.001371093723945  -0.011883756162725 1
force O   0.000039819780505   0.000200834009639   0.005684279171165 1
force O   0.104796541079204   0.123688785513083   0.463386101438050 0
force O   0.101531061268627  -0.120691279066008   0.517578987830692 0
force O  -0.105026416477691   0.108364992067270   0.428636231977527 0
force O  -0.112102747780144  -0.099787251336287   0.374377784812220 0
force O   0.060391795228897  -0.068222426943060   0.372536540880278 0
force O  -0.077683128431500  -0.073361566009478   0.018936479279633 0
force O   0.073539975615820   0.070501477272294   0.055091620142977 0
force O  -0.072826288592538   0.071231051330537   0.579704147131748 0
force O  -0.011583287075560  -0.010151236930939  -0.010691963181165 1
force H  -0.000331351513351   0.001955765668113  -0.002149644799370 1

# Energy components:
   Eewald =     5142.4991916415374362
       EH =     6938.8150740534028955
     Eloc =   -14237.7666456022197963
      Enl =     -514.8457828744087692
   Epulay =       -0.0004810744731046
      Exc =     -245.2805652315735188
       KE =      922.2173146607677836
        U =        1.0435901701576453
-------------------------------------
     Etot =    -1993.3183042568093697
       TS =        0.0012029537181487
-------------------------------------
        F =    -1993.3195072105274903

IonicMinimize: Iter:  20  F: -1993.319507210527490  |grad|_K:  3.048e-04  alpha:  1.000e+00  linmin: -1.652e-02  t[s]:  52187.25
IonicMinimize: Converged (|Delta F|<1.000000e-04 for 3 iters).

#--- Lowdin population analysis ---
# oxidation-state Ni +3.782 +3.442 +3.641
# magnetic-moments Ni +1.022 +0.807 -0.667
# oxidation-state V +1.190 +1.113 +1.132 +1.061 +1.061 +1.004 +1.005
# magnetic-moments V -2.689 +2.942 -2.829 +2.708 +2.698 -2.878 -2.872
# oxidation-state Co +1.200 +1.201 +1.247 +1.207 +1.247
# magnetic-moments Co +2.665 -2.654 -2.702 -2.650 +2.702
# oxidation-state Cr +2.954
# magnetic-moments Cr +3.410
# oxidation-state O -0.904 -0.901 -0.890 -0.895 -0.830 -0.929 -0.933 -0.899 -0.924 -0.927 -0.875 -0.924 -0.919 -1.009 -1.007 -0.924 -0.794
# magnetic-moments O +0.085 +0.069 +0.134 +0.117 +0.075 +0.023 -0.046 -0.044 -0.044 -0.044 -0.048 +0.052 +0.094 +0.071 -0.061 -0.095 +0.279
# oxidation-state H +0.371
# magnetic-moments H -0.005


Dumping 'run.ionpos' ... done
Dumping 'run.lattice' ... done
Dumping 'run.Ecomponents' ... done
End date and time: Sat May 17 11:48:24 2025  (Duration: 0-14:29:51.51)
Done!
