/var/spool/slurmd/job44027/slurm_script: line 9: module: command not found
/var/spool/slurmd/job44027/slurm_script: line 10: module: command not found

*************** JDFTx 1.7.0  ***************

Start date and time: Tue May  6 13:02:53 2025
Executable /data2/jt577/jdftx_eat_withLibXC/build/jdftx with command-line: -i /data2/jt577/May_2025/Relax_Mag/rel1+1_6/OH/runs/calc_/run.in
Running on hosts (process indices):  node3301 (0-8)
Divided in process groups (process indices):  0 (0)  1 (1)  2 (2)  3 (3)  4 (4)  5 (5)  6 (6)  7 (7)  8 (8)
Resource initialization completed at t[s]:      0.00
Run totals: 9 processes, 63 threads, 0 GPUs


Input parsed successfully to the following command list (including defaults):

add-mix 
add-U 	Ni d 0.22 \
	V d 0.12 \
	Co d 0.2 \
	Cr d 0.16
basis kpoint-dependent
coords-type Lattice
core-overlap-check vector
coulomb-interaction Periodic
davidson-band-ratio 1.1
dump End IonicPositions Lattice Ecomponents
dump-name run.$VAR
elec-cutoff 30
elec-eigen-algo Davidson
elec-ex-corr gga-x-rpbe gga-c-pbe
elec-smearing Fermi 0.001
electronic-minimize  \
	dirUpdateScheme      FletcherReeves \
	linminMethod         DirUpdateRecommended \
	nIterations          1000 \
	history              15 \
	knormThreshold       0 \
	energyDiffThreshold  1e-06 \
	nEnergyDiff          5 \
	alphaTstart          1 \
	alphaTmin            1e-10 \
	updateTestStepSize   yes \
	alphaTreduceFactor   0.1 \
	alphaTincreaseFactor 3 \
	nAlphaAdjustMax      3 \
	wolfeEnergy          0.0001 \
	wolfeGradient        0.9 \
	fdTest               no
exchange-regularization WignerSeitzTruncated
fluid None
fluid-ex-corr (null) lda-PZ
fluid-gummel-loop 10 1.000000e-05
fluid-minimize  \
	dirUpdateScheme      PolakRibiere \
	linminMethod         DirUpdateRecommended \
	nIterations          100 \
	history              15 \
	knormThreshold       0 \
	energyDiffThreshold  0 \
	nEnergyDiff          2 \
	alphaTstart          1 \
	alphaTmin            1e-10 \
	updateTestStepSize   yes \
	alphaTreduceFactor   0.1 \
	alphaTincreaseFactor 3 \
	nAlphaAdjustMax      3 \
	wolfeEnergy          0.0001 \
	wolfeGradient        0.9 \
	fdTest               no
fluid-solvent H2O 55.338 ScalarEOS \
	epsBulk 78.4 \
	pMol 0.92466 \
	epsInf 1.77 \
	Pvap 1.06736e-10 \
	sigmaBulk 4.62e-05 \
	Rvdw 2.61727 \
	Res 1.42 \
	tauNuc 343133 \
	poleEl 15 7 1
forces-output-coords Positions
initial-magnetic-moments  \
	Ni 1 -1 1 \
	V -1 1 -1 1 1 -1 -1 \
	Co 1 -1 -1 -1 1 \
	Cr 1
initial-state run.$VAR
ion Ni  0.000000000000000   0.000000000000000   0.150000000000000 1
ion Ni  0.000000000000000   0.000000000000000  -0.050000000000000 0
ion Ni -0.250000000000000   0.250000000000000  -0.150000000000000 0
ion V  0.500000000000000   0.000000000000000   0.150000000000000 1
ion V  0.000000000000000   0.500000000000000   0.150000000000000 1
ion V  0.500000000000000   0.500000000000000   0.150000000000000 1
ion V  0.250000000000000   0.250000000000000   0.050000000000000 1
ion V  0.250000000000000   0.750000000000000   0.050000000000000 1
ion V -0.250000000000000   0.250000000000000   0.050000000000000 1
ion V -0.250000000000000   0.750000000000000   0.050000000000000 1
ion Co  0.500000000000000   0.000000000000000  -0.050000000000000 0
ion Co  0.000000000000000   0.500000000000000  -0.050000000000000 0
ion Co  0.250000000000000   0.250000000000000  -0.150000000000000 0
ion Co  0.250000000000000   0.750000000000000  -0.150000000000000 0
ion Co -0.250000000000000   0.750000000000000  -0.150000000000000 0
ion Cr  0.500000000000000   0.500000000000000  -0.050000000000000 0
ion O  0.250000000000000   0.250000000000000   0.150000000000000 1
ion O  0.250000000000000   0.750000000000000   0.150000000000000 1
ion O -0.250000000000000   0.250000000000000   0.150000000000000 1
ion O -0.250000000000000   0.750000000000000   0.150000000000000 1
ion O  0.000000000000000   0.000000000000000   0.050000000000000 1
ion O  0.500000000000000   0.000000000000000   0.050000000000000 1
ion O  0.000000000000000   0.500000000000000   0.050000000000000 1
ion O  0.500000000000000   0.500000000000000   0.050000000000000 1
ion O  0.250000000000000   0.250000000000000  -0.050000000000000 0
ion O  0.250000000000000   0.750000000000000  -0.050000000000000 0
ion O -0.250000000000000   0.250000000000000  -0.050000000000000 0
ion O -0.250000000000000   0.750000000000000  -0.050000000000000 0
ion O  0.000000000000000   0.000000000000000  -0.150000000000000 0
ion O  0.500000000000000   0.000000000000000  -0.150000000000000 0
ion O  0.000000000000000   0.500000000000000  -0.150000000000000 0
ion O  0.500000000000000   0.500000000000000  -0.150000000000000 0
ion O -0.008040138212305  -0.008269777577920   0.235000196603227 1
ion H  0.095742872057713   0.094897636790041   0.252810710255288 1
ion-species SG15/$ID_ONCV_PBE.upf
ion-width 0
ionic-minimize  \
	dirUpdateScheme      L-BFGS \
	linminMethod         DirUpdateRecommended \
	nIterations          1000 \
	history              15 \
	knormThreshold       0.0001 \
	energyDiffThreshold  0.0001 \
	nEnergyDiff          3 \
	alphaTstart          1 \
	alphaTmin            1e-10 \
	updateTestStepSize   yes \
	alphaTreduceFactor   0.1 \
	alphaTincreaseFactor 3 \
	nAlphaAdjustMax      3 \
	wolfeEnergy          0.0001 \
	wolfeGradient        0.9 \
	fdTest               no
kpoint   0.500000000000   0.500000000000   0.500000000000  1.00000000000000
kpoint-folding 3 3 1 
latt-move-scale 1 1 1
latt-scale 1 1 1 
lattice  \
	   8.140000000000001    8.140000000000001    0.000000000000000  \
	   8.140000000000001   -8.140000000000001    0.000000000000000  \
	   0.000000000000000    0.000000000000000   40.700000000000003 
lattice-minimize  \
	dirUpdateScheme      L-BFGS \
	linminMethod         DirUpdateRecommended \
	nIterations          0 \
	history              15 \
	knormThreshold       0 \
	energyDiffThreshold  1e-06 \
	nEnergyDiff          2 \
	alphaTstart          1 \
	alphaTmin            1e-10 \
	updateTestStepSize   yes \
	alphaTreduceFactor   0.1 \
	alphaTincreaseFactor 3 \
	nAlphaAdjustMax      3 \
	wolfeEnergy          0.0001 \
	wolfeGradient        0.9 \
	fdTest               no
lcao-params -1 1e-06 0.001
pcm-variant GLSSA13
spintype z-spin
subspace-rotation-factor 1 yes
symmetries none
symmetry-threshold 0.0001


Applied RMS atom displacement 0 bohrs to make symmetries exact.

---------- Initializing the Grid ----------
R = 
[         8.14         8.14            0  ]
[         8.14        -8.14            0  ]
[            0            0         40.7  ]
unit cell volume = 5393.53
G =
[   0.385945   0.385945         -0  ]
[   0.385945  -0.385945         -0  ]
[         -0         -0   0.154378  ]
Minimum fftbox size, Smin = [  60  60  204  ]
Chosen fftbox size, S = [  60  60  210  ]

---------- Exchange Correlation functional ----------
Initialized LibXC exchange functional 'Hammer, Hansen, and Norskov'
Initialized LibXC correlation functional 'Perdew, Burke & Ernzerhof'

---------- Setting up pseudopotentials ----------
Width of ionic core gaussian charges (only for fluid interactions / plotting) set to 0

Reading pseudopotential file '/data2/jt577/jdftx_eat_withLibXC/build/pseudopotentials/SG15/Ni_ONCV_PBE.upf':
  'Ni' pseudopotential, 'PBE' functional
  Generated using ONCVPSP code by D. R. Hamann
  Author: Martin Schlipf and Francois Gygi  Date: 150915.
  18 valence electrons, 4 orbitals, 6 projectors, 1292 radial grid points, with lMax = 2
  Transforming local potential to a uniform radial grid of dG=0.02 with 1419 points.
  Transforming nonlocal projectors to a uniform radial grid of dG=0.02 with 528 points.
    3S    l: 0   occupation:  2.0   eigenvalue: -4.081355
    3P    l: 1   occupation:  6.0   eigenvalue: -2.623460
    4S    l: 0   occupation:  2.0   eigenvalue: -0.207378
    3D    l: 2   occupation:  8.0   eigenvalue: -0.326118
  Transforming atomic orbitals to a uniform radial grid of dG=0.02 with 528 points.
  WARNING: large normalization error in atomic orbital 1s (integral: 0.000006).
  Core radius for overlap checks: 1.99 bohrs.
  Reading pulay file /data2/jt577/jdftx_eat_withLibXC/build/pseudopotentials/SG15/Ni_ONCV_PBE.pulay ... using dE_dnG = -7.250568e-04 computed for Ecut = 30.

Reading pseudopotential file '/data2/jt577/jdftx_eat_withLibXC/build/pseudopotentials/SG15/V_ONCV_PBE.upf':
  'V' pseudopotential, 'PBE' functional
  Generated using ONCVPSP code by D. R. Hamann
  Author: Martin Schlipf and Francois Gygi  Date: 150915.
  13 valence electrons, 4 orbitals, 6 projectors, 1536 radial grid points, with lMax = 2
  Transforming local potential to a uniform radial grid of dG=0.02 with 1419 points.
  Transforming nonlocal projectors to a uniform radial grid of dG=0.02 with 528 points.
    3S    l: 0   occupation:  2.0   eigenvalue: -2.581105
    3P    l: 1   occupation:  6.0   eigenvalue: -1.618486
    4S    l: 0   occupation:  2.0   eigenvalue: -0.172804
    3D    l: 2   occupation:  3.0   eigenvalue: -0.189795
  Transforming atomic orbitals to a uniform radial grid of dG=0.02 with 528 points.
  Core radius for overlap checks: 1.80 bohrs.
  Reading pulay file /data2/jt577/jdftx_eat_withLibXC/build/pseudopotentials/SG15/V_ONCV_PBE.pulay ... using dE_dnG = -1.698632e-04 computed for Ecut = 30.

Reading pseudopotential file '/data2/jt577/jdftx_eat_withLibXC/build/pseudopotentials/SG15/Co_ONCV_PBE.upf':
  'Co' pseudopotential, 'PBE' functional
  Generated using ONCVPSP code by D. R. Hamann
  Author: Martin Schlipf and Francois Gygi  Date: 150915.
  17 valence electrons, 4 orbitals, 6 projectors, 1388 radial grid points, with lMax = 2
  Transforming local potential to a uniform radial grid of dG=0.02 with 1419 points.
  Transforming nonlocal projectors to a uniform radial grid of dG=0.02 with 528 points.
    3S    l: 0   occupation:  2.0   eigenvalue: -3.763303
    3P    l: 1   occupation:  6.0   eigenvalue: -2.412101
    4S    l: 0   occupation:  2.0   eigenvalue: -0.201022
    3D    l: 2   occupation:  7.0   eigenvalue: -0.301498
  Transforming atomic orbitals to a uniform radial grid of dG=0.02 with 528 points.
  Core radius for overlap checks: 1.94 bohrs.
  Reading pulay file /data2/jt577/jdftx_eat_withLibXC/build/pseudopotentials/SG15/Co_ONCV_PBE.pulay ... using dE_dnG = -9.787391e-05 computed for Ecut = 30.

Reading pseudopotential file '/data2/jt577/jdftx_eat_withLibXC/build/pseudopotentials/SG15/Cr_ONCV_PBE.upf':
  'Cr' pseudopotential, 'PBE' functional
  Generated using ONCVPSP code by D. R. Hamann
  Author: Martin Schlipf and Francois Gygi  Date: 150915.
  14 valence electrons, 4 orbitals, 6 projectors, 1160 radial grid points, with lMax = 2
  Transforming local potential to a uniform radial grid of dG=0.02 with 1419 points.
  Transforming nonlocal projectors to a uniform radial grid of dG=0.02 with 528 points.
    3S    l: 0   occupation:  2.0   eigenvalue: -2.865131
    3P    l: 1   occupation:  6.0   eigenvalue: -1.810600
    4S    l: 0   occupation:  2.0   eigenvalue: -0.180525
    3D    l: 2   occupation:  4.0   eigenvalue: -0.220312
  Transforming atomic orbitals to a uniform radial grid of dG=0.02 with 528 points.
  WARNING: large normalization error in atomic orbital 1s (integral: 0.000001).
  Core radius for overlap checks: 2.10 bohrs.
  Reading pulay file /data2/jt577/jdftx_eat_withLibXC/build/pseudopotentials/SG15/Cr_ONCV_PBE.pulay ... using dE_dnG = -9.817895e-06 computed for Ecut = 30.

Reading pseudopotential file '/data2/jt577/jdftx_eat_withLibXC/build/pseudopotentials/SG15/O_ONCV_PBE.upf':
  'O' pseudopotential, 'PBE' functional
  Generated using ONCVPSP code by D. R. Hamann
  Author: Martin Schlipf and Francois Gygi  Date: 150915.
  6 valence electrons, 2 orbitals, 4 projectors, 936 radial grid points, with lMax = 1
  Transforming local potential to a uniform radial grid of dG=0.02 with 1419 points.
  Transforming nonlocal projectors to a uniform radial grid of dG=0.02 with 528 points.
    2S    l: 0   occupation:  2.0   eigenvalue: -0.880572
    2P    l: 1   occupation:  4.0   eigenvalue: -0.331869
  Transforming atomic orbitals to a uniform radial grid of dG=0.02 with 528 points.
  Core radius for overlap checks: 1.29 bohrs.
  Reading pulay file /data2/jt577/jdftx_eat_withLibXC/build/pseudopotentials/SG15/O_ONCV_PBE.pulay ... using dE_dnG = -8.209514e-03 computed for Ecut = 30.

Reading pseudopotential file '/data2/jt577/jdftx_eat_withLibXC/build/pseudopotentials/SG15/H_ONCV_PBE.upf':
  'H' pseudopotential, 'PBE' functional
  Generated using ONCVPSP code by D. R. Hamann
  Author: Martin Schlipf and Francois Gygi  Date: 150915.
  1 valence electrons, 1 orbitals, 2 projectors, 1166 radial grid points, with lMax = 0
  Transforming local potential to a uniform radial grid of dG=0.02 with 1419 points.
  Transforming nonlocal projectors to a uniform radial grid of dG=0.02 with 528 points.
    1S    l: 0   occupation:  1.0   eigenvalue: -0.238602
  Transforming atomic orbitals to a uniform radial grid of dG=0.02 with 528 points.
  Core radius for overlap checks: 1.01 bohrs.
  Reading pulay file /data2/jt577/jdftx_eat_withLibXC/build/pseudopotentials/SG15/H_ONCV_PBE.pulay ... using dE_dnG = -8.245991e-05 computed for Ecut = 30.

Initialized 6 species with 34 total atoms.

Folded 1 k-points by 3x3x1 to 9 k-points.

---------- Setting up k-points, bands, fillings ----------
No reducable k-points. 
Computing the number of bands and number of electrons
Calculating initial fillings.
nElectrons: 347.000000   nBands: 229   nStates: 18

----- Setting up reduced wavefunction bases (one per k-point) -----
average nbasis = 42312.000 , ideal nbasis = 42330.081

---------- Setting up ewald sum ----------
Optimum gaussian width for ewald sums = 3.887061 bohr.
Real space sum over 605 unit cells with max indices [  5  5  2  ]
Reciprocal space sum over 5915 terms with max indices [  6  6  17  ]

---------- Allocating electronic variables ----------
Initializing wave functions:  linear combination of atomic orbitals
Ni (M=1) pseudo-atom majority spin occupations:   s ( 1 0.5 )  p ( 3 )  d ( 5 )
Ni (M=1) pseudo-atom minority spin occupations:   s ( 1 0 )  p ( 3 )  d ( 4.5 )
V (M=1) pseudo-atom majority spin occupations:   s ( 1 0 )  p ( 3 )  d ( 3 )
V (M=1) pseudo-atom minority spin occupations:   s ( 1 0 )  p ( 3 )  d ( 2 )
Co (M=1) pseudo-atom majority spin occupations:   s ( 1 0 )  p ( 3 )  d ( 5 )
Co (M=1) pseudo-atom minority spin occupations:   s ( 1 0 )  p ( 3 )  d ( 4 )
Cr (M=1) pseudo-atom majority spin occupations:   s ( 1 0 )  p ( 3 )  d ( 3.5 )
Cr (M=1) pseudo-atom minority spin occupations:   s ( 1 0 )  p ( 3 )  d ( 2.5 )
O pseudo-atom occupations:   s ( 2 )  p ( 4 )
H pseudo-atom occupations:   s ( 1 )
	FillingsUpdate:  mu: +1.945568909  nElectrons: 347.000000  magneticMoment: [ Abs: 5.87888  Tot: -0.00000 ]
LCAOMinimize: Iter:   0  F: -1834.6184136386091268  |grad|_K:  7.223e-02  alpha:  1.000e+00
LCAOMinimize: 	Step increased F by 3.655095e+02, reducing alpha to 4.467802e-02.
	FillingsUpdate:  mu: +2.179213682  nElectrons: 347.000000  magneticMoment: [ Abs: 1.99854  Tot: +0.00000 ]
LCAOMinimize: Iter:   1  F: -1835.1299971805738096  |grad|_K:  2.992e-02  alpha:  4.468e-02  linmin:  1.324e-02  cgtest: -1.980e+00  t[s]:     81.49
LCAOMinimize: 	Wrong curvature in test step, increasing alphaT to 1.340341e-01.
	FillingsUpdate:  mu: +2.632449687  nElectrons: 347.000000  magneticMoment: [ Abs: 8.19259  Tot: -0.00000 ]
LCAOMinimize: Iter:   2  F: -1882.2123035310537489  |grad|_K:  1.689e-02  alpha: -3.818e-02  linmin: -5.813e-03  cgtest:  3.961e-02  t[s]:    101.73
LCAOMinimize: 	Step increased F by 5.148954e+02, reducing alpha to 1.062758e-02.
	FillingsUpdate:  mu: +2.466769918  nElectrons: 347.000000  magneticMoment: [ Abs: 8.05979  Tot: -0.00000 ]
LCAOMinimize: Iter:   3  F: -1885.4672161642115498  |grad|_K:  1.638e-02  alpha:  1.063e-02  linmin: -4.499e-02  cgtest:  5.599e-01  t[s]:    139.16
LCAOMinimize: 	Wrong curvature in test step, increasing alphaT to 3.188275e-02.
	FillingsUpdate:  mu: +2.073006500  nElectrons: 347.000000  magneticMoment: [ Abs: 8.69149  Tot: +0.00000 ]
LCAOMinimize: Iter:   4  F: -1892.3200586527084397  |grad|_K:  2.035e-02  alpha: -6.633e-03  linmin: -4.264e-02  cgtest:  7.166e-01  t[s]:    159.68
LCAOMinimize: 	Step increased F by 8.913739e+02, reducing alpha to 2.214879e-02.
LCAOMinimize: 	Step increased F by 3.597802e+01, reducing alpha to 2.214879e-03.
	FillingsUpdate:  mu: +1.969587831  nElectrons: 347.000000  magneticMoment: [ Abs: 8.84452  Tot: -0.00000 ]
LCAOMinimize: Iter:   5  F: -1893.8618495643859205  |grad|_K:  2.000e-02  alpha:  2.215e-03  linmin: -5.532e-02  cgtest:  9.701e-01  t[s]:    212.03
LCAOMinimize: 	Wrong curvature in test step, increasing alphaT to 6.644637e-03.
	FillingsUpdate:  mu: +1.848403312  nElectrons: 347.000000  magneticMoment: [ Abs: 9.38060  Tot: -0.00000 ]
LCAOMinimize: Iter:   6  F: -1895.7628053646565149  |grad|_K:  3.327e-02  alpha: -9.231e-04  linmin: -5.169e-02  cgtest:  5.687e-01  t[s]:    231.66
LCAOMinimize: 	Step increased F by 8.765852e+02, reducing alpha to 3.762128e-02.
LCAOMinimize: 	Step increased F by 4.225863e+02, reducing alpha to 3.762128e-03.
	FillingsUpdate:  mu: +1.490318451  nElectrons: 347.000000  magneticMoment: [ Abs: 10.97391  Tot: +0.00000 ]
LCAOMinimize: Iter:   7  F: -1904.1039172349419459  |grad|_K:  2.854e-02  alpha:  3.762e-03  linmin: -6.865e-02  cgtest:  7.655e-01  t[s]:    283.18
LCAOMinimize: 	Predicted alpha/alphaT>3.000000, increasing alphaT to 1.128638e-02.
	FillingsUpdate:  mu: +0.773595648  nElectrons: 347.000000  magneticMoment: [ Abs: 12.78472  Tot: +0.00000 ]
LCAOMinimize: Iter:   8  F: -1913.6333140959816319  |grad|_K:  4.111e-02  alpha:  1.647e-02  linmin: -2.663e-02  cgtest: -3.562e-01  t[s]:    310.01
	FillingsUpdate:  mu: +0.785771389  nElectrons: 347.000000  magneticMoment: [ Abs: 15.19197  Tot: +0.00000 ]
LCAOMinimize: Iter:   9  F: -1915.2172786278692911  |grad|_K:  4.587e-02  alpha:  1.654e-03  linmin:  1.294e-02  cgtest:  8.857e-01  t[s]:    331.23
LCAOMinimize: 	Predicted alpha/alphaT>3.000000, increasing alphaT to 4.961769e-03.
	FillingsUpdate:  mu: -0.011055045  nElectrons: 347.000000  magneticMoment: [ Abs: 18.21541  Tot: -0.00000 ]
LCAOMinimize: Iter:  10  F: -1915.7603782807664174  |grad|_K:  4.873e-02  alpha:  1.408e-02  linmin:  8.904e-02  cgtest:  2.585e-01  t[s]:    358.36
LCAOMinimize: 	Step increased F by 1.430579e-01, reducing alpha to 2.980405e-04.
	FillingsUpdate:  mu: -0.061226103  nElectrons: 347.000000  magneticMoment: [ Abs: 18.15183  Tot: +0.00000 ]
LCAOMinimize: Iter:  11  F: -1915.8594947765404868  |grad|_K:  4.853e-02  alpha:  2.980e-04  linmin: -1.080e-02  cgtest:  9.945e-01  t[s]:    395.18
LCAOMinimize: 	Predicted alpha/alphaT>3.000000, increasing alphaT to 8.941215e-04.
LCAOMinimize: 	Predicted alpha/alphaT>3.000000, increasing alphaT to 2.682364e-03.
LCAOMinimize: 	Predicted alpha/alphaT>3.000000, increasing alphaT to 8.047093e-03.
	FillingsUpdate:  mu: +0.461672652  nElectrons: 347.000000  magneticMoment: [ Abs: 17.12339  Tot: +0.00000 ]
LCAOMinimize: Iter:  12  F: -1928.7944545151822240  |grad|_K:  2.204e-02  alpha:  1.892e-02  linmin:  8.745e-02  cgtest: -7.847e-01  t[s]:    428.31
	FillingsUpdate:  mu: +0.477060440  nElectrons: 347.000000  magneticMoment: [ Abs: 17.21449  Tot: -0.00000 ]
LCAOMinimize: Iter:  13  F: -1929.2153903519229061  |grad|_K:  1.821e-02  alpha:  1.079e-02  linmin:  1.743e-03  cgtest:  9.175e-01  t[s]:    449.69
LCAOMinimize: Encountered beta<0, resetting CG.
LCAOMinimize: 	Predicted alpha/alphaT>3.000000, increasing alphaT to 3.236818e-02.
	FillingsUpdate:  mu: +0.134222248  nElectrons: 347.000000  magneticMoment: [ Abs: 19.05633  Tot: +0.00000 ]
LCAOMinimize: Iter:  14  F: -1933.0018164301761772  |grad|_K:  8.138e-03  alpha:  1.440e-02  linmin: -1.070e-01  cgtest:  5.018e-01  t[s]:    477.55
LCAOMinimize: Encountered beta<0, resetting CG.
LCAOMinimize: 	Wrong curvature in test step, increasing alphaT to 4.320120e-02.
	FillingsUpdate:  mu: +0.127830918  nElectrons: 347.000000  magneticMoment: [ Abs: 19.28413  Tot: -0.00000 ]
LCAOMinimize: Iter:  15  F: -1933.9127263890131871  |grad|_K:  8.262e-03  alpha: -2.265e+00  linmin: -8.239e-02  cgtest:  8.050e-01  t[s]:    498.07
	FillingsUpdate:  mu: -0.003557256  nElectrons: 347.000000  magneticMoment: [ Abs: 18.27691  Tot: -0.00000 ]
LCAOMinimize: Iter:  16  F: -1938.5460906392559082  |grad|_K:  1.796e-02  alpha:  9.925e-02  linmin:  9.595e-02  cgtest: -3.925e-02  t[s]:    519.91
LCAOMinimize: 	Bad step direction: g.d > 0.
LCAOMinimize: 	Undoing step.
LCAOMinimize: 	Step failed: resetting search direction.
	FillingsUpdate:  mu: -0.003557256  nElectrons: 347.000000  magneticMoment: [ Abs: 18.27691  Tot: -0.00000 ]
LCAOMinimize: Iter:  17  F: -1938.5460906392559082  |grad|_K:  1.796e-02  alpha:  0.000e+00
	FillingsUpdate:  mu: +0.278115357  nElectrons: 347.000000  magneticMoment: [ Abs: 15.85138  Tot: -0.00000 ]
LCAOMinimize: Iter:  18  F: -1939.4421918613461457  |grad|_K:  1.997e-02  alpha:  2.726e-02  linmin:  5.050e-02  cgtest: -5.847e-01  t[s]:    556.93
	FillingsUpdate:  mu: +0.384390345  nElectrons: 347.000000  magneticMoment: [ Abs: 16.70189  Tot: -0.00000 ]
LCAOMinimize: Iter:  19  F: -1939.9011311183749058  |grad|_K:  1.763e-02  alpha:  6.122e-03  linmin: -6.545e-03  cgtest:  9.277e-01  t[s]:    578.18
LCAOMinimize: Encountered beta<0, resetting CG.
	FillingsUpdate:  mu: +0.178552843  nElectrons: 347.000000  magneticMoment: [ Abs: 18.68368  Tot: -0.00000 ]
LCAOMinimize: Iter:  20  F: -1941.4245688952894398  |grad|_K:  6.341e-03  alpha:  9.101e-03  linmin: -9.969e-02  cgtest:  3.584e-01  t[s]:    599.49
	FillingsUpdate:  mu: +0.043914627  nElectrons: 347.000000  magneticMoment: [ Abs: 19.10540  Tot: +0.00000 ]
LCAOMinimize: Iter:  21  F: -1941.8601903111780302  |grad|_K:  4.073e-03  alpha:  2.680e-02  linmin:  2.177e-02  cgtest: -2.197e-01  t[s]:    621.42
	FillingsUpdate:  mu: +0.041933323  nElectrons: 347.000000  magneticMoment: [ Abs: 18.84038  Tot: -0.00000 ]
LCAOMinimize: Iter:  22  F: -1942.1034672680279982  |grad|_K:  6.519e-03  alpha:  3.490e-02  linmin:  6.123e-03  cgtest: -7.784e-02  t[s]:    643.14
LCAOMinimize: 	Step increased F by 1.767429e-01, reducing alpha to 5.030290e-04.
	FillingsUpdate:  mu: +0.046774553  nElectrons: 347.000000  magneticMoment: [ Abs: 18.89812  Tot: +0.00000 ]
LCAOMinimize: Iter:  23  F: -1942.1164090436250262  |grad|_K:  6.606e-03  alpha:  5.030e-04  linmin: -1.068e-02  cgtest:  9.951e-01  t[s]:    680.35
LCAOMinimize: 	Predicted alpha/alphaT>3.000000, increasing alphaT to 1.509087e-03.
LCAOMinimize: 	Predicted alpha/alphaT>3.000000, increasing alphaT to 4.527261e-03.
	FillingsUpdate:  mu: +0.101027239  nElectrons: 347.000000  magneticMoment: [ Abs: 19.94351  Tot: +0.00000 ]
LCAOMinimize: Iter:  24  F: -1942.3389735094401658  |grad|_K:  2.777e-03  alpha:  1.098e-02  linmin:  1.563e-02  cgtest: -1.455e-01  t[s]:    714.12
	FillingsUpdate:  mu: +0.160825081  nElectrons: 347.000000  magneticMoment: [ Abs: 20.51082  Tot: -0.00000 ]
LCAOMinimize: Iter:  25  F: -1942.4409478787802072  |grad|_K:  3.258e-03  alpha:  3.215e-02  linmin:  6.342e-03  cgtest:  4.380e-02  t[s]:    735.68
	FillingsUpdate:  mu: +0.135449532  nElectrons: 347.000000  magneticMoment: [ Abs: 21.26981  Tot: -0.00000 ]
LCAOMinimize: Iter:  26  F: -1942.6500328699762576  |grad|_K:  3.051e-03  alpha:  4.570e-02  linmin: -3.648e-03  cgtest:  4.874e-01  t[s]:    757.33
	FillingsUpdate:  mu: +0.124269190  nElectrons: 347.000000  magneticMoment: [ Abs: 22.11042  Tot: +0.00000 ]
LCAOMinimize: Iter:  27  F: -1942.7384353406159789  |grad|_K:  2.538e-03  alpha:  2.241e-02  linmin:  3.667e-03  cgtest: -2.027e-01  t[s]:    778.96
	FillingsUpdate:  mu: +0.106110028  nElectrons: 347.000000  magneticMoment: [ Abs: 22.59751  Tot: +0.00000 ]
LCAOMinimize: Iter:  28  F: -1942.8085971497403079  |grad|_K:  1.358e-03  alpha:  2.510e-02  linmin: -4.305e-03  cgtest:  6.733e-02  t[s]:    800.41
	FillingsUpdate:  mu: +0.134240042  nElectrons: 347.000000  magneticMoment: [ Abs: 23.31411  Tot: -0.00000 ]
LCAOMinimize: Iter:  29  F: -1942.8348902101606654  |grad|_K:  1.708e-03  alpha:  2.921e-02  linmin:  3.677e-03  cgtest:  8.659e-02  t[s]:    821.93
	FillingsUpdate:  mu: +0.155246612  nElectrons: 347.000000  magneticMoment: [ Abs: 24.55195  Tot: -0.00000 ]
LCAOMinimize: Iter:  30  F: -1942.8710919445188665  |grad|_K:  1.979e-03  alpha:  3.041e-02  linmin:  1.729e-04  cgtest:  5.341e-01  t[s]:    843.59
LCAOMinimize: None of the convergence criteria satisfied after 30 iterations.


---- Citations for features of the code used in this run ----

   Software package:
      R. Sundararaman, K. Letchworth-Weaver, K.A. Schwarz, D. Gunceler, Y. Ozhabes and T.A. Arias, 'JDFTx: software for joint density-functional theory', SoftwareX 6, 278 (2017)

   Simplified rotationally-invariant DFT+U:
      S. L. Dudarev et al., Phys. Rev. B 57, 1505 (1998)

   LibXC library of exchange-correlation functions:
      M. A. L. Marques, M. J. T. Oliveira and T. Burnus, Comput. Phys. Commun. 183, 2272 (2012)

   Hammer, Hansen, and Norskov exchange functional:
      B. Hammer, L. B. Hansen, and J. K. Nørskov, Phys. Rev. B 59, 7413 (1999)

   Perdew, Burke & Ernzerhof correlation functional:
      J. P. Perdew, K. Burke, and M. Ernzerhof, Phys. Rev. Lett. 77, 3865 (1996)

   Pseudopotentials:
      M Schlipf and F Gygi, Comput. Phys. Commun. 196, 36 (2015)

   Total energy minimization with Auxiliary Hamiltonian:
      C. Freysoldt, S. Boeck, and J. Neugebauer, Phys. Rev. B 79, 241103(R) (2009)

This list may not be complete. Please suggest additional citations or
report any other bugs at https://github.com/shankar1729/jdftx/issues

Initialization completed successfully at t[s]:    851.59


-------- Electronic minimization -----------
	FillingsUpdate:  mu: +0.155247290  nElectrons: 347.000000  magneticMoment: [ Abs: 24.55195  Tot: -0.00000 ]
ElecMinimize: Iter:   0  F: -1942.871091944522504  |grad|_K:  7.632e-04  alpha:  1.000e+00
	FillingsUpdate:  mu: +0.324319981  nElectrons: 347.000000  magneticMoment: [ Abs: 22.51252  Tot: -0.00000 ]
	SubspaceRotationAdjust: set factor to 0.982
ElecMinimize: Iter:   1  F: -1966.708667460746710  |grad|_K:  1.036e-03  alpha:  4.570e-01  linmin:  1.245e-02  t[s]:    922.36
	FillingsUpdate:  mu: +0.107653784  nElectrons: 347.000000  magneticMoment: [ Abs: 25.93370  Tot: -0.00000 ]
	SubspaceRotationAdjust: set factor to 1.22
ElecMinimize: Iter:   2  F: -1971.449010196463178  |grad|_K:  6.345e-04  alpha:  2.217e-02  linmin: -1.573e-03  t[s]:    970.70
	FillingsUpdate:  mu: +0.530682857  nElectrons: 347.000000  magneticMoment: [ Abs: 28.77596  Tot: +0.00000 ]
	SubspaceRotationAdjust: set factor to 0.903
ElecMinimize: Iter:   3  F: -1974.142492281020850  |grad|_K:  9.005e-04  alpha:  3.163e-02  linmin: -8.568e-04  t[s]:   1019.44
	FillingsUpdate:  mu: +0.631298804  nElectrons: 347.000000  magneticMoment: [ Abs: 30.29283  Tot: -0.00000 ]
	SubspaceRotationAdjust: set factor to 0.552
ElecMinimize: Iter:   4  F: -1979.454564366798650  |grad|_K:  9.150e-04  alpha:  3.365e-02  linmin:  2.547e-03  t[s]:   1068.06
	FillingsUpdate:  mu: +0.689745727  nElectrons: 347.000000  magneticMoment: [ Abs: 29.74434  Tot: -0.00000 ]
	SubspaceRotationAdjust: set factor to 0.313
ElecMinimize: Iter:   5  F: -1979.807373456221512  |grad|_K:  1.040e-03  alpha:  1.101e-02  linmin:  9.721e-04  t[s]:   1116.79
ElecMinimize: 	Predicted alpha/alphaT>3.000000, increasing alphaT to 3.303388e-02.
	FillingsUpdate:  mu: +0.540795339  nElectrons: 347.000000  magneticMoment: [ Abs: 30.41160  Tot: -0.00000 ]
	SubspaceRotationAdjust: set factor to 0.227
ElecMinimize: Iter:   6  F: -1982.629284314243023  |grad|_K:  5.910e-04  alpha:  1.641e-02  linmin:  3.912e-04  t[s]:   1179.76
	FillingsUpdate:  mu: +0.397331948  nElectrons: 347.000000  magneticMoment: [ Abs: 31.62375  Tot: -0.00000 ]
	SubspaceRotationAdjust: set factor to 0.266
ElecMinimize: Iter:   7  F: -1984.837769253836086  |grad|_K:  4.443e-04  alpha:  3.505e-02  linmin: -8.392e-04  t[s]:   1228.22
	FillingsUpdate:  mu: +0.340630220  nElectrons: 347.000000  magneticMoment: [ Abs: 33.68729  Tot: +0.00000 ]
	SubspaceRotationAdjust: set factor to 0.269
ElecMinimize: Iter:   8  F: -1986.347748357057981  |grad|_K:  4.840e-04  alpha:  4.201e-02  linmin:  2.369e-03  t[s]:   1277.18
	FillingsUpdate:  mu: +0.338872282  nElectrons: 347.000000  magneticMoment: [ Abs: 33.72760  Tot: +0.00000 ]
	SubspaceRotationAdjust: set factor to 0.273
ElecMinimize: Iter:   9  F: -1986.357546779287077  |grad|_K:  4.836e-04  alpha:  7.207e-04  linmin: -3.268e-04  t[s]:   1325.71
ElecMinimize: 	Predicted alpha/alphaT>3.000000, increasing alphaT to 2.162176e-03.
	FillingsUpdate:  mu: +0.334303479  nElectrons: 347.000000  magneticMoment: [ Abs: 33.87704  Tot: -0.00000 ]
	SubspaceRotationAdjust: set factor to 0.298
ElecMinimize: Iter:  10  F: -1986.573345270852315  |grad|_K:  4.572e-04  alpha:  5.132e-03  linmin:  2.720e-04  t[s]:   1388.22
	FillingsUpdate:  mu: +0.346762099  nElectrons: 347.000000  magneticMoment: [ Abs: 33.68869  Tot: +0.00000 ]
	SubspaceRotationAdjust: set factor to 0.303
ElecMinimize: Iter:  11  F: -1986.705843972133607  |grad|_K:  4.589e-04  alpha:  3.920e-03  linmin:  3.224e-05  t[s]:   1437.14
	FillingsUpdate:  mu: +0.363526615  nElectrons: 347.000000  magneticMoment: [ Abs: 33.46010  Tot: -0.00000 ]
	SubspaceRotationAdjust: set factor to 0.272
ElecMinimize: Iter:  12  F: -1986.835078307438380  |grad|_K:  4.691e-04  alpha:  3.538e-03  linmin:  3.271e-05  t[s]:   1485.92
	FillingsUpdate:  mu: +0.359098383  nElectrons: 347.000000  magneticMoment: [ Abs: 33.28096  Tot: -0.00000 ]
	SubspaceRotationAdjust: set factor to 0.219
ElecMinimize: Iter:  13  F: -1986.971086696777320  |grad|_K:  4.764e-04  alpha:  3.575e-03  linmin: -1.277e-04  t[s]:   1534.80
	FillingsUpdate:  mu: +0.335474435  nElectrons: 347.000000  magneticMoment: [ Abs: 33.10802  Tot: +0.00000 ]
	SubspaceRotationAdjust: set factor to 0.168
ElecMinimize: Iter:  14  F: -1987.237185684281712  |grad|_K:  4.350e-04  alpha:  5.705e-03  linmin: -8.215e-04  t[s]:   1583.79
	FillingsUpdate:  mu: +0.319722213  nElectrons: 347.000000  magneticMoment: [ Abs: 32.90544  Tot: +0.00000 ]
	SubspaceRotationAdjust: set factor to 0.119
	SubspaceRotationAdjust: resetting CG because factor has changed by 0.118505
ElecMinimize: 	State modified externally: resetting search direction.
ElecMinimize: Iter:  15  F: -1987.559048851044963  |grad|_K:  3.478e-04  alpha:  9.042e-03
ElecMinimize: 	Predicted alpha/alphaT>3.000000, increasing alphaT to 2.712545e-02.
ElecMinimize: 	Predicted alpha/alphaT>3.000000, increasing alphaT to 8.137635e-02.
	FillingsUpdate:  mu: +0.279375504  nElectrons: 347.000000  magneticMoment: [ Abs: 34.89663  Tot: -0.00000 ]
	SubspaceRotationAdjust: set factor to 0.118
ElecMinimize: Iter:  16  F: -1991.152915364521732  |grad|_K:  1.348e-04  alpha:  2.128e-01  linmin:  8.942e-03  t[s]:   1729.39
	FillingsUpdate:  mu: +0.225971141  nElectrons: 347.000000  magneticMoment: [ Abs: 34.58344  Tot: +0.00000 ]
	SubspaceRotationAdjust: set factor to 0.065
ElecMinimize: Iter:  17  F: -1991.863834829890266  |grad|_K:  1.224e-04  alpha:  3.329e-01  linmin:  1.502e-02  t[s]:   1777.51
	FillingsUpdate:  mu: +0.243257193  nElectrons: 347.000000  magneticMoment: [ Abs: 34.41249  Tot: -0.00000 ]
	SubspaceRotationAdjust: set factor to 0.0726
ElecMinimize: Iter:  18  F: -1992.054399433220624  |grad|_K:  9.699e-05  alpha:  2.486e-01  linmin:  1.779e-04  t[s]:   1825.68
	FillingsUpdate:  mu: +0.149592320  nElectrons: 347.000000  magneticMoment: [ Abs: 34.58190  Tot: -0.00000 ]
	SubspaceRotationAdjust: set factor to 0.0892
ElecMinimize: Iter:  19  F: -1992.456053815225459  |grad|_K:  5.315e-05  alpha:  2.476e-01  linmin:  7.215e-07  t[s]:   1873.62
	FillingsUpdate:  mu: +0.153109116  nElectrons: 347.000000  magneticMoment: [ Abs: 34.73781  Tot: +0.00000 ]
	SubspaceRotationAdjust: set factor to 0.088
ElecMinimize: Iter:  20  F: -1992.582961340891416  |grad|_K:  4.250e-05  alpha:  2.572e-01  linmin:  1.502e-04  t[s]:   1921.88
	FillingsUpdate:  mu: +0.128435932  nElectrons: 347.000000  magneticMoment: [ Abs: 34.81702  Tot: +0.00000 ]
	SubspaceRotationAdjust: set factor to 0.109
ElecMinimize: Iter:  21  F: -1992.658150582407188  |grad|_K:  3.232e-05  alpha:  2.418e-01  linmin:  5.433e-06  t[s]:   1969.91
	FillingsUpdate:  mu: +0.142819187  nElectrons: 347.000000  magneticMoment: [ Abs: 34.90670  Tot: -0.00000 ]
	SubspaceRotationAdjust: set factor to 0.119
ElecMinimize: Iter:  22  F: -1992.708682873038015  |grad|_K:  3.045e-05  alpha:  2.767e-01  linmin: -4.011e-05  t[s]:   2018.04
	FillingsUpdate:  mu: +0.114467226  nElectrons: 347.000000  magneticMoment: [ Abs: 35.08117  Tot: +0.00000 ]
	SubspaceRotationAdjust: set factor to 0.137
ElecMinimize: Iter:  23  F: -1992.754628473557659  |grad|_K:  2.985e-05  alpha:  2.805e-01  linmin:  2.237e-07  t[s]:   2066.14
	FillingsUpdate:  mu: +0.132098899  nElectrons: 347.000000  magneticMoment: [ Abs: 35.25123  Tot: -0.00000 ]
	SubspaceRotationAdjust: set factor to 0.157
ElecMinimize: Iter:  24  F: -1992.800765915754937  |grad|_K:  3.059e-05  alpha:  2.958e-01  linmin: -4.434e-05  t[s]:   2113.68
	FillingsUpdate:  mu: +0.125206635  nElectrons: 347.000000  magneticMoment: [ Abs: 35.32144  Tot: +0.00000 ]
	SubspaceRotationAdjust: set factor to 0.161
ElecMinimize: Iter:  25  F: -1992.835428702596118  |grad|_K:  2.970e-05  alpha:  2.053e-01  linmin: -1.501e-05  t[s]:   2161.99
	FillingsUpdate:  mu: +0.125035793  nElectrons: 347.000000  magneticMoment: [ Abs: 35.80086  Tot: -0.00000 ]
	SubspaceRotationAdjust: set factor to 0.187
ElecMinimize: Iter:  26  F: -1992.880032446069890  |grad|_K:  2.895e-05  alpha:  2.879e-01  linmin: -1.534e-06  t[s]:   2210.32
	FillingsUpdate:  mu: +0.139566750  nElectrons: 347.000000  magneticMoment: [ Abs: 36.39666  Tot: +0.00000 ]
	SubspaceRotationAdjust: set factor to 0.189
ElecMinimize: Iter:  27  F: -1992.918813591394610  |grad|_K:  3.665e-05  alpha:  2.624e-01  linmin:  5.439e-06  t[s]:   2258.38
	FillingsUpdate:  mu: +0.121376046  nElectrons: 347.000000  magneticMoment: [ Abs: 36.85459  Tot: +0.00000 ]
	SubspaceRotationAdjust: set factor to 0.202
ElecMinimize: Iter:  28  F: -1992.957783976652536  |grad|_K:  3.399e-05  alpha:  1.581e-01  linmin: -5.055e-05  t[s]:   2306.68
	FillingsUpdate:  mu: +0.137009063  nElectrons: 347.000000  magneticMoment: [ Abs: 37.76700  Tot: +0.00000 ]
	SubspaceRotationAdjust: set factor to 0.186
ElecMinimize: Iter:  29  F: -1992.973679317358801  |grad|_K:  4.677e-05  alpha:  2.049e-01  linmin:  2.362e-03  t[s]:   2355.49
ElecMinimize: 	Bad step direction: g.d > 0.
ElecMinimize: 	Undoing step.
ElecMinimize: 	Step failed: resetting search direction.
	FillingsUpdate:  mu: +0.137009063  nElectrons: 347.000000  magneticMoment: [ Abs: 37.76700  Tot: +0.00000 ]
	SubspaceRotationAdjust: set factor to 0.178
ElecMinimize: Iter:  30  F: -1992.973679317351298  |grad|_K:  4.578e-05  alpha:  0.000e+00
	FillingsUpdate:  mu: +0.126516260  nElectrons: 347.000000  magneticMoment: [ Abs: 37.53629  Tot: +0.00000 ]
	SubspaceRotationAdjust: set factor to 0.121
ElecMinimize: Iter:  31  F: -1993.027853947611902  |grad|_K:  2.457e-05  alpha:  1.551e-01  linmin: -2.639e-03  t[s]:   2438.68
	FillingsUpdate:  mu: +0.125419219  nElectrons: 347.000000  magneticMoment: [ Abs: 37.58973  Tot: -0.00000 ]
	SubspaceRotationAdjust: set factor to 0.101
ElecMinimize: Iter:  32  F: -1993.055355630732038  |grad|_K:  1.787e-05  alpha:  2.557e-01  linmin:  3.400e-04  t[s]:   2487.69
	FillingsUpdate:  mu: +0.124265753  nElectrons: 347.000000  magneticMoment: [ Abs: 37.92851  Tot: +0.00000 ]
	SubspaceRotationAdjust: set factor to 0.0878
ElecMinimize: Iter:  33  F: -1993.071472399843515  |grad|_K:  1.639e-05  alpha:  2.892e-01  linmin: -6.547e-04  t[s]:   2536.26
	FillingsUpdate:  mu: +0.121931925  nElectrons: 347.000000  magneticMoment: [ Abs: 38.21349  Tot: -0.00000 ]
	SubspaceRotationAdjust: set factor to 0.0925
ElecMinimize: Iter:  34  F: -1993.088273493924135  |grad|_K:  1.282e-05  alpha:  3.496e-01  linmin: -1.369e-03  t[s]:   2585.29
	FillingsUpdate:  mu: +0.123499466  nElectrons: 347.000000  magneticMoment: [ Abs: 38.51142  Tot: -0.00000 ]
	SubspaceRotationAdjust: set factor to 0.111
ElecMinimize: Iter:  35  F: -1993.101859118821039  |grad|_K:  1.167e-05  alpha:  4.520e-01  linmin: -7.637e-04  t[s]:   2634.06
	FillingsUpdate:  mu: +0.125765414  nElectrons: 347.000000  magneticMoment: [ Abs: 38.77069  Tot: +0.00000 ]
	SubspaceRotationAdjust: set factor to 0.101
ElecMinimize: Iter:  36  F: -1993.109405244178333  |grad|_K:  9.909e-06  alpha:  3.084e-01  linmin: -1.066e-05  t[s]:   2682.31
	FillingsUpdate:  mu: +0.123404611  nElectrons: 347.000000  magneticMoment: [ Abs: 38.98741  Tot: -0.00000 ]
	SubspaceRotationAdjust: set factor to 0.102
ElecMinimize: Iter:  37  F: -1993.115929091750104  |grad|_K:  8.748e-06  alpha:  3.780e-01  linmin: -3.462e-04  t[s]:   2730.17
	FillingsUpdate:  mu: +0.121503932  nElectrons: 347.000000  magneticMoment: [ Abs: 39.23765  Tot: +0.00000 ]
	SubspaceRotationAdjust: set factor to 0.12
ElecMinimize: Iter:  38  F: -1993.122028303610250  |grad|_K:  9.632e-06  alpha:  4.488e-01  linmin:  1.400e-04  t[s]:   2777.83
	FillingsUpdate:  mu: +0.127252658  nElectrons: 347.000000  magneticMoment: [ Abs: 39.56634  Tot: -0.00000 ]
	SubspaceRotationAdjust: set factor to 0.127
ElecMinimize: Iter:  39  F: -1993.129644953397701  |grad|_K:  1.087e-05  alpha:  4.764e-01  linmin:  3.764e-04  t[s]:   2825.64
	FillingsUpdate:  mu: +0.120276581  nElectrons: 347.000000  magneticMoment: [ Abs: 39.78185  Tot: -0.00000 ]
	SubspaceRotationAdjust: set factor to 0.124
ElecMinimize: Iter:  40  F: -1993.135472548216512  |grad|_K:  1.020e-05  alpha:  3.003e-01  linmin:  1.390e-05  t[s]:   2874.08
	FillingsUpdate:  mu: +0.117648386  nElectrons: 347.000000  magneticMoment: [ Abs: 39.98588  Tot: +0.00000 ]
	SubspaceRotationAdjust: set factor to 0.128
ElecMinimize: Iter:  41  F: -1993.140772926443560  |grad|_K:  8.352e-06  alpha:  2.920e-01  linmin: -1.185e-04  t[s]:   2922.27
	FillingsUpdate:  mu: +0.115328207  nElectrons: 347.000000  magneticMoment: [ Abs: 40.13522  Tot: -0.00000 ]
	SubspaceRotationAdjust: set factor to 0.147
ElecMinimize: Iter:  42  F: -1993.146141294110294  |grad|_K:  8.097e-06  alpha:  4.306e-01  linmin: -2.035e-04  t[s]:   2970.61
	FillingsUpdate:  mu: +0.117195652  nElectrons: 347.000000  magneticMoment: [ Abs: 40.21576  Tot: +0.00000 ]
	SubspaceRotationAdjust: set factor to 0.157
ElecMinimize: Iter:  43  F: -1993.150399410485761  |grad|_K:  7.329e-06  alpha:  3.626e-01  linmin:  1.996e-05  t[s]:   3019.28
	FillingsUpdate:  mu: +0.122122991  nElectrons: 347.000000  magneticMoment: [ Abs: 40.29952  Tot: -0.00000 ]
	SubspaceRotationAdjust: set factor to 0.142
ElecMinimize: Iter:  44  F: -1993.153011128951903  |grad|_K:  7.325e-06  alpha:  2.781e-01  linmin:  8.271e-06  t[s]:   3067.77
	FillingsUpdate:  mu: +0.119245880  nElectrons: 347.000000  magneticMoment: [ Abs: 40.33862  Tot: +0.00000 ]
	SubspaceRotationAdjust: set factor to 0.123
ElecMinimize: Iter:  45  F: -1993.154979859044033  |grad|_K:  5.640e-06  alpha:  2.125e-01  linmin: -8.418e-05  t[s]:   3115.83
	FillingsUpdate:  mu: +0.118442564  nElectrons: 347.000000  magneticMoment: [ Abs: 40.41299  Tot: +0.00000 ]
	SubspaceRotationAdjust: set factor to 0.134
ElecMinimize: Iter:  46  F: -1993.156948116823287  |grad|_K:  4.932e-06  alpha:  3.516e-01  linmin:  2.553e-05  t[s]:   3163.77
	FillingsUpdate:  mu: +0.118939075  nElectrons: 347.000000  magneticMoment: [ Abs: 40.47394  Tot: -0.00000 ]
	SubspaceRotationAdjust: set factor to 0.155
ElecMinimize: Iter:  47  F: -1993.158592870331404  |grad|_K:  4.450e-06  alpha:  3.878e-01  linmin:  3.958e-05  t[s]:   3211.57
	FillingsUpdate:  mu: +0.117794568  nElectrons: 347.000000  magneticMoment: [ Abs: 40.52701  Tot: -0.00000 ]
	SubspaceRotationAdjust: set factor to 0.167
ElecMinimize: Iter:  48  F: -1993.159907142429802  |grad|_K:  4.585e-06  alpha:  3.811e-01  linmin: -2.482e-04  t[s]:   3259.33
	FillingsUpdate:  mu: +0.119957954  nElectrons: 347.000000  magneticMoment: [ Abs: 40.61070  Tot: -0.00000 ]
	SubspaceRotationAdjust: set factor to 0.151
ElecMinimize: Iter:  49  F: -1993.161004949841299  |grad|_K:  5.337e-06  alpha:  2.823e-01  linmin:  1.487e-04  t[s]:   3307.45
	FillingsUpdate:  mu: +0.120372824  nElectrons: 347.000000  magneticMoment: [ Abs: 40.68705  Tot: +0.00000 ]
	SubspaceRotationAdjust: set factor to 0.184
ElecMinimize: Iter:  50  F: -1993.162204554084610  |grad|_K:  4.836e-06  alpha:  2.450e-01  linmin: -1.005e-04  t[s]:   3355.90
	FillingsUpdate:  mu: +0.121164332  nElectrons: 347.000000  magneticMoment: [ Abs: 40.76377  Tot: +0.00000 ]
	SubspaceRotationAdjust: set factor to 0.223
ElecMinimize: Iter:  51  F: -1993.163488091396857  |grad|_K:  4.725e-06  alpha:  3.040e-01  linmin: -6.555e-04  t[s]:   3403.82
	FillingsUpdate:  mu: +0.120951720  nElectrons: 347.000000  magneticMoment: [ Abs: 40.84322  Tot: +0.00000 ]
	SubspaceRotationAdjust: set factor to 0.188
ElecMinimize: Iter:  52  F: -1993.164561157688240  |grad|_K:  6.048e-06  alpha:  2.564e-01  linmin:  1.192e-05  t[s]:   3452.02
	FillingsUpdate:  mu: +0.120255469  nElectrons: 347.000000  magneticMoment: [ Abs: 40.88653  Tot: -0.00000 ]
	SubspaceRotationAdjust: set factor to 0.168
ElecMinimize: Iter:  53  F: -1993.165892477683656  |grad|_K:  5.354e-06  alpha:  2.081e-01  linmin:  4.981e-06  t[s]:   3499.96
	FillingsUpdate:  mu: +0.122227398  nElectrons: 347.000000  magneticMoment: [ Abs: 40.98309  Tot: -0.00000 ]
	SubspaceRotationAdjust: set factor to 0.184
ElecMinimize: Iter:  54  F: -1993.167466489573144  |grad|_K:  5.422e-06  alpha:  3.241e-01  linmin:  5.015e-04  t[s]:   3547.88
	FillingsUpdate:  mu: +0.121939972  nElectrons: 347.000000  magneticMoment: [ Abs: 41.06903  Tot: -0.00000 ]
	SubspaceRotationAdjust: set factor to 0.213
ElecMinimize: Iter:  55  F: -1993.168744472299068  |grad|_K:  5.433e-06  alpha:  2.683e-01  linmin:  4.675e-07  t[s]:   3596.10
	FillingsUpdate:  mu: +0.120881675  nElectrons: 347.000000  magneticMoment: [ Abs: 41.07955  Tot: +0.00000 ]
	SubspaceRotationAdjust: set factor to 0.205
ElecMinimize: Iter:  56  F: -1993.169777816388205  |grad|_K:  5.328e-06  alpha:  2.035e-01  linmin: -7.490e-05  t[s]:   3643.94
	FillingsUpdate:  mu: +0.122581108  nElectrons: 347.000000  magneticMoment: [ Abs: 41.12311  Tot: +0.00000 ]
	SubspaceRotationAdjust: set factor to 0.203
ElecMinimize: Iter:  57  F: -1993.170901891987342  |grad|_K:  4.949e-06  alpha:  2.251e-01  linmin:  2.073e-04  t[s]:   3692.16
	FillingsUpdate:  mu: +0.121770215  nElectrons: 347.000000  magneticMoment: [ Abs: 41.12590  Tot: +0.00000 ]
	SubspaceRotationAdjust: set factor to 0.266
ElecMinimize: Iter:  58  F: -1993.172201320471231  |grad|_K:  4.784e-06  alpha:  3.104e-01  linmin: -1.154e-04  t[s]:   3740.53
	FillingsUpdate:  mu: +0.120125908  nElectrons: 347.000000  magneticMoment: [ Abs: 41.12335  Tot: -0.00000 ]
	SubspaceRotationAdjust: set factor to 0.282
ElecMinimize: Iter:  59  F: -1993.173377461877863  |grad|_K:  5.350e-06  alpha:  2.896e-01  linmin: -7.030e-05  t[s]:   3789.07
	FillingsUpdate:  mu: +0.122627468  nElectrons: 347.000000  magneticMoment: [ Abs: 41.13710  Tot: -0.00000 ]
	SubspaceRotationAdjust: set factor to 0.269
ElecMinimize: Iter:  60  F: -1993.174413383904948  |grad|_K:  6.003e-06  alpha:  2.030e-01  linmin:  6.677e-06  t[s]:   3836.99
	FillingsUpdate:  mu: +0.123061941  nElectrons: 347.000000  magneticMoment: [ Abs: 41.07604  Tot: +0.00000 ]
	SubspaceRotationAdjust: set factor to 0.263
ElecMinimize: Iter:  61  F: -1993.175579721396616  |grad|_K:  5.572e-06  alpha:  1.862e-01  linmin: -1.568e-04  t[s]:   3884.62
	FillingsUpdate:  mu: +0.121739530  nElectrons: 347.000000  magneticMoment: [ Abs: 41.05981  Tot: -0.00000 ]
	SubspaceRotationAdjust: set factor to 0.285
ElecMinimize: Iter:  62  F: -1993.177070167276952  |grad|_K:  5.212e-06  alpha:  2.675e-01  linmin: -1.214e-05  t[s]:   3932.87
	FillingsUpdate:  mu: +0.122975432  nElectrons: 347.000000  magneticMoment: [ Abs: 41.01981  Tot: +0.00000 ]
	SubspaceRotationAdjust: set factor to 0.318
ElecMinimize: Iter:  63  F: -1993.178478994586158  |grad|_K:  5.388e-06  alpha:  2.950e-01  linmin: -1.293e-04  t[s]:   3981.45
	FillingsUpdate:  mu: +0.121094573  nElectrons: 347.000000  magneticMoment: [ Abs: 40.94355  Tot: -0.00000 ]
	SubspaceRotationAdjust: set factor to 0.281
ElecMinimize: Iter:  64  F: -1993.179469252359240  |grad|_K:  6.011e-06  alpha:  1.926e-01  linmin: -2.009e-05  t[s]:   4029.69
	FillingsUpdate:  mu: +0.123713447  nElectrons: 347.000000  magneticMoment: [ Abs: 40.92499  Tot: -0.00000 ]
	SubspaceRotationAdjust: set factor to 0.302
ElecMinimize: Iter:  65  F: -1993.180600719392260  |grad|_K:  4.644e-06  alpha:  1.792e-01  linmin: -1.474e-04  t[s]:   4078.24
	FillingsUpdate:  mu: +0.122537217  nElectrons: 347.000000  magneticMoment: [ Abs: 40.88773  Tot: +0.00000 ]
	SubspaceRotationAdjust: set factor to 0.349
ElecMinimize: Iter:  66  F: -1993.181783128356301  |grad|_K:  4.382e-06  alpha:  3.077e-01  linmin:  1.054e-04  t[s]:   4126.30
	FillingsUpdate:  mu: +0.121599701  nElectrons: 347.000000  magneticMoment: [ Abs: 40.84408  Tot: +0.00000 ]
	SubspaceRotationAdjust: set factor to 0.39
ElecMinimize: Iter:  67  F: -1993.182715009392268  |grad|_K:  4.715e-06  alpha:  2.819e-01  linmin:  5.148e-05  t[s]:   4174.59
	FillingsUpdate:  mu: +0.123520736  nElectrons: 347.000000  magneticMoment: [ Abs: 40.86655  Tot: +0.00000 ]
	SubspaceRotationAdjust: set factor to 0.343
ElecMinimize: Iter:  68  F: -1993.183334087494586  |grad|_K:  4.591e-06  alpha:  1.704e-01  linmin:  6.816e-05  t[s]:   4222.23
	FillingsUpdate:  mu: +0.122454349  nElectrons: 347.000000  magneticMoment: [ Abs: 40.82841  Tot: +0.00000 ]
	SubspaceRotationAdjust: set factor to 0.303
ElecMinimize: Iter:  69  F: -1993.183982443121067  |grad|_K:  4.192e-06  alpha:  1.784e-01  linmin:  2.108e-04  t[s]:   4270.38
	FillingsUpdate:  mu: +0.123896030  nElectrons: 347.000000  magneticMoment: [ Abs: 40.84484  Tot: -0.00000 ]
	SubspaceRotationAdjust: set factor to 0.333
ElecMinimize: Iter:  70  F: -1993.184652888075107  |grad|_K:  3.547e-06  alpha:  2.244e-01  linmin: -1.294e-04  t[s]:   4318.62
	FillingsUpdate:  mu: +0.124582664  nElectrons: 347.000000  magneticMoment: [ Abs: 40.82798  Tot: +0.00000 ]
	SubspaceRotationAdjust: set factor to 0.385
ElecMinimize: Iter:  71  F: -1993.185303755039058  |grad|_K:  3.348e-06  alpha:  2.917e-01  linmin:  1.663e-04  t[s]:   4366.19
	FillingsUpdate:  mu: +0.124865095  nElectrons: 347.000000  magneticMoment: [ Abs: 40.84060  Tot: -0.00000 ]
	SubspaceRotationAdjust: set factor to 0.409
ElecMinimize: Iter:  72  F: -1993.185814204837925  |grad|_K:  3.452e-06  alpha:  2.678e-01  linmin: -6.317e-05  t[s]:   4413.88
	FillingsUpdate:  mu: +0.123807292  nElectrons: 347.000000  magneticMoment: [ Abs: 40.81102  Tot: +0.00000 ]
	SubspaceRotationAdjust: set factor to 0.359
ElecMinimize: Iter:  73  F: -1993.186167826896963  |grad|_K:  3.764e-06  alpha:  1.633e-01  linmin: -5.038e-05  t[s]:   4462.11
	FillingsUpdate:  mu: +0.124273148  nElectrons: 347.000000  magneticMoment: [ Abs: 40.82850  Tot: -0.00000 ]
	SubspaceRotationAdjust: set factor to 0.348
ElecMinimize: Iter:  74  F: -1993.186551900990480  |grad|_K:  3.025e-06  alpha:  1.539e-01  linmin: -2.373e-05  t[s]:   4509.69
	FillingsUpdate:  mu: +0.124191126  nElectrons: 347.000000  magneticMoment: [ Abs: 40.81060  Tot: +0.00000 ]
	SubspaceRotationAdjust: set factor to 0.394
ElecMinimize: Iter:  75  F: -1993.186992531754186  |grad|_K:  2.786e-06  alpha:  2.756e-01  linmin:  6.221e-05  t[s]:   4557.97
	FillingsUpdate:  mu: +0.124150486  nElectrons: 347.000000  magneticMoment: [ Abs: 40.81599  Tot: -0.00000 ]
	SubspaceRotationAdjust: set factor to 0.423
ElecMinimize: Iter:  76  F: -1993.187358449327576  |grad|_K:  2.904e-06  alpha:  2.727e-01  linmin: -4.816e-06  t[s]:   4606.22
	FillingsUpdate:  mu: +0.123365321  nElectrons: 347.000000  magneticMoment: [ Abs: 40.79004  Tot: +0.00000 ]
	SubspaceRotationAdjust: set factor to 0.361
ElecMinimize: Iter:  77  F: -1993.187600470808320  |grad|_K:  3.379e-06  alpha:  1.613e-01  linmin: -2.655e-05  t[s]:   4654.28
	FillingsUpdate:  mu: +0.123724504  nElectrons: 347.000000  magneticMoment: [ Abs: 40.80583  Tot: +0.00000 ]
	SubspaceRotationAdjust: set factor to 0.329
ElecMinimize: Iter:  78  F: -1993.187871723726403  |grad|_K:  2.618e-06  alpha:  1.353e-01  linmin: -1.161e-05  t[s]:   4702.16
	FillingsUpdate:  mu: +0.123680844  nElectrons: 347.000000  magneticMoment: [ Abs: 40.79320  Tot: +0.00000 ]
	SubspaceRotationAdjust: set factor to 0.371
ElecMinimize: Iter:  79  F: -1993.188196512756349  |grad|_K:  2.506e-06  alpha:  2.726e-01  linmin:  8.670e-05  t[s]:   4749.79
	FillingsUpdate:  mu: +0.123593558  nElectrons: 347.000000  magneticMoment: [ Abs: 40.80236  Tot: -0.00000 ]
	SubspaceRotationAdjust: set factor to 0.402
ElecMinimize: Iter:  80  F: -1993.188484991618452  |grad|_K:  2.582e-06  alpha:  2.674e-01  linmin: -6.127e-05  t[s]:   4798.08
	FillingsUpdate:  mu: +0.122633014  nElectrons: 347.000000  magneticMoment: [ Abs: 40.78311  Tot: +0.00000 ]
	SubspaceRotationAdjust: set factor to 0.329
ElecMinimize: Iter:  81  F: -1993.188691479902218  |grad|_K:  3.092e-06  alpha:  1.706e-01  linmin: -2.381e-05  t[s]:   4846.13
	FillingsUpdate:  mu: +0.122966708  nElectrons: 347.000000  magneticMoment: [ Abs: 40.80280  Tot: +0.00000 ]
	SubspaceRotationAdjust: set factor to 0.338
ElecMinimize: Iter:  82  F: -1993.188931549973177  |grad|_K:  2.451e-06  alpha:  1.442e-01  linmin: -8.388e-05  t[s]:   4893.61
	FillingsUpdate:  mu: +0.122911333  nElectrons: 347.000000  magneticMoment: [ Abs: 40.81264  Tot: -0.00000 ]
	SubspaceRotationAdjust: set factor to 0.4
ElecMinimize: Iter:  83  F: -1993.189247514752424  |grad|_K:  2.392e-06  alpha:  3.004e-01  linmin:  1.629e-04  t[s]:   4941.17
	FillingsUpdate:  mu: +0.123493618  nElectrons: 347.000000  magneticMoment: [ Abs: 40.83395  Tot: +0.00000 ]
	SubspaceRotationAdjust: set factor to 0.467
ElecMinimize: Iter:  84  F: -1993.189536098045664  |grad|_K:  2.444e-06  alpha:  2.965e-01  linmin: -2.917e-05  t[s]:   4988.90
	FillingsUpdate:  mu: +0.122813713  nElectrons: 347.000000  magneticMoment: [ Abs: 40.85125  Tot: +0.00000 ]
	SubspaceRotationAdjust: set factor to 0.511
ElecMinimize: Iter:  85  F: -1993.189830795700800  |grad|_K:  2.866e-06  alpha:  2.804e-01  linmin:  4.518e-05  t[s]:   5036.88
	FillingsUpdate:  mu: +0.123271751  nElectrons: 347.000000  magneticMoment: [ Abs: 40.88117  Tot: -0.00000 ]
	SubspaceRotationAdjust: set factor to 0.421
ElecMinimize: Iter:  86  F: -1993.189992286210554  |grad|_K:  3.406e-06  alpha:  1.136e-01  linmin: -3.607e-06  t[s]:   5084.53
	FillingsUpdate:  mu: +0.122947408  nElectrons: 347.000000  magneticMoment: [ Abs: 40.88605  Tot: -0.00000 ]
	SubspaceRotationAdjust: set factor to 0.362
ElecMinimize: Iter:  87  F: -1993.190259996880059  |grad|_K:  2.595e-06  alpha:  1.320e-01  linmin:  2.633e-05  t[s]:   5131.76
	FillingsUpdate:  mu: +0.123255565  nElectrons: 347.000000  magneticMoment: [ Abs: 40.91092  Tot: -0.00000 ]
	SubspaceRotationAdjust: set factor to 0.346
ElecMinimize: Iter:  88  F: -1993.190535295740574  |grad|_K:  2.695e-06  alpha:  2.359e-01  linmin:  3.290e-05  t[s]:   5179.55
	FillingsUpdate:  mu: +0.122286183  nElectrons: 347.000000  magneticMoment: [ Abs: 40.90574  Tot: +0.00000 ]
	SubspaceRotationAdjust: set factor to 0.289
ElecMinimize: Iter:  89  F: -1993.190721958573249  |grad|_K:  2.792e-06  alpha:  1.493e-01  linmin:  8.388e-06  t[s]:   5227.17
	FillingsUpdate:  mu: +0.122251331  nElectrons: 347.000000  magneticMoment: [ Abs: 40.92209  Tot: -0.00000 ]
	SubspaceRotationAdjust: set factor to 0.256
ElecMinimize: Iter:  90  F: -1993.190941882615562  |grad|_K:  2.312e-06  alpha:  1.618e-01  linmin:  4.118e-05  t[s]:   5275.23
	FillingsUpdate:  mu: +0.122268495  nElectrons: 347.000000  magneticMoment: [ Abs: 40.91320  Tot: +0.00000 ]
	SubspaceRotationAdjust: set factor to 0.287
ElecMinimize: Iter:  91  F: -1993.191179446677097  |grad|_K:  2.073e-06  alpha:  2.557e-01  linmin: -3.695e-05  t[s]:   5322.99
	FillingsUpdate:  mu: +0.122268585  nElectrons: 347.000000  magneticMoment: [ Abs: 40.91290  Tot: -0.00000 ]
	SubspaceRotationAdjust: set factor to 0.339
ElecMinimize: Iter:  92  F: -1993.191405539813559  |grad|_K:  2.012e-06  alpha:  2.988e-01  linmin:  2.024e-05  t[s]:   5371.30
	FillingsUpdate:  mu: +0.121970351  nElectrons: 347.000000  magneticMoment: [ Abs: 40.90394  Tot: +0.00000 ]
	SubspaceRotationAdjust: set factor to 0.385
ElecMinimize: Iter:  93  F: -1993.191613481931199  |grad|_K:  2.147e-06  alpha:  2.949e-01  linmin: -3.082e-05  t[s]:   5419.19
	FillingsUpdate:  mu: +0.122376687  nElectrons: 347.000000  magneticMoment: [ Abs: 40.90366  Tot: -0.00000 ]
	SubspaceRotationAdjust: set factor to 0.334
ElecMinimize: Iter:  94  F: -1993.191777447840650  |grad|_K:  2.597e-06  alpha:  2.014e-01  linmin: -7.743e-07  t[s]:   5467.11
	FillingsUpdate:  mu: +0.122015147  nElectrons: 347.000000  magneticMoment: [ Abs: 40.88176  Tot: +0.00000 ]
	SubspaceRotationAdjust: set factor to 0.312
ElecMinimize: Iter:  95  F: -1993.191930955365706  |grad|_K:  2.232e-06  alpha:  1.316e-01  linmin:  1.789e-06  t[s]:   5515.75
	FillingsUpdate:  mu: +0.121702143  nElectrons: 347.000000  magneticMoment: [ Abs: 40.87586  Tot: +0.00000 ]
	SubspaceRotationAdjust: set factor to 0.361
ElecMinimize: Iter:  96  F: -1993.192142770976943  |grad|_K:  2.016e-06  alpha:  2.431e-01  linmin:  1.597e-06  t[s]:   5563.84
	FillingsUpdate:  mu: +0.122064341  nElectrons: 347.000000  magneticMoment: [ Abs: 40.86237  Tot: +0.00000 ]
	SubspaceRotationAdjust: set factor to 0.428
ElecMinimize: Iter:  97  F: -1993.192349669977830  |grad|_K:  2.023e-06  alpha:  2.917e-01  linmin:  4.597e-05  t[s]:   5612.07
	FillingsUpdate:  mu: +0.121706202  nElectrons: 347.000000  magneticMoment: [ Abs: 40.84291  Tot: +0.00000 ]
	SubspaceRotationAdjust: set factor to 0.43
ElecMinimize: Iter:  98  F: -1993.192525501690170  |grad|_K:  2.427e-06  alpha:  2.482e-01  linmin: -9.668e-06  t[s]:   5660.13
	FillingsUpdate:  mu: +0.121646409  nElectrons: 347.000000  magneticMoment: [ Abs: 40.84704  Tot: -0.00000 ]
	SubspaceRotationAdjust: set factor to 0.358
ElecMinimize: Iter:  99  F: -1993.192641964615632  |grad|_K:  2.274e-06  alpha:  1.125e-01  linmin: -6.800e-06  t[s]:   5708.00
	FillingsUpdate:  mu: +0.121457429  nElectrons: 347.000000  magneticMoment: [ Abs: 40.82822  Tot: +0.00000 ]
	SubspaceRotationAdjust: set factor to 0.393
ElecMinimize: Iter: 100  F: -1993.192815881081060  |grad|_K:  1.907e-06  alpha:  1.920e-01  linmin:  4.273e-06  t[s]:   5756.10
	FillingsUpdate:  mu: +0.121677222  nElectrons: 347.000000  magneticMoment: [ Abs: 40.82063  Tot: +0.00000 ]
	SubspaceRotationAdjust: set factor to 0.475
ElecMinimize: Iter: 101  F: -1993.192991431517612  |grad|_K:  1.831e-06  alpha:  2.765e-01  linmin:  1.231e-05  t[s]:   5804.41
	FillingsUpdate:  mu: +0.121526049  nElectrons: 347.000000  magneticMoment: [ Abs: 40.82540  Tot: -0.00000 ]
	SubspaceRotationAdjust: set factor to 0.519
ElecMinimize: Iter: 102  F: -1993.193140695334705  |grad|_K:  2.060e-06  alpha:  2.553e-01  linmin:  4.604e-07  t[s]:   5852.65
	FillingsUpdate:  mu: +0.121620577  nElectrons: 347.000000  magneticMoment: [ Abs: 40.81358  Tot: +0.00000 ]
	SubspaceRotationAdjust: set factor to 0.429
ElecMinimize: Iter: 103  F: -1993.193234571188441  |grad|_K:  2.334e-06  alpha:  1.273e-01  linmin:  1.300e-05  t[s]:   5900.43
	FillingsUpdate:  mu: +0.121872610  nElectrons: 347.000000  magneticMoment: [ Abs: 40.82318  Tot: -0.00000 ]
	SubspaceRotationAdjust: set factor to 0.45
ElecMinimize: Iter: 104  F: -1993.193359120018386  |grad|_K:  1.875e-06  alpha:  1.310e-01  linmin: -7.418e-06  t[s]:   5948.76
	FillingsUpdate:  mu: +0.121413572  nElectrons: 347.000000  magneticMoment: [ Abs: 40.83220  Tot: +0.00000 ]
	SubspaceRotationAdjust: set factor to 0.517
ElecMinimize: Iter: 105  F: -1993.193497476650464  |grad|_K:  1.847e-06  alpha:  2.251e-01  linmin:  1.913e-05  t[s]:   5997.23
	FillingsUpdate:  mu: +0.122291073  nElectrons: 347.000000  magneticMoment: [ Abs: 40.83909  Tot: +0.00000 ]
	SubspaceRotationAdjust: set factor to 0.552
ElecMinimize: Iter: 106  F: -1993.193619491332583  |grad|_K:  1.925e-06  alpha:  2.051e-01  linmin:  2.362e-05  t[s]:   6045.94
	FillingsUpdate:  mu: +0.121789123  nElectrons: 347.000000  magneticMoment: [ Abs: 40.86144  Tot: +0.00000 ]
	SubspaceRotationAdjust: set factor to 0.544
ElecMinimize: Iter: 107  F: -1993.193730199794345  |grad|_K:  2.067e-06  alpha:  1.714e-01  linmin:  8.576e-06  t[s]:   6094.66
	FillingsUpdate:  mu: +0.121809671  nElectrons: 347.000000  magneticMoment: [ Abs: 40.86041  Tot: -0.00000 ]
	SubspaceRotationAdjust: set factor to 0.48
ElecMinimize: Iter: 108  F: -1993.193812004373513  |grad|_K:  2.181e-06  alpha:  1.091e-01  linmin: -4.733e-06  t[s]:   6143.29
	FillingsUpdate:  mu: +0.122323060  nElectrons: 347.000000  magneticMoment: [ Abs: 40.87772  Tot: +0.00000 ]
	SubspaceRotationAdjust: set factor to 0.454
ElecMinimize: Iter: 109  F: -1993.193909205552927  |grad|_K:  1.805e-06  alpha:  1.166e-01  linmin: -1.925e-05  t[s]:   6191.55
	FillingsUpdate:  mu: +0.121749072  nElectrons: 347.000000  magneticMoment: [ Abs: 40.89875  Tot: -0.00000 ]
	SubspaceRotationAdjust: set factor to 0.464
ElecMinimize: Iter: 110  F: -1993.194015996707549  |grad|_K:  1.693e-06  alpha:  1.877e-01  linmin:  5.617e-05  t[s]:   6239.51
	FillingsUpdate:  mu: +0.122257277  nElectrons: 347.000000  magneticMoment: [ Abs: 40.90640  Tot: -0.00000 ]
	SubspaceRotationAdjust: set factor to 0.464
ElecMinimize: Iter: 111  F: -1993.194104859522440  |grad|_K:  1.747e-06  alpha:  1.792e-01  linmin:  1.696e-05  t[s]:   6287.26
	FillingsUpdate:  mu: +0.122258246  nElectrons: 347.000000  magneticMoment: [ Abs: 40.92620  Tot: -0.00000 ]
	SubspaceRotationAdjust: set factor to 0.412
ElecMinimize: Iter: 112  F: -1993.194171605020756  |grad|_K:  1.820e-06  alpha:  1.259e-01  linmin: -2.552e-06  t[s]:   6335.83
	FillingsUpdate:  mu: +0.121743923  nElectrons: 347.000000  magneticMoment: [ Abs: 40.93135  Tot: +0.00000 ]
	SubspaceRotationAdjust: set factor to 0.37
ElecMinimize: Iter: 113  F: -1993.194240634227981  |grad|_K:  1.516e-06  alpha:  1.190e-01  linmin:  5.368e-05  t[s]:   6383.95
	FillingsUpdate:  mu: +0.122056024  nElectrons: 347.000000  magneticMoment: [ Abs: 40.93941  Tot: +0.00000 ]
	SubspaceRotationAdjust: set factor to 0.433
ElecMinimize: Iter: 114  F: -1993.194318341271810  |grad|_K:  1.330e-06  alpha:  1.948e-01  linmin: -2.454e-05  t[s]:   6432.66
	FillingsUpdate:  mu: +0.121940183  nElectrons: 347.000000  magneticMoment: [ Abs: 40.95420  Tot: -0.00000 ]
	SubspaceRotationAdjust: set factor to 0.433
ElecMinimize: Iter: 115  F: -1993.194387288861890  |grad|_K:  1.456e-06  alpha:  2.218e-01  linmin: -2.314e-05  t[s]:   6481.12
	FillingsUpdate:  mu: +0.121835984  nElectrons: 347.000000  magneticMoment: [ Abs: 40.95064  Tot: -0.00000 ]
	SubspaceRotationAdjust: set factor to 0.384
ElecMinimize: Iter: 116  F: -1993.194427824643753  |grad|_K:  1.464e-06  alpha:  1.083e-01  linmin: -1.743e-05  t[s]:   6529.78
	FillingsUpdate:  mu: +0.122000085  nElectrons: 347.000000  magneticMoment: [ Abs: 40.95534  Tot: +0.00000 ]
	SubspaceRotationAdjust: set factor to 0.459
ElecMinimize: Iter: 117  F: -1993.194487485654690  |grad|_K:  1.172e-06  alpha:  1.585e-01  linmin: -2.251e-05  t[s]:   6578.02
	FillingsUpdate:  mu: +0.121489038  nElectrons: 347.000000  magneticMoment: [ Abs: 40.95801  Tot: -0.00000 ]
	SubspaceRotationAdjust: set factor to 0.492
ElecMinimize: Iter: 118  F: -1993.194544799195228  |grad|_K:  1.279e-06  alpha:  2.376e-01  linmin: -1.522e-05  t[s]:   6626.87
	FillingsUpdate:  mu: +0.121531312  nElectrons: 347.000000  magneticMoment: [ Abs: 40.94797  Tot: +0.00000 ]
	SubspaceRotationAdjust: set factor to 0.428
ElecMinimize: Iter: 119  F: -1993.194579181628569  |grad|_K:  1.426e-06  alpha:  1.211e-01  linmin:  2.720e-05  t[s]:   6675.40
	FillingsUpdate:  mu: +0.121852995  nElectrons: 347.000000  magneticMoment: [ Abs: 40.94817  Tot: +0.00000 ]
	SubspaceRotationAdjust: set factor to 0.423
ElecMinimize: Iter: 120  F: -1993.194620025263475  |grad|_K:  1.176e-06  alpha:  1.154e-01  linmin:  5.799e-08  t[s]:   6724.24
	FillingsUpdate:  mu: +0.121394643  nElectrons: 347.000000  magneticMoment: [ Abs: 40.94497  Tot: +0.00000 ]
	SubspaceRotationAdjust: set factor to 0.433
ElecMinimize: Iter: 121  F: -1993.194661144012571  |grad|_K:  1.118e-06  alpha:  1.699e-01  linmin: -1.531e-05  t[s]:   6772.57
	FillingsUpdate:  mu: +0.121642439  nElectrons: 347.000000  magneticMoment: [ Abs: 40.93090  Tot: -0.00000 ]
	SubspaceRotationAdjust: set factor to 0.444
ElecMinimize: Iter: 122  F: -1993.194699807955431  |grad|_K:  1.100e-06  alpha:  1.762e-01  linmin: -2.471e-05  t[s]:   6820.80
	FillingsUpdate:  mu: +0.121759746  nElectrons: 347.000000  magneticMoment: [ Abs: 40.92842  Tot: +0.00000 ]
	SubspaceRotationAdjust: set factor to 0.395
ElecMinimize: Iter: 123  F: -1993.194726599098431  |grad|_K:  1.180e-06  alpha:  1.259e-01  linmin:  8.552e-07  t[s]:   6869.00
	FillingsUpdate:  mu: +0.121431426  nElectrons: 347.000000  magneticMoment: [ Abs: 40.91774  Tot: +0.00000 ]
	SubspaceRotationAdjust: set factor to 0.409
ElecMinimize: Iter: 124  F: -1993.194758292884217  |grad|_K:  9.091e-07  alpha:  1.301e-01  linmin: -2.397e-05  t[s]:   6917.43
	FillingsUpdate:  mu: +0.121600062  nElectrons: 347.000000  magneticMoment: [ Abs: 40.90453  Tot: -0.00000 ]
	SubspaceRotationAdjust: set factor to 0.484
ElecMinimize: Iter: 125  F: -1993.194792532558949  |grad|_K:  9.042e-07  alpha:  2.356e-01  linmin: -9.150e-06  t[s]:   6966.00
	FillingsUpdate:  mu: +0.121639344  nElectrons: 347.000000  magneticMoment: [ Abs: 40.90167  Tot: -0.00000 ]
	SubspaceRotationAdjust: set factor to 0.406
ElecMinimize: Iter: 126  F: -1993.194812745004810  |grad|_K:  1.071e-06  alpha:  1.409e-01  linmin: -2.328e-06  t[s]:   7014.43
	FillingsUpdate:  mu: +0.121468165  nElectrons: 347.000000  magneticMoment: [ Abs: 40.88927  Tot: +0.00000 ]
	SubspaceRotationAdjust: set factor to 0.414
ElecMinimize: Iter: 127  F: -1993.194835823874200  |grad|_K:  7.876e-07  alpha:  1.152e-01  linmin: -1.704e-05  t[s]:   7063.12
	FillingsUpdate:  mu: +0.121533677  nElectrons: 347.000000  magneticMoment: [ Abs: 40.87695  Tot: -0.00000 ]
	SubspaceRotationAdjust: set factor to 0.529
ElecMinimize: Iter: 128  F: -1993.194862311614543  |grad|_K:  7.425e-07  alpha:  2.436e-01  linmin:  6.486e-06  t[s]:   7111.35
	FillingsUpdate:  mu: +0.121496040  nElectrons: 347.000000  magneticMoment: [ Abs: 40.87336  Tot: -0.00000 ]
	SubspaceRotationAdjust: set factor to 0.437
ElecMinimize: Iter: 129  F: -1993.194881726435142  |grad|_K:  9.360e-07  alpha:  2.015e-01  linmin:  5.432e-06  t[s]:   7159.41
	FillingsUpdate:  mu: +0.121525752  nElectrons: 347.000000  magneticMoment: [ Abs: 40.86463  Tot: +0.00000 ]
	SubspaceRotationAdjust: set factor to 0.379
ElecMinimize: Iter: 130  F: -1993.194895111599863  |grad|_K:  7.614e-07  alpha:  8.837e-02  linmin:  3.643e-05  t[s]:   7207.62
	FillingsUpdate:  mu: +0.121704602  nElectrons: 347.000000  magneticMoment: [ Abs: 40.85772  Tot: -0.00000 ]
	SubspaceRotationAdjust: set factor to 0.491
ElecMinimize: Iter: 131  F: -1993.194915552734528  |grad|_K:  6.728e-07  alpha:  2.030e-01  linmin:  5.946e-06  t[s]:   7256.14
	FillingsUpdate:  mu: +0.121521488  nElectrons: 347.000000  magneticMoment: [ Abs: 40.85602  Tot: +0.00000 ]
	SubspaceRotationAdjust: set factor to 0.452
ElecMinimize: Iter: 132  F: -1993.194931881198499  |grad|_K:  8.016e-07  alpha:  2.065e-01  linmin: -2.841e-06  t[s]:   7304.64
	FillingsUpdate:  mu: +0.121544202  nElectrons: 347.000000  magneticMoment: [ Abs: 40.84911  Tot: +0.00000 ]
	SubspaceRotationAdjust: set factor to 0.403
ElecMinimize: Iter: 133  F: -1993.194943321067058  |grad|_K:  7.385e-07  alpha:  1.022e-01  linmin:  1.082e-05  t[s]:   7352.47
	FillingsUpdate:  mu: +0.121746535  nElectrons: 347.000000  magneticMoment: [ Abs: 40.84608  Tot: +0.00000 ]
	SubspaceRotationAdjust: set factor to 0.464
ElecMinimize: Iter: 134  F: -1993.194960179531108  |grad|_K:  6.812e-07  alpha:  1.771e-01  linmin: -3.969e-06  t[s]:   7400.88
	FillingsUpdate:  mu: +0.121525838  nElectrons: 347.000000  magneticMoment: [ Abs: 40.84758  Tot: -0.00000 ]
	SubspaceRotationAdjust: set factor to 0.492
ElecMinimize: Iter: 135  F: -1993.194976655228629  |grad|_K:  7.436e-07  alpha:  2.028e-01  linmin: -6.692e-06  t[s]:   7449.00
	FillingsUpdate:  mu: +0.121565448  nElectrons: 347.000000  magneticMoment: [ Abs: 40.84292  Tot: -0.00000 ]
	SubspaceRotationAdjust: set factor to 0.439
ElecMinimize: Iter: 136  F: -1993.194989232037415  |grad|_K:  8.267e-07  alpha:  1.296e-01  linmin: -1.399e-06  t[s]:   7497.12
	FillingsUpdate:  mu: +0.121720951  nElectrons: 347.000000  magneticMoment: [ Abs: 40.84389  Tot: -0.00000 ]
	SubspaceRotationAdjust: set factor to 0.451
ElecMinimize: Iter: 137  F: -1993.195004781501211  |grad|_K:  7.144e-07  alpha:  1.301e-01  linmin: -1.550e-05  t[s]:   7544.90
	FillingsUpdate:  mu: +0.121470006  nElectrons: 347.000000  magneticMoment: [ Abs: 40.84695  Tot: +0.00000 ]
	SubspaceRotationAdjust: set factor to 0.526
ElecMinimize: Iter: 138  F: -1993.195024914251690  |grad|_K:  7.383e-07  alpha:  2.243e-01  linmin: -3.598e-05  t[s]:   7592.70
	FillingsUpdate:  mu: +0.121538916  nElectrons: 347.000000  magneticMoment: [ Abs: 40.84419  Tot: +0.00000 ]
	SubspaceRotationAdjust: set factor to 0.43
ElecMinimize: Iter: 139  F: -1993.195040163837575  |grad|_K:  9.524e-07  alpha:  1.581e-01  linmin:  6.093e-06  t[s]:   7641.06
	FillingsUpdate:  mu: +0.121698082  nElectrons: 347.000000  magneticMoment: [ Abs: 40.84921  Tot: -0.00000 ]
	SubspaceRotationAdjust: set factor to 0.418
ElecMinimize: Iter: 140  F: -1993.195056601824490  |grad|_K:  7.483e-07  alpha:  1.043e-01  linmin:  3.133e-07  t[s]:   7689.03
	FillingsUpdate:  mu: +0.121500244  nElectrons: 347.000000  magneticMoment: [ Abs: 40.85409  Tot: +0.00000 ]
	SubspaceRotationAdjust: set factor to 0.506
ElecMinimize: Iter: 141  F: -1993.195079420856700  |grad|_K:  7.532e-07  alpha:  2.321e-01  linmin: -4.065e-05  t[s]:   7737.19
	FillingsUpdate:  mu: +0.121548880  nElectrons: 347.000000  magneticMoment: [ Abs: 40.85137  Tot: +0.00000 ]
	SubspaceRotationAdjust: set factor to 0.438
ElecMinimize: Iter: 142  F: -1993.195095202820085  |grad|_K:  9.443e-07  alpha:  1.568e-01  linmin:  1.924e-06  t[s]:   7785.02
	FillingsUpdate:  mu: +0.121609795  nElectrons: 347.000000  magneticMoment: [ Abs: 40.85671  Tot: -0.00000 ]
	SubspaceRotationAdjust: set factor to 0.42
ElecMinimize: Iter: 143  F: -1993.195111676188390  |grad|_K:  7.482e-07  alpha:  1.062e-01  linmin: -1.648e-06  t[s]:   7832.89
	FillingsUpdate:  mu: +0.121353668  nElectrons: 347.000000  magneticMoment: [ Abs: 40.86227  Tot: -0.00000 ]
	SubspaceRotationAdjust: set factor to 0.483
ElecMinimize: Iter: 144  F: -1993.195132647840410  |grad|_K:  7.406e-07  alpha:  2.133e-01  linmin: -3.601e-05  t[s]:   7880.66
	FillingsUpdate:  mu: +0.121492780  nElectrons: 347.000000  magneticMoment: [ Abs: 40.86055  Tot: +0.00000 ]
	SubspaceRotationAdjust: set factor to 0.452
ElecMinimize: Iter: 145  F: -1993.195148178959926  |grad|_K:  8.642e-07  alpha:  1.601e-01  linmin:  9.982e-06  t[s]:   7928.82
	FillingsUpdate:  mu: +0.121583218  nElectrons: 347.000000  magneticMoment: [ Abs: 40.86578  Tot: -0.00000 ]
	SubspaceRotationAdjust: set factor to 0.423
ElecMinimize: Iter: 146  F: -1993.195161891468388  |grad|_K:  7.423e-07  alpha:  1.053e-01  linmin:  5.294e-09  t[s]:   7976.44
	FillingsUpdate:  mu: +0.121271152  nElectrons: 347.000000  magneticMoment: [ Abs: 40.86871  Tot: -0.00000 ]
	SubspaceRotationAdjust: set factor to 0.481
ElecMinimize: Iter: 147  F: -1993.195179194987986  |grad|_K:  6.822e-07  alpha:  1.791e-01  linmin: -3.094e-05  t[s]:   8023.90
	FillingsUpdate:  mu: +0.121350794  nElectrons: 347.000000  magneticMoment: [ Abs: 40.86524  Tot: +0.00000 ]
	SubspaceRotationAdjust: set factor to 0.436
ElecMinimize: Iter: 148  F: -1993.195194250700979  |grad|_K:  7.974e-07  alpha:  1.838e-01  linmin:  1.713e-05  t[s]:   8071.43
	FillingsUpdate:  mu: +0.121419148  nElectrons: 347.000000  magneticMoment: [ Abs: 40.86840  Tot: +0.00000 ]
	SubspaceRotationAdjust: set factor to 0.402
ElecMinimize: Iter: 149  F: -1993.195205205652883  |grad|_K:  7.168e-07  alpha:  9.865e-02  linmin: -4.382e-06  t[s]:   8119.62
	FillingsUpdate:  mu: +0.121267503  nElectrons: 347.000000  magneticMoment: [ Abs: 40.86853  Tot: -0.00000 ]
	SubspaceRotationAdjust: set factor to 0.513
ElecMinimize: Iter: 150  F: -1993.195221737288875  |grad|_K:  6.429e-07  alpha:  1.831e-01  linmin: -4.118e-05  t[s]:   8167.66
	FillingsUpdate:  mu: +0.121386136  nElectrons: 347.000000  magneticMoment: [ Abs: 40.86322  Tot: +0.00000 ]
	SubspaceRotationAdjust: set factor to 0.405
ElecMinimize: Iter: 151  F: -1993.195234895343219  |grad|_K:  8.343e-07  alpha:  1.806e-01  linmin: -2.117e-06  t[s]:   8215.21
	FillingsUpdate:  mu: +0.121479585  nElectrons: 347.000000  magneticMoment: [ Abs: 40.86450  Tot: -0.00000 ]
	SubspaceRotationAdjust: set factor to 0.388
ElecMinimize: Iter: 152  F: -1993.195245784922918  |grad|_K:  6.599e-07  alpha:  8.888e-02  linmin: -1.740e-05  t[s]:   8263.50
	FillingsUpdate:  mu: +0.121271966  nElectrons: 347.000000  magneticMoment: [ Abs: 40.86291  Tot: -0.00000 ]
	SubspaceRotationAdjust: set factor to 0.487
ElecMinimize: Iter: 153  F: -1993.195262207133965  |grad|_K:  6.836e-07  alpha:  2.140e-01  linmin: -4.348e-05  t[s]:   8311.48
	FillingsUpdate:  mu: +0.121309141  nElectrons: 347.000000  magneticMoment: [ Abs: 40.85660  Tot: +0.00000 ]
	SubspaceRotationAdjust: set factor to 0.43
ElecMinimize: Iter: 154  F: -1993.195272776503089  |grad|_K:  7.868e-07  alpha:  1.289e-01  linmin:  5.942e-06  t[s]:   8360.08
	FillingsUpdate:  mu: +0.121471811  nElectrons: 347.000000  magneticMoment: [ Abs: 40.85527  Tot: -0.00000 ]
	SubspaceRotationAdjust: set factor to 0.461
ElecMinimize: Iter: 155  F: -1993.195286572787381  |grad|_K:  6.544e-07  alpha:  1.276e-01  linmin:  2.656e-05  t[s]:   8408.34
	FillingsUpdate:  mu: +0.121281819  nElectrons: 347.000000  magneticMoment: [ Abs: 40.85509  Tot: +0.00000 ]
	SubspaceRotationAdjust: set factor to 0.516
ElecMinimize: Iter: 156  F: -1993.195301876711028  |grad|_K:  7.028e-07  alpha:  2.049e-01  linmin: -2.931e-05  t[s]:   8457.02
	FillingsUpdate:  mu: +0.121337365  nElectrons: 347.000000  magneticMoment: [ Abs: 40.84893  Tot: +0.00000 ]
	SubspaceRotationAdjust: set factor to 0.451
ElecMinimize: Iter: 157  F: -1993.195312957184342  |grad|_K:  8.072e-07  alpha:  1.281e-01  linmin:  3.594e-06  t[s]:   8505.22
	FillingsUpdate:  mu: +0.121477116  nElectrons: 347.000000  magneticMoment: [ Abs: 40.84823  Tot: -0.00000 ]
	SubspaceRotationAdjust: set factor to 0.439
ElecMinimize: Iter: 158  F: -1993.195326015997352  |grad|_K:  6.718e-07  alpha:  1.145e-01  linmin:  2.049e-05  t[s]:   8553.17
	FillingsUpdate:  mu: +0.121281895  nElectrons: 347.000000  magneticMoment: [ Abs: 40.84760  Tot: +0.00000 ]
	SubspaceRotationAdjust: set factor to 0.512
ElecMinimize: Iter: 159  F: -1993.195342292357736  |grad|_K:  6.661e-07  alpha:  2.064e-01  linmin: -3.669e-05  t[s]:   8601.09
	FillingsUpdate:  mu: +0.121368613  nElectrons: 347.000000  magneticMoment: [ Abs: 40.84253  Tot: -0.00000 ]
	SubspaceRotationAdjust: set factor to 0.419
ElecMinimize: Iter: 160  F: -1993.195354728373786  |grad|_K:  8.356e-07  alpha:  1.593e-01  linmin: -6.160e-06  t[s]:   8648.73
	FillingsUpdate:  mu: +0.121541753  nElectrons: 347.000000  magneticMoment: [ Abs: 40.84473  Tot: -0.00000 ]
	SubspaceRotationAdjust: set factor to 0.392
ElecMinimize: Iter: 161  F: -1993.195366885978274  |grad|_K:  6.587e-07  alpha:  9.884e-02  linmin: -5.553e-06  t[s]:   8697.03
	FillingsUpdate:  mu: +0.121496430  nElectrons: 347.000000  magneticMoment: [ Abs: 40.84619  Tot: +0.00000 ]
	SubspaceRotationAdjust: set factor to 0.502
ElecMinimize: Iter: 162  F: -1993.195384291292385  |grad|_K:  6.555e-07  alpha:  2.285e-01  linmin: -2.661e-05  t[s]:   8745.35
	FillingsUpdate:  mu: +0.121541645  nElectrons: 347.000000  magneticMoment: [ Abs: 40.84284  Tot: -0.00000 ]
	SubspaceRotationAdjust: set factor to 0.406
ElecMinimize: Iter: 163  F: -1993.195396249693886  |grad|_K:  8.358e-07  alpha:  1.586e-01  linmin: -1.542e-06  t[s]:   8793.71
	FillingsUpdate:  mu: +0.121627844  nElectrons: 347.000000  magneticMoment: [ Abs: 40.84678  Tot: -0.00000 ]
	SubspaceRotationAdjust: set factor to 0.398
ElecMinimize: Iter: 164  F: -1993.195409251425190  |grad|_K:  6.401e-07  alpha:  1.060e-01  linmin: -8.608e-08  t[s]:   8842.15
	FillingsUpdate:  mu: +0.121569818  nElectrons: 347.000000  magneticMoment: [ Abs: 40.85022  Tot: +0.00000 ]
	SubspaceRotationAdjust: set factor to 0.515
ElecMinimize: Iter: 165  F: -1993.195426972788255  |grad|_K:  6.414e-07  alpha:  2.469e-01  linmin: -1.317e-05  t[s]:   8890.38
	FillingsUpdate:  mu: +0.121630182  nElectrons: 347.000000  magneticMoment: [ Abs: 40.84901  Tot: -0.00000 ]
	SubspaceRotationAdjust: set factor to 0.419
ElecMinimize: Iter: 166  F: -1993.195439701191845  |grad|_K:  8.504e-07  alpha:  1.765e-01  linmin: -4.061e-07  t[s]:   8938.56
	FillingsUpdate:  mu: +0.121715071  nElectrons: 347.000000  magneticMoment: [ Abs: 40.85528  Tot: -0.00000 ]
	SubspaceRotationAdjust: set factor to 0.378
ElecMinimize: Iter: 167  F: -1993.195451755023896  |grad|_K:  6.474e-07  alpha:  9.496e-02  linmin: -6.850e-06  t[s]:   8986.46
	FillingsUpdate:  mu: +0.121681453  nElectrons: 347.000000  magneticMoment: [ Abs: 40.85968  Tot: -0.00000 ]
	SubspaceRotationAdjust: set factor to 0.492
ElecMinimize: Iter: 168  F: -1993.195469582988153  |grad|_K:  6.214e-07  alpha:  2.428e-01  linmin: -2.025e-06  t[s]:   9034.66
	FillingsUpdate:  mu: +0.121683244  nElectrons: 347.000000  magneticMoment: [ Abs: 40.85932  Tot: -0.00000 ]
	SubspaceRotationAdjust: set factor to 0.423
ElecMinimize: Iter: 169  F: -1993.195483178083350  |grad|_K:  8.199e-07  alpha:  2.011e-01  linmin:  3.989e-06  t[s]:   9082.81
	FillingsUpdate:  mu: +0.121698654  nElectrons: 347.000000  magneticMoment: [ Abs: 40.86567  Tot: +0.00000 ]
	SubspaceRotationAdjust: set factor to 0.364
ElecMinimize: Iter: 170  F: -1993.195494013960570  |grad|_K:  6.534e-07  alpha:  9.227e-02  linmin:  5.157e-07  t[s]:   9130.63
	FillingsUpdate:  mu: +0.121687863  nElectrons: 347.000000  magneticMoment: [ Abs: 40.86957  Tot: -0.00000 ]
	SubspaceRotationAdjust: set factor to 0.473
ElecMinimize: Iter: 171  F: -1993.195511595641847  |grad|_K:  6.140e-07  alpha:  2.357e-01  linmin:  8.491e-06  t[s]:   9178.65
	FillingsUpdate:  mu: +0.121728639  nElectrons: 347.000000  magneticMoment: [ Abs: 40.86934  Tot: +0.00000 ]
	SubspaceRotationAdjust: set factor to 0.421
ElecMinimize: Iter: 172  F: -1993.195525975310147  |grad|_K:  7.983e-07  alpha:  2.185e-01  linmin:  1.045e-05  t[s]:   9226.34
	FillingsUpdate:  mu: +0.121727928  nElectrons: 347.000000  magneticMoment: [ Abs: 40.87522  Tot: -0.00000 ]
	SubspaceRotationAdjust: set factor to 0.364
ElecMinimize: Iter: 173  F: -1993.195536491078428  |grad|_K:  6.727e-07  alpha:  9.498e-02  linmin:  1.242e-05  t[s]:   9274.20
	FillingsUpdate:  mu: +0.121627755  nElectrons: 347.000000  magneticMoment: [ Abs: 40.87698  Tot: -0.00000 ]
	SubspaceRotationAdjust: set factor to 0.473
ElecMinimize: Iter: 174  F: -1993.195554306646272  |grad|_K:  6.236e-07  alpha:  2.262e-01  linmin:  1.936e-05  t[s]:   9322.04
	FillingsUpdate:  mu: +0.121620186  nElectrons: 347.000000  magneticMoment: [ Abs: 40.87523  Tot: -0.00000 ]
	SubspaceRotationAdjust: set factor to 0.426
ElecMinimize: Iter: 175  F: -1993.195569927824181  |grad|_K:  7.984e-07  alpha:  2.307e-01  linmin:  1.505e-05  t[s]:   9370.48
	FillingsUpdate:  mu: +0.121599316  nElectrons: 347.000000  magneticMoment: [ Abs: 40.88017  Tot: +0.00000 ]
	SubspaceRotationAdjust: set factor to 0.372
ElecMinimize: Iter: 176  F: -1993.195580647464794  |grad|_K:  7.147e-07  alpha:  9.723e-02  linmin:  2.299e-05  t[s]:   9418.45
	FillingsUpdate:  mu: +0.121500544  nElectrons: 347.000000  magneticMoment: [ Abs: 40.87999  Tot: +0.00000 ]
	SubspaceRotationAdjust: set factor to 0.467
ElecMinimize: Iter: 177  F: -1993.195598991501811  |grad|_K:  6.503e-07  alpha:  2.071e-01  linmin:  2.839e-05  t[s]:   9466.25
	FillingsUpdate:  mu: +0.121545618  nElectrons: 347.000000  magneticMoment: [ Abs: 40.87610  Tot: -0.00000 ]
	SubspaceRotationAdjust: set factor to 0.45
ElecMinimize: Iter: 178  F: -1993.195615530986061  |grad|_K:  7.909e-07  alpha:  2.252e-01  linmin:  1.187e-05  t[s]:   9514.31
	FillingsUpdate:  mu: +0.121487383  nElectrons: 347.000000  magneticMoment: [ Abs: 40.87952  Tot: -0.00000 ]
	SubspaceRotationAdjust: set factor to 0.396
ElecMinimize: Iter: 179  F: -1993.195626806388873  |grad|_K:  7.576e-07  alpha:  1.041e-01  linmin:  1.700e-05  t[s]:   9562.03
	FillingsUpdate:  mu: +0.121298611  nElectrons: 347.000000  magneticMoment: [ Abs: 40.87658  Tot: -0.00000 ]
	SubspaceRotationAdjust: set factor to 0.447
ElecMinimize: Iter: 180  F: -1993.195644292354700  |grad|_K:  6.845e-07  alpha:  1.755e-01  linmin:  2.896e-05  t[s]:   9609.71
	FillingsUpdate:  mu: +0.121442527  nElectrons: 347.000000  magneticMoment: [ Abs: 40.87167  Tot: +0.00000 ]
	SubspaceRotationAdjust: set factor to 0.498
ElecMinimize: Iter: 181  F: -1993.195661785449374  |grad|_K:  7.348e-07  alpha:  2.152e-01  linmin:  5.756e-06  t[s]:   9657.11
	FillingsUpdate:  mu: +0.121396198  nElectrons: 347.000000  magneticMoment: [ Abs: 40.87427  Tot: +0.00000 ]
	SubspaceRotationAdjust: set factor to 0.461
ElecMinimize: Iter: 182  F: -1993.195674883465244  |grad|_K:  8.450e-07  alpha:  1.394e-01  linmin:  8.989e-07  t[s]:   9704.70
	FillingsUpdate:  mu: +0.121291067  nElectrons: 347.000000  magneticMoment: [ Abs: 40.86947  Tot: -0.00000 ]
	SubspaceRotationAdjust: set factor to 0.44
ElecMinimize: Iter: 183  F: -1993.195689528880166  |grad|_K:  7.308e-07  alpha:  1.171e-01  linmin:  9.259e-06  t[s]:   9752.48
	FillingsUpdate:  mu: +0.121397989  nElectrons: 347.000000  magneticMoment: [ Abs: 40.86506  Tot: +0.00000 ]
	SubspaceRotationAdjust: set factor to 0.533
ElecMinimize: Iter: 184  F: -1993.195709107678113  |grad|_K:  6.982e-07  alpha:  2.101e-01  linmin: -3.798e-06  t[s]:   9800.39
	FillingsUpdate:  mu: +0.121252359  nElectrons: 347.000000  magneticMoment: [ Abs: 40.86482  Tot: -0.00000 ]
	SubspaceRotationAdjust: set factor to 0.523
ElecMinimize: Iter: 185  F: -1993.195727882841766  |grad|_K:  8.474e-07  alpha:  2.200e-01  linmin: -4.549e-06  t[s]:   9848.97
	FillingsUpdate:  mu: +0.121246355  nElectrons: 347.000000  magneticMoment: [ Abs: 40.85856  Tot: -0.00000 ]
	SubspaceRotationAdjust: set factor to 0.463
ElecMinimize: Iter: 186  F: -1993.195739965335861  |grad|_K:  8.537e-07  alpha:  9.584e-02  linmin: -6.566e-06  t[s]:   9897.04
	FillingsUpdate:  mu: +0.121398972  nElectrons: 347.000000  magneticMoment: [ Abs: 40.85715  Tot: -0.00000 ]
	SubspaceRotationAdjust: set factor to 0.57
ElecMinimize: Iter: 187  F: -1993.195760617318683  |grad|_K:  7.305e-07  alpha:  1.618e-01  linmin: -1.210e-06  t[s]:   9945.23
	FillingsUpdate:  mu: +0.121277586  nElectrons: 347.000000  magneticMoment: [ Abs: 40.85698  Tot: +0.00000 ]
	SubspaceRotationAdjust: set factor to 0.615
ElecMinimize: Iter: 188  F: -1993.195782344598456  |grad|_K:  8.597e-07  alpha:  2.330e-01  linmin:  1.182e-05  t[s]:   9993.41
	FillingsUpdate:  mu: +0.121334444  nElectrons: 347.000000  magneticMoment: [ Abs: 40.85036  Tot: -0.00000 ]
	SubspaceRotationAdjust: set factor to 0.516
ElecMinimize: Iter: 189  F: -1993.195795281061010  |grad|_K:  9.848e-07  alpha:  1.007e-01  linmin:  8.115e-06  t[s]:  10041.88
	FillingsUpdate:  mu: +0.121445756  nElectrons: 347.000000  magneticMoment: [ Abs: 40.85091  Tot: -0.00000 ]
	SubspaceRotationAdjust: set factor to 0.553
[...]
	FillingsUpdate:  mu: +0.128353588  nElectrons: 347.000000  magneticMoment: [ Abs: 40.65019  Tot: +0.00000 ]
	SubspaceRotationAdjust: set factor to 0.191
ElecMinimize: Iter:   9  F: -1993.232416969678525  |grad|_K:  1.265e-07  alpha:  3.003e-01  linmin: -4.921e-08  t[s]:  62914.23
	FillingsUpdate:  mu: +0.128379832  nElectrons: 347.000000  magneticMoment: [ Abs: 40.65018  Tot: -0.00000 ]
	SubspaceRotationAdjust: set factor to 0.209
ElecMinimize: Iter:  10  F: -1993.232417840325752  |grad|_K:  9.434e-08  alpha:  3.112e-01  linmin:  6.774e-07  t[s]:  62962.43
	FillingsUpdate:  mu: +0.128396924  nElectrons: 347.000000  magneticMoment: [ Abs: 40.65024  Tot: +0.00000 ]
	SubspaceRotationAdjust: set factor to 0.228
ElecMinimize: Iter:  11  F: -1993.232418380945091  |grad|_K:  7.093e-08  alpha:  3.474e-01  linmin: -7.568e-07  t[s]:  63010.57
	FillingsUpdate:  mu: +0.128373184  nElectrons: 347.000000  magneticMoment: [ Abs: 40.65059  Tot: -0.00000 ]
	SubspaceRotationAdjust: set factor to 0.189
ElecMinimize: Iter:  12  F: -1993.232418640644255  |grad|_K:  5.561e-08  alpha:  2.948e-01  linmin: -2.804e-06  t[s]:  63058.99
	FillingsUpdate:  mu: +0.128392051  nElectrons: 347.000000  magneticMoment: [ Abs: 40.65051  Tot: +0.00000 ]
	SubspaceRotationAdjust: set factor to 0.161
ElecMinimize: Iter:  13  F: -1993.232418799950210  |grad|_K:  4.093e-08  alpha:  2.942e-01  linmin: -1.870e-05  t[s]:  63106.79
	FillingsUpdate:  mu: +0.128387768  nElectrons: 347.000000  magneticMoment: [ Abs: 40.65065  Tot: -0.00000 ]
	SubspaceRotationAdjust: set factor to 0.188
ElecMinimize: Iter:  14  F: -1993.232418903139433  |grad|_K:  3.172e-08  alpha:  3.511e-01  linmin:  1.710e-06  t[s]:  63154.91
ElecMinimize: Converged (|Delta F|<1.000000e-06 for 5 iters).
Setting wave functions to eigenvectors of Hamiltonian

# Ionic positions in lattice coordinates:
ion Ni  -0.002880974082318   0.002155404423298   0.164832672705518 1
ion Ni   0.000000000000000   0.000000000000000  -0.050000000000000 0
ion Ni  -0.250000000000000   0.250000000000000  -0.150000000000000 0
ion V   0.495611948752638   0.000816639113146   0.165153186191657 1
ion V  -0.011836949662413   0.503922948461231   0.165158674304409 1
ion V   0.489112808611744   0.501481275213186   0.156029722224425 1
ion V   0.242711711834323   0.242775720326626   0.056898437311029 1
ion V   0.242566585223449   0.757381552429499   0.056593947495663 1
ion V  -0.243047631177582   0.244397132028749   0.055431498386004 1
ion V  -0.244568474820839   0.753885475921307   0.055591334032323 1
ion Co   0.500000000000000   0.000000000000000  -0.050000000000000 0
ion Co   0.000000000000000   0.500000000000000  -0.050000000000000 0
ion Co   0.250000000000000   0.250000000000000  -0.150000000000000 0
ion Co   0.250000000000000   0.750000000000000  -0.150000000000000 0
ion Co  -0.250000000000000   0.750000000000000  -0.150000000000000 0
ion Cr   0.500000000000000   0.500000000000000  -0.050000000000000 0
ion O   0.257199605857630   0.266794362520115   0.158380037602579 1
ion O   0.256896075083862   0.736927159054155   0.156974766748518 1
ion O  -0.277519270593239   0.270123750271527   0.155082179251139 1
ion O  -0.278526237918422   0.732487019748559   0.155139742042130 1
ion O   0.002721245941977   0.001103997272595   0.072997514146475 1
ion O   0.493254882193305   0.000265851319791   0.058653580363015 1
ion O   0.005470690334951   0.499587764631349   0.058215790084785 1
ion O   0.491968170665044   0.499335076149898   0.049541829824985 1
ion O   0.250000000000000   0.250000000000000  -0.050000000000000 0
ion O   0.250000000000000   0.750000000000000  -0.050000000000000 0
ion O  -0.250000000000000   0.250000000000000  -0.050000000000000 0
ion O  -0.250000000000000   0.750000000000000  -0.050000000000000 0
ion O   0.000000000000000   0.000000000000000  -0.150000000000000 0
ion O   0.500000000000000   0.000000000000000  -0.150000000000000 0
ion O   0.000000000000000   0.500000000000000  -0.150000000000000 0
ion O   0.500000000000000   0.500000000000000  -0.150000000000000 0
ion O  -0.032201401382558  -0.012730447343817   0.251001978647242 1
ion H   0.076685739150611   0.078281936839471   0.271484658200029 1

# Forces in Lattice coordinates:
force Ni   0.006349361947765   0.006581310205486   0.012202759210121 1
force Ni  -0.045416822620854   0.048471413922879  -0.304549579821843 0
force Ni   0.088642783693503  -0.086514787603491   0.038546674149913 0
force V   0.005156412302280   0.004114814290025  -0.019925600084220 1
force V   0.000315566056187   0.001890604669303   0.000884506060535 1
force V   0.001906964298946   0.001210138294304   0.018424984529747 1
force V   0.008255823485407   0.004670800775972  -0.010507357486780 1
force V   0.006563957505332  -0.000828399629168  -0.019638618108184 1
force V   0.000833203059261   0.001890197536783  -0.006766163786018 1
force V   0.002232230326247   0.001509452597160  -0.021490688316220 1
force Co   0.037812548462047   0.032622663331950  -0.301023548255471 0
force Co  -0.021000804234079  -0.017422577757118  -0.308907336332492 0
force Co  -0.060652068314803  -0.084988348068588  -0.493346179000570 0
force Co  -0.058161705897481   0.086848651633013  -0.441419099441417 0
force Co   0.092791472476388   0.060411617179351  -0.486431039152164 0
force Cr   0.035015947684183  -0.037849844244145  -0.417953871107292 0
force O  -0.006180613786946  -0.001920022480224   0.010581911145517 1
force O  -0.006644195032225   0.002751288019712  -0.007984477486390 1
force O   0.005102442013296  -0.002615981455925   0.010147921760473 1
force O  -0.001315847726960   0.003976330864800  -0.011966337993233 1
force O  -0.002916777600046  -0.002387598457692   0.016389499488524 1
force O   0.002059194919171  -0.000072984812758   0.013197328232572 1
force O  -0.000563243892931   0.001737443897742   0.013158883258005 1
force O  -0.001449376785190   0.002137399340378   0.053113699008529 1
force O   0.063069976559679   0.070688955122725   0.696025667369047 0
force O   0.063924646082390  -0.076978362370876   0.710402389427742 0
force O  -0.069155023184137   0.056380238195216   0.514876064170902 0
force O  -0.065296181514795  -0.046206381640667   0.508695690817540 0
force O  -0.005199773835766   0.005300890815049  -0.275615073791013 0
force O  -0.013561750221950  -0.009109387604298  -0.011338165430667 0
force O   0.008460739947259   0.002524727728285   0.020033728185593 0
force O  -0.010011359174526   0.005606560648691   0.571950964247828 0
force O   0.003450278652615   0.011046979344604   0.032090450358081 1
force H  -0.021705316338208  -0.018833431587413  -0.031887711831491 1

# Energy components:
   Eewald =     5136.3949874368599922
       EH =     6932.6665918560311184
     Eloc =   -14225.5682153112302331
      Enl =     -514.8143974863870653
   Epulay =       -0.0004810744731046
      Exc =     -245.3299192099164543
       KE =      922.3164091145732755
        U =        1.1036094427109271
-------------------------------------
     Etot =    -1993.2314152318317610
       TS =        0.0010036713075615
-------------------------------------
        F =    -1993.2324189031394326

IonicMinimize: Iter:  21  F: -1993.232418903139433  |grad|_K:  5.335e-04  alpha:  1.000e+00  linmin: -2.879e-02  t[s]:  63171.57

#--- Lowdin population analysis ---
# oxidation-state Ni +3.544 +3.335 +3.641
# magnetic-moments Ni -0.195 +0.660 +0.869
# oxidation-state V +1.143 +1.131 +1.321 +1.067 +1.066 +1.000 +0.997
# magnetic-moments V -2.923 +2.947 -2.088 +2.703 +2.710 -2.906 -2.926
# oxidation-state Co +1.254 +1.256 +1.295 +1.275 +1.294
# magnetic-moments Co +2.748 -2.738 -2.775 -2.748 +2.779
# oxidation-state Cr +2.966
# magnetic-moments Cr +3.530
# oxidation-state O -0.887 -0.882 -0.881 -0.877 -0.805 -0.946 -0.946 -0.898 -0.949 -0.952 -0.880 -0.954 -0.968 -1.041 -1.041 -0.944 -0.770
# magnetic-moments O +0.069 -0.060 -0.013 +0.090 -0.015 +0.013 -0.039 -0.043 -0.068 -0.063 +0.073 +0.011 +0.028 +0.085 -0.015 -0.083 +0.002
# oxidation-state H +0.364
# magnetic-moments H -0.001


-------- Electronic minimization -----------
	FillingsUpdate:  mu: +0.133282485  nElectrons: 347.000000  magneticMoment: [ Abs: 40.65157  Tot: +0.00000 ]
ElecMinimize: Iter:   0  F: -1993.197039738185595  |grad|_K:  3.073e-05  alpha:  1.000e+00
	FillingsUpdate:  mu: +0.129084073  nElectrons: 347.000000  magneticMoment: [ Abs: 40.64910  Tot: -0.00000 ]
	SubspaceRotationAdjust: set factor to 0.199
ElecMinimize: Iter:   1  F: -1993.229428513864377  |grad|_K:  6.200e-06  alpha:  1.970e-01  linmin:  2.346e-03  t[s]:  63254.38
	FillingsUpdate:  mu: +0.128442092  nElectrons: 347.000000  magneticMoment: [ Abs: 40.65136  Tot: +0.00000 ]
	SubspaceRotationAdjust: set factor to 0.23
ElecMinimize: Iter:   2  F: -1993.231278834197838  |grad|_K:  2.621e-06  alpha:  2.765e-01  linmin:  2.009e-07  t[s]:  63302.62
	FillingsUpdate:  mu: +0.128545308  nElectrons: 347.000000  magneticMoment: [ Abs: 40.64931  Tot: -0.00000 ]
	SubspaceRotationAdjust: set factor to 0.291
ElecMinimize: Iter:   3  F: -1993.231710324280357  |grad|_K:  1.807e-06  alpha:  3.593e-01  linmin:  8.827e-06  t[s]:  63351.29
	FillingsUpdate:  mu: +0.127732104  nElectrons: 347.000000  magneticMoment: [ Abs: 40.65376  Tot: -0.00000 ]
	SubspaceRotationAdjust: set factor to 0.264
ElecMinimize: Iter:   4  F: -1993.231963721448210  |grad|_K:  1.691e-06  alpha:  4.438e-01  linmin: -2.478e-05  t[s]:  63399.98
	FillingsUpdate:  mu: +0.128715056  nElectrons: 347.000000  magneticMoment: [ Abs: 40.64577  Tot: -0.00000 ]
	SubspaceRotationAdjust: set factor to 0.221
ElecMinimize: Iter:   5  F: -1993.232100061871506  |grad|_K:  1.753e-06  alpha:  2.725e-01  linmin:  3.224e-06  t[s]:  63448.65
	FillingsUpdate:  mu: +0.128265575  nElectrons: 347.000000  magneticMoment: [ Abs: 40.65051  Tot: -0.00000 ]
	SubspaceRotationAdjust: set factor to 0.246
ElecMinimize: Iter:   6  F: -1993.232284743146010  |grad|_K:  1.116e-06  alpha:  3.430e-01  linmin: -7.286e-05  t[s]:  63497.50
	FillingsUpdate:  mu: +0.128179721  nElectrons: 347.000000  magneticMoment: [ Abs: 40.65182  Tot: -0.00000 ]
	SubspaceRotationAdjust: set factor to 0.267
ElecMinimize: Iter:   7  F: -1993.232376026531483  |grad|_K:  9.477e-07  alpha:  4.148e-01  linmin: -1.320e-05  t[s]:  63546.18
	FillingsUpdate:  mu: +0.128439883  nElectrons: 347.000000  magneticMoment: [ Abs: 40.64953  Tot: -0.00000 ]
	SubspaceRotationAdjust: set factor to 0.215
ElecMinimize: Iter:   8  F: -1993.232415406731434  |grad|_K:  6.602e-07  alpha:  2.497e-01  linmin: -4.564e-06  t[s]:  63595.15
	FillingsUpdate:  mu: +0.128223612  nElectrons: 347.000000  magneticMoment: [ Abs: 40.65202  Tot: -0.00000 ]
	SubspaceRotationAdjust: set factor to 0.152
ElecMinimize: Iter:   9  F: -1993.232432772245375  |grad|_K:  4.490e-07  alpha:  2.277e-01  linmin:  1.532e-06  t[s]:  63643.76
	FillingsUpdate:  mu: +0.128315587  nElectrons: 347.000000  magneticMoment: [ Abs: 40.65155  Tot: +0.00000 ]
	SubspaceRotationAdjust: set factor to 0.169
ElecMinimize: Iter:  10  F: -1993.232442574346351  |grad|_K:  2.945e-07  alpha:  2.782e-01  linmin:  4.676e-06  t[s]:  63692.62
	FillingsUpdate:  mu: +0.128370607  nElectrons: 347.000000  magneticMoment: [ Abs: 40.65116  Tot: -0.00000 ]
	SubspaceRotationAdjust: set factor to 0.171
ElecMinimize: Iter:  11  F: -1993.232446929941716  |grad|_K:  1.989e-07  alpha:  2.873e-01  linmin:  3.948e-06  t[s]:  63740.51
	FillingsUpdate:  mu: +0.128303073  nElectrons: 347.000000  magneticMoment: [ Abs: 40.65182  Tot: -0.00000 ]
	SubspaceRotationAdjust: set factor to 0.155
ElecMinimize: Iter:  12  F: -1993.232449027152143  |grad|_K:  1.439e-07  alpha:  3.033e-01  linmin:  1.326e-06  t[s]:  63788.16
	FillingsUpdate:  mu: +0.128317994  nElectrons: 347.000000  magneticMoment: [ Abs: 40.65171  Tot: -0.00000 ]
	SubspaceRotationAdjust: set factor to 0.185
ElecMinimize: Iter:  13  F: -1993.232450192792157  |grad|_K:  1.044e-07  alpha:  3.217e-01  linmin: -2.730e-06  t[s]:  63836.70
	FillingsUpdate:  mu: +0.128329810  nElectrons: 347.000000  magneticMoment: [ Abs: 40.65161  Tot: +0.00000 ]
	SubspaceRotationAdjust: set factor to 0.21
ElecMinimize: Iter:  14  F: -1993.232450828139918  |grad|_K:  8.750e-08  alpha:  3.330e-01  linmin: -2.568e-06  t[s]:  63884.67
	FillingsUpdate:  mu: +0.128301893  nElectrons: 347.000000  magneticMoment: [ Abs: 40.65191  Tot: -0.00000 ]
	SubspaceRotationAdjust: set factor to 0.222
ElecMinimize: Iter:  15  F: -1993.232451267000442  |grad|_K:  7.105e-08  alpha:  3.278e-01  linmin: -2.696e-06  t[s]:  63932.62
	FillingsUpdate:  mu: +0.128315902  nElectrons: 347.000000  magneticMoment: [ Abs: 40.65185  Tot: -0.00000 ]
	SubspaceRotationAdjust: set factor to 0.246
ElecMinimize: Iter:  16  F: -1993.232451586669413  |grad|_K:  6.384e-08  alpha:  3.621e-01  linmin:  1.614e-06  t[s]:  63980.92
	FillingsUpdate:  mu: +0.128309549  nElectrons: 347.000000  magneticMoment: [ Abs: 40.65198  Tot: -0.00000 ]
	SubspaceRotationAdjust: set factor to 0.287
ElecMinimize: Iter:  17  F: -1993.232451839912983  |grad|_K:  5.297e-08  alpha:  3.554e-01  linmin:  2.679e-06  t[s]:  64028.93
	FillingsUpdate:  mu: +0.128297642  nElectrons: 347.000000  magneticMoment: [ Abs: 40.65215  Tot: -0.00000 ]
	SubspaceRotationAdjust: set factor to 0.308
ElecMinimize: Iter:  18  F: -1993.232452017946343  |grad|_K:  4.666e-08  alpha:  3.630e-01  linmin:  4.520e-06  t[s]:  64076.26
ElecMinimize: Converged (|Delta F|<1.000000e-06 for 5 iters).
Setting wave functions to eigenvectors of Hamiltonian

# Ionic positions in lattice coordinates:
ion Ni  -0.002630643013927   0.002614730880921   0.165078238733304 1
ion Ni   0.000000000000000   0.000000000000000  -0.050000000000000 0
ion Ni  -0.250000000000000   0.250000000000000  -0.150000000000000 0
ion V   0.495689629552095   0.000857372647238   0.165144327496732 1
ion V  -0.011707162926697   0.503873566355087   0.165081076184871 1
ion V   0.489234672251596   0.501612131669804   0.155949670436393 1
ion V   0.242811970695328   0.242876450675657   0.056863444209359 1
ion V   0.242564862277868   0.757511798098096   0.056551800921586 1
ion V  -0.243132390200067   0.244479867126793   0.055417687551367 1
ion V  -0.244516384827964   0.754009495498982   0.055567744202092 1
ion Co   0.500000000000000   0.000000000000000  -0.050000000000000 0
ion Co   0.000000000000000   0.500000000000000  -0.050000000000000 0
ion Co   0.250000000000000   0.250000000000000  -0.150000000000000 0
ion Co   0.250000000000000   0.750000000000000  -0.150000000000000 0
ion Co  -0.250000000000000   0.750000000000000  -0.150000000000000 0
ion Cr   0.500000000000000   0.500000000000000  -0.050000000000000 0
ion O   0.257272817868862   0.266909236166131   0.158322248525321 1
ion O   0.256948640501283   0.736797561395854   0.156963568300622 1
ion O  -0.277629159541544   0.270291028239596   0.155081301803129 1
ion O  -0.278522931136143   0.732510093495526   0.155134045728757 1
ion O   0.002497664913054   0.001211041389873   0.073218211897861 1
ion O   0.493201609899360   0.000290708236807   0.058679629135740 1
ion O   0.005400640252168   0.499666905964447   0.058188603675657 1
ion O   0.491833109139608   0.499469013960316   0.049689013211210 1
ion O   0.250000000000000   0.250000000000000  -0.050000000000000 0
ion O   0.250000000000000   0.750000000000000  -0.050000000000000 0
ion O  -0.250000000000000   0.250000000000000  -0.050000000000000 0
ion O  -0.250000000000000   0.750000000000000  -0.050000000000000 0
ion O   0.000000000000000   0.000000000000000  -0.150000000000000 0
ion O   0.500000000000000   0.000000000000000  -0.150000000000000 0
ion O   0.000000000000000   0.500000000000000  -0.150000000000000 0
ion O   0.500000000000000   0.500000000000000  -0.150000000000000 0
ion O  -0.033057173950347  -0.012828258196717   0.251260448768518 1
ion H   0.075307323136584   0.077135319744850   0.272125448322184 1

# Forces in Lattice coordinates:
force Ni   0.005260231000858   0.004803237554917   0.017527611657230 1
force Ni  -0.045061467196465   0.048204414816809  -0.298868365842537 0
force Ni   0.088466124158302  -0.086345169692827   0.036540847055908 0
force V   0.005245168542788   0.004573518669108  -0.015377962269906 1
force V   0.000507093017915   0.002693819126944  -0.001310385458032 1
force V   0.002102945267352   0.003336050460303   0.021045101652393 1
force V   0.004747737735555   0.003195948317157   0.000205650233699 1
force V   0.002889736660836   0.002450190881544  -0.006142731621796 1
force V   0.001815159798254   0.001547772257480   0.005015543323625 1
force V   0.003070084047328   0.003544945045953  -0.009546798527942 1
force Co   0.037851925526509   0.032437765677532  -0.297556183666049 0
force Co  -0.020941023184384  -0.017232563261643  -0.304130427140006 0
force Co  -0.060781806749518  -0.085138262674248  -0.492984900852411 0
force Co  -0.058300794202499   0.087020479254540  -0.440851393881700 0
force Co   0.092943957779776   0.060526753604804  -0.485713069524675 0
force Cr   0.034824439370620  -0.037302474288708  -0.412600912557803 0
force O  -0.009210559724938  -0.006136311665230   0.010914185428733 1
force O  -0.008880753193364   0.006999442475819  -0.010510829267188 1
force O   0.008162012801170  -0.005700712836231   0.005812344990365 1
force O   0.001441345293553   0.005460946685830  -0.014583676511851 1
force O  -0.000039057898690  -0.000661146684683  -0.001486354067673 1
force O   0.003212820690343   0.000523650671621   0.005131674515936 1
force O   0.000932261694452   0.001570643044914   0.007518971289619 1
force O   0.001292107893981   0.002195996085321   0.021405323656185 1
force O   0.063403826148883   0.070715492033849   0.695223559226047 0
force O   0.064157509062996  -0.076819928789639   0.709409678011009 0
force O  -0.069694122287714   0.056488775759863   0.531184595819710 0
force O  -0.065402374082957  -0.045891631817178   0.507175841485903 0
force O  -0.004819806204114   0.005004328243086  -0.280941365109456 0
force O  -0.014134244679423  -0.009655980629875  -0.010596458166907 0
force O   0.009033822636483   0.003086964250503   0.020611160940598 0
force O  -0.010172646219093   0.005759216804148   0.573621611990372 0
force O  -0.011510810298759   0.002505411567924  -0.029790374497542 1
force H  -0.006916998900788  -0.006460332699751  -0.003268110994657 1

# Energy components:
   Eewald =     5135.1160333838752194
       EH =     6931.3700734359863418
     Eloc =   -14222.9939555639321043
      Enl =     -514.8144696782100027
   Epulay =       -0.0004810744731046
      Exc =     -245.3301424155205837
       KE =      922.3177146026157516
        U =        1.1037842342493362
-------------------------------------
     Etot =    -1993.2314430754083787
       TS =        0.0010089425380301
-------------------------------------
        F =    -1993.2324520179463434

IonicMinimize: Iter:  22  F: -1993.232452017946343  |grad|_K:  3.871e-04  alpha:  1.000e+00  linmin: -1.182e-02  t[s]:  64093.03
IonicMinimize: Converged (|Delta F|<1.000000e-04 for 3 iters).

#--- Lowdin population analysis ---
# oxidation-state Ni +3.548 +3.334 +3.639
# magnetic-moments Ni -0.194 +0.659 +0.867
# oxidation-state V +1.143 +1.131 +1.321 +1.067 +1.066 +1.001 +0.997
# magnetic-moments V -2.923 +2.947 -2.086 +2.703 +2.709 -2.905 -2.926
# oxidation-state Co +1.254 +1.256 +1.295 +1.275 +1.294
# magnetic-moments Co +2.748 -2.738 -2.775 -2.748 +2.779
# oxidation-state Cr +2.966
# magnetic-moments Cr +3.532
# oxidation-state O -0.887 -0.882 -0.881 -0.877 -0.805 -0.946 -0.946 -0.898 -0.949 -0.952 -0.881 -0.954 -0.968 -1.041 -1.041 -0.943 -0.771
# magnetic-moments O +0.070 -0.060 -0.013 +0.090 -0.015 +0.013 -0.039 -0.043 -0.068 -0.064 +0.072 +0.011 +0.027 +0.085 -0.015 -0.083 +0.003
# oxidation-state H +0.365
# magnetic-moments H -0.001


Dumping 'run.ionpos' ... done
Dumping 'run.lattice' ... done
Dumping 'run.Ecomponents' ... done
End date and time: Wed May  7 06:51:10 2025  (Duration: 0-17:48:17.37)
Done!
