/var/spool/slurmd/job44146/slurm_script: line 9: module: command not found
/var/spool/slurmd/job44146/slurm_script: line 10: module: command not found

*************** JDFTx 1.7.0  ***************

Start date and time: Thu May  8 19:52:59 2025
Executable /data2/jt577/jdftx_eat_withLibXC/build/jdftx with command-line: -i /data2/jt577/May_2025/Relax_Mag/rel13+1_6/O/runs/calc_/run.in
Running on hosts (process indices):  node3405 (0-8)
Divided in process groups (process indices):  0 (0)  1 (1)  2 (2)  3 (3)  4 (4)  5 (5)  6 (6)  7 (7)  8 (8)
Resource initialization completed at t[s]:      0.00
Run totals: 9 processes, 90 threads, 0 GPUs


Input parsed successfully to the following command list (including defaults):

add-mix 
add-U 	Ni d 0.22 \
	V d 0.12 \
	Cr d 0.16 \
	Co d 0.2
basis kpoint-dependent
coords-type Lattice
core-overlap-check vector
coulomb-interaction Periodic
davidson-band-ratio 1.1
dump End IonicPositions Lattice Ecomponents
dump-name run.$VAR
elec-cutoff 30
elec-eigen-algo Davidson
elec-ex-corr gga-x-rpbe gga-c-pbe
elec-smearing Fermi 0.001
electronic-minimize  \
	dirUpdateScheme      FletcherReeves \
	linminMethod         DirUpdateRecommended \
	nIterations          1000 \
	history              15 \
	knormThreshold       0 \
	energyDiffThreshold  1e-06 \
	nEnergyDiff          5 \
	alphaTstart          1 \
	alphaTmin            1e-10 \
	updateTestStepSize   yes \
	alphaTreduceFactor   0.1 \
	alphaTincreaseFactor 3 \
	nAlphaAdjustMax      3 \
	wolfeEnergy          0.0001 \
	wolfeGradient        0.9 \
	fdTest               no
exchange-regularization WignerSeitzTruncated
fluid None
fluid-ex-corr (null) lda-PZ
fluid-gummel-loop 10 1.000000e-05
fluid-minimize  \
	dirUpdateScheme      PolakRibiere \
	linminMethod         DirUpdateRecommended \
	nIterations          100 \
	history              15 \
	knormThreshold       0 \
	energyDiffThreshold  0 \
	nEnergyDiff          2 \
	alphaTstart          1 \
	alphaTmin            1e-10 \
	updateTestStepSize   yes \
	alphaTreduceFactor   0.1 \
	alphaTincreaseFactor 3 \
	nAlphaAdjustMax      3 \
	wolfeEnergy          0.0001 \
	wolfeGradient        0.9 \
	fdTest               no
fluid-solvent H2O 55.338 ScalarEOS \
	epsBulk 78.4 \
	pMol 0.92466 \
	epsInf 1.77 \
	Pvap 1.06736e-10 \
	sigmaBulk 4.62e-05 \
	Rvdw 2.61727 \
	Res 1.42 \
	tauNuc 343133 \
	poleEl 15 7 1
forces-output-coords Positions
initial-magnetic-moments  \
	Ni 1 -1 -1 1 -1 1 \
	V -1 1 1 1 -1 -1 \
	Cr -1 \
	Co 1 -1 1
initial-state run.$VAR
ion Ni  0.000000000000000   0.000000000000000   0.150000000000000 1
ion Ni  0.000000000000000   0.000000000000000  -0.050000000000000 0
ion Ni  0.000000000000000   0.500000000000000  -0.050000000000000 0
ion Ni  0.500000000000000   0.500000000000000  -0.050000000000000 0
ion Ni  0.250000000000000   0.750000000000000  -0.150000000000000 0
ion Ni -0.250000000000000   0.250000000000000  -0.150000000000000 0
ion V  0.500000000000000   0.000000000000000   0.150000000000000 1
ion V  0.000000000000000   0.500000000000000   0.150000000000000 1
ion V  0.250000000000000   0.250000000000000   0.050000000000000 1
ion V  0.250000000000000   0.750000000000000   0.050000000000000 1
ion V -0.250000000000000   0.250000000000000   0.050000000000000 1
ion V -0.250000000000000   0.750000000000000   0.050000000000000 1
ion Cr  0.500000000000000   0.500000000000000   0.150000000000000 1
ion Co  0.500000000000000   0.000000000000000  -0.050000000000000 0
ion Co  0.250000000000000   0.250000000000000  -0.150000000000000 0
ion Co -0.250000000000000   0.750000000000000  -0.150000000000000 0
ion O  0.250000000000000   0.250000000000000   0.150000000000000 1
ion O  0.250000000000000   0.750000000000000   0.150000000000000 1
ion O -0.250000000000000   0.250000000000000   0.150000000000000 1
ion O -0.250000000000000   0.750000000000000   0.150000000000000 1
ion O  0.000000000000000   0.000000000000000   0.050000000000000 1
ion O  0.500000000000000   0.000000000000000   0.050000000000000 1
ion O  0.000000000000000   0.500000000000000   0.050000000000000 1
ion O  0.500000000000000   0.500000000000000   0.050000000000000 1
ion O  0.250000000000000   0.250000000000000  -0.050000000000000 0
ion O  0.250000000000000   0.750000000000000  -0.050000000000000 0
ion O -0.250000000000000   0.250000000000000  -0.050000000000000 0
ion O -0.250000000000000   0.750000000000000  -0.050000000000000 0
ion O  0.000000000000000   0.000000000000000  -0.150000000000000 0
ion O  0.500000000000000   0.000000000000000  -0.150000000000000 0
ion O  0.000000000000000   0.500000000000000  -0.150000000000000 0
ion O  0.500000000000000   0.500000000000000  -0.150000000000000 0
ion O -0.000095572322686   0.000198307128402   0.224876729873325 1
ion-species SG15/$ID_ONCV_PBE.upf
ion-width 0
ionic-minimize  \
	dirUpdateScheme      L-BFGS \
	linminMethod         DirUpdateRecommended \
	nIterations          1000 \
	history              15 \
	knormThreshold       0.0001 \
	energyDiffThreshold  0.0001 \
	nEnergyDiff          3 \
	alphaTstart          1 \
	alphaTmin            1e-10 \
	updateTestStepSize   yes \
	alphaTreduceFactor   0.1 \
	alphaTincreaseFactor 3 \
	nAlphaAdjustMax      3 \
	wolfeEnergy          0.0001 \
	wolfeGradient        0.9 \
	fdTest               no
kpoint   0.500000000000   0.500000000000   0.500000000000  1.00000000000000
kpoint-folding 3 3 1 
latt-move-scale 1 1 1
latt-scale 1 1 1 
lattice  \
	   8.140000000000001    8.140000000000001    0.000000000000000  \
	   8.140000000000001   -8.140000000000001    0.000000000000000  \
	   0.000000000000000    0.000000000000000   40.700000000000003 
lattice-minimize  \
	dirUpdateScheme      L-BFGS \
	linminMethod         DirUpdateRecommended \
	nIterations          0 \
	history              15 \
	knormThreshold       0 \
	energyDiffThreshold  1e-06 \
	nEnergyDiff          2 \
	alphaTstart          1 \
	alphaTmin            1e-10 \
	updateTestStepSize   yes \
	alphaTreduceFactor   0.1 \
	alphaTincreaseFactor 3 \
	nAlphaAdjustMax      3 \
	wolfeEnergy          0.0001 \
	wolfeGradient        0.9 \
	fdTest               no
lcao-params -1 1e-06 0.001
pcm-variant GLSSA13
spintype z-spin
subspace-rotation-factor 1 yes
symmetries none
symmetry-threshold 0.0001


Applied RMS atom displacement 0 bohrs to make symmetries exact.

---------- Initializing the Grid ----------
R = 
[         8.14         8.14            0  ]
[         8.14        -8.14            0  ]
[            0            0         40.7  ]
unit cell volume = 5393.53
G =
[   0.385945   0.385945         -0  ]
[   0.385945  -0.385945         -0  ]
[         -0         -0   0.154378  ]
Minimum fftbox size, Smin = [  60  60  204  ]
Chosen fftbox size, S = [  60  60  210  ]

---------- Exchange Correlation functional ----------
Initialized LibXC exchange functional 'Hammer, Hansen, and Norskov'
Initialized LibXC correlation functional 'Perdew, Burke & Ernzerhof'

---------- Setting up pseudopotentials ----------
Width of ionic core gaussian charges (only for fluid interactions / plotting) set to 0

Reading pseudopotential file '/data2/jt577/jdftx_eat_withLibXC/build/pseudopotentials/SG15/Ni_ONCV_PBE.upf':
  'Ni' pseudopotential, 'PBE' functional
  Generated using ONCVPSP code by D. R. Hamann
  Author: Martin Schlipf and Francois Gygi  Date: 150915.
  18 valence electrons, 4 orbitals, 6 projectors, 1292 radial grid points, with lMax = 2
  Transforming local potential to a uniform radial grid of dG=0.02 with 1419 points.
  Transforming nonlocal projectors to a uniform radial grid of dG=0.02 with 528 points.
    3S    l: 0   occupation:  2.0   eigenvalue: -4.081355
    3P    l: 1   occupation:  6.0   eigenvalue: -2.623460
    4S    l: 0   occupation:  2.0   eigenvalue: -0.207378
    3D    l: 2   occupation:  8.0   eigenvalue: -0.326118
  Transforming atomic orbitals to a uniform radial grid of dG=0.02 with 528 points.
  WARNING: large normalization error in atomic orbital 1s (integral: 0.000006).
  Core radius for overlap checks: 1.99 bohrs.
  Reading pulay file /data2/jt577/jdftx_eat_withLibXC/build/pseudopotentials/SG15/Ni_ONCV_PBE.pulay ... using dE_dnG = -7.250568e-04 computed for Ecut = 30.

Reading pseudopotential file '/data2/jt577/jdftx_eat_withLibXC/build/pseudopotentials/SG15/V_ONCV_PBE.upf':
  'V' pseudopotential, 'PBE' functional
  Generated using ONCVPSP code by D. R. Hamann
  Author: Martin Schlipf and Francois Gygi  Date: 150915.
  13 valence electrons, 4 orbitals, 6 projectors, 1536 radial grid points, with lMax = 2
  Transforming local potential to a uniform radial grid of dG=0.02 with 1419 points.
  Transforming nonlocal projectors to a uniform radial grid of dG=0.02 with 528 points.
    3S    l: 0   occupation:  2.0   eigenvalue: -2.581105
    3P    l: 1   occupation:  6.0   eigenvalue: -1.618486
    4S    l: 0   occupation:  2.0   eigenvalue: -0.172804
    3D    l: 2   occupation:  3.0   eigenvalue: -0.189795
  Transforming atomic orbitals to a uniform radial grid of dG=0.02 with 528 points.
  Core radius for overlap checks: 1.80 bohrs.
  Reading pulay file /data2/jt577/jdftx_eat_withLibXC/build/pseudopotentials/SG15/V_ONCV_PBE.pulay ... using dE_dnG = -1.698632e-04 computed for Ecut = 30.

Reading pseudopotential file '/data2/jt577/jdftx_eat_withLibXC/build/pseudopotentials/SG15/Cr_ONCV_PBE.upf':
  'Cr' pseudopotential, 'PBE' functional
  Generated using ONCVPSP code by D. R. Hamann
  Author: Martin Schlipf and Francois Gygi  Date: 150915.
  14 valence electrons, 4 orbitals, 6 projectors, 1160 radial grid points, with lMax = 2
  Transforming local potential to a uniform radial grid of dG=0.02 with 1419 points.
  Transforming nonlocal projectors to a uniform radial grid of dG=0.02 with 528 points.
    3S    l: 0   occupation:  2.0   eigenvalue: -2.865131
    3P    l: 1   occupation:  6.0   eigenvalue: -1.810600
    4S    l: 0   occupation:  2.0   eigenvalue: -0.180525
    3D    l: 2   occupation:  4.0   eigenvalue: -0.220312
  Transforming atomic orbitals to a uniform radial grid of dG=0.02 with 528 points.
  WARNING: large normalization error in atomic orbital 1s (integral: 0.000001).
  Core radius for overlap checks: 2.10 bohrs.
  Reading pulay file /data2/jt577/jdftx_eat_withLibXC/build/pseudopotentials/SG15/Cr_ONCV_PBE.pulay ... using dE_dnG = -9.817895e-06 computed for Ecut = 30.

Reading pseudopotential file '/data2/jt577/jdftx_eat_withLibXC/build/pseudopotentials/SG15/Co_ONCV_PBE.upf':
  'Co' pseudopotential, 'PBE' functional
  Generated using ONCVPSP code by D. R. Hamann
  Author: Martin Schlipf and Francois Gygi  Date: 150915.
  17 valence electrons, 4 orbitals, 6 projectors, 1388 radial grid points, with lMax = 2
  Transforming local potential to a uniform radial grid of dG=0.02 with 1419 points.
  Transforming nonlocal projectors to a uniform radial grid of dG=0.02 with 528 points.
    3S    l: 0   occupation:  2.0   eigenvalue: -3.763303
    3P    l: 1   occupation:  6.0   eigenvalue: -2.412101
    4S    l: 0   occupation:  2.0   eigenvalue: -0.201022
    3D    l: 2   occupation:  7.0   eigenvalue: -0.301498
  Transforming atomic orbitals to a uniform radial grid of dG=0.02 with 528 points.
  Core radius for overlap checks: 1.94 bohrs.
  Reading pulay file /data2/jt577/jdftx_eat_withLibXC/build/pseudopotentials/SG15/Co_ONCV_PBE.pulay ... using dE_dnG = -9.787391e-05 computed for Ecut = 30.

Reading pseudopotential file '/data2/jt577/jdftx_eat_withLibXC/build/pseudopotentials/SG15/O_ONCV_PBE.upf':
  'O' pseudopotential, 'PBE' functional
  Generated using ONCVPSP code by D. R. Hamann
  Author: Martin Schlipf and Francois Gygi  Date: 150915.
  6 valence electrons, 2 orbitals, 4 projectors, 936 radial grid points, with lMax = 1
  Transforming local potential to a uniform radial grid of dG=0.02 with 1419 points.
  Transforming nonlocal projectors to a uniform radial grid of dG=0.02 with 528 points.
    2S    l: 0   occupation:  2.0   eigenvalue: -0.880572
    2P    l: 1   occupation:  4.0   eigenvalue: -0.331869
  Transforming atomic orbitals to a uniform radial grid of dG=0.02 with 528 points.
  Core radius for overlap checks: 1.29 bohrs.
  Reading pulay file /data2/jt577/jdftx_eat_withLibXC/build/pseudopotentials/SG15/O_ONCV_PBE.pulay ... using dE_dnG = -8.209514e-03 computed for Ecut = 30.

Initialized 5 species with 33 total atoms.

Folded 1 k-points by 3x3x1 to 9 k-points.

---------- Setting up k-points, bands, fillings ----------
No reducable k-points. 
Computing the number of bands and number of electrons
Calculating initial fillings.
nElectrons: 353.000000   nBands: 228   nStates: 18

----- Setting up reduced wavefunction bases (one per k-point) -----
average nbasis = 42312.000 , ideal nbasis = 42330.081

---------- Setting up ewald sum ----------
Optimum gaussian width for ewald sums = 3.906449 bohr.
Real space sum over 605 unit cells with max indices [  5  5  2  ]
Reciprocal space sum over 5915 terms with max indices [  6  6  17  ]

---------- Allocating electronic variables ----------
Initializing wave functions:  linear combination of atomic orbitals
Ni (M=1) pseudo-atom majority spin occupations:   s ( 1 0.5 )  p ( 3 )  d ( 5 )
Ni (M=1) pseudo-atom minority spin occupations:   s ( 1 0 )  p ( 3 )  d ( 4.5 )
V (M=1) pseudo-atom majority spin occupations:   s ( 1 0 )  p ( 3 )  d ( 3 )
V (M=1) pseudo-atom minority spin occupations:   s ( 1 0 )  p ( 3 )  d ( 2 )
Cr (M=1) pseudo-atom majority spin occupations:   s ( 1 0 )  p ( 3 )  d ( 3.5 )
Cr (M=1) pseudo-atom minority spin occupations:   s ( 1 0 )  p ( 3 )  d ( 2.5 )
Co (M=1) pseudo-atom majority spin occupations:   s ( 1 0 )  p ( 3 )  d ( 5 )
Co (M=1) pseudo-atom minority spin occupations:   s ( 1 0 )  p ( 3 )  d ( 4 )
O pseudo-atom occupations:   s ( 2 )  p ( 4 )
	FillingsUpdate:  mu: +0.693499688  nElectrons: 353.000000  magneticMoment: [ Abs: 0.96866  Tot: +0.00000 ]
LCAOMinimize: Iter:   0  F: -1954.2910463113787500  |grad|_K:  1.137e-02  alpha:  1.000e+00
	FillingsUpdate:  mu: +0.091438410  nElectrons: 353.000000  magneticMoment: [ Abs: 7.96648  Tot: +0.00000 ]
LCAOMinimize: Iter:   1  F: -1986.6955363678673621  |grad|_K:  3.102e-02  alpha:  9.049e-02  linmin:  2.519e-02  cgtest:  8.283e-02  t[s]:     43.47
LCAOMinimize: 	Bad step direction: g.d > 0.
LCAOMinimize: 	Undoing step.
LCAOMinimize: 	Step failed: resetting search direction.
	FillingsUpdate:  mu: +0.091438410  nElectrons: 353.000000  magneticMoment: [ Abs: 7.96648  Tot: +0.00000 ]
LCAOMinimize: Iter:   2  F: -1986.6955363678673621  |grad|_K:  3.102e-02  alpha:  0.000e+00
	FillingsUpdate:  mu: +0.328095087  nElectrons: 353.000000  magneticMoment: [ Abs: 4.64695  Tot: +0.00000 ]
LCAOMinimize: Iter:   3  F: -1989.6625686650477292  |grad|_K:  2.016e-02  alpha:  4.491e-02  linmin:  8.308e-03  cgtest: -1.313e+00  t[s]:     68.54
	FillingsUpdate:  mu: +0.295917642  nElectrons: 353.000000  magneticMoment: [ Abs: 5.91521  Tot: -0.00000 ]
LCAOMinimize: Iter:   4  F: -1993.6800388714016208  |grad|_K:  1.270e-02  alpha:  2.091e-02  linmin: -1.695e-02  cgtest:  1.494e+00  t[s]:     83.06
LCAOMinimize: Encountered beta<0, resetting CG.
LCAOMinimize: 	Predicted alpha/alphaT>3.000000, increasing alphaT to 6.271516e-02.
	FillingsUpdate:  mu: +0.307384831  nElectrons: 353.000000  magneticMoment: [ Abs: 7.52485  Tot: -0.00000 ]
LCAOMinimize: Iter:   5  F: -1997.5612314160180176  |grad|_K:  1.302e-02  alpha:  2.551e-02  linmin: -5.813e-02  cgtest:  7.987e-01  t[s]:    102.18
LCAOMinimize: 	Wrong curvature in test step, increasing alphaT to 7.654387e-02.
	FillingsUpdate:  mu: +0.031197795  nElectrons: 353.000000  magneticMoment: [ Abs: 9.93869  Tot: -0.00000 ]
LCAOMinimize: Iter:   6  F: -2004.7950579262969768  |grad|_K:  1.897e-02  alpha: -3.308e-02  linmin:  2.915e-02  cgtest:  1.652e-01  t[s]:    115.93
LCAOMinimize: 	Bad step direction: g.d > 0.
LCAOMinimize: 	Undoing step.
LCAOMinimize: 	Step failed: resetting search direction.
	FillingsUpdate:  mu: +0.031197795  nElectrons: 353.000000  magneticMoment: [ Abs: 9.93869  Tot: -0.00000 ]
LCAOMinimize: Iter:   7  F: -2004.7950579262969768  |grad|_K:  1.897e-02  alpha:  0.000e+00
LCAOMinimize: 	Step increased F by 2.030388e+02, reducing alpha to 1.726274e-02.
	FillingsUpdate:  mu: +0.283113245  nElectrons: 353.000000  magneticMoment: [ Abs: 12.43534  Tot: +0.00000 ]
LCAOMinimize: Iter:   8  F: -2007.1652608368099209  |grad|_K:  1.509e-02  alpha:  1.726e-02  linmin: -2.813e-03  cgtest:  7.823e-02  t[s]:    151.64
	FillingsUpdate:  mu: +0.206513938  nElectrons: 353.000000  magneticMoment: [ Abs: 13.35969  Tot: -0.00000 ]
LCAOMinimize: Iter:   9  F: -2009.1452444318024391  |grad|_K:  1.506e-02  alpha:  1.841e-02  linmin:  8.239e-03  cgtest: -4.209e-01  t[s]:    166.54
	FillingsUpdate:  mu: +0.544918047  nElectrons: 353.000000  magneticMoment: [ Abs: 15.14141  Tot: -0.00000 ]
LCAOMinimize: Iter:  10  F: -2010.1273304575024667  |grad|_K:  1.989e-02  alpha:  1.242e-02  linmin: -1.109e-03  cgtest:  6.021e-01  t[s]:    181.37
	FillingsUpdate:  mu: +0.833847941  nElectrons: 353.000000  magneticMoment: [ Abs: 14.43130  Tot: +0.00000 ]
LCAOMinimize: Iter:  11  F: -2012.2860043275168209  |grad|_K:  3.296e-02  alpha:  1.275e-02  linmin:  3.765e-02  cgtest:  4.218e-01  t[s]:    196.06
LCAOMinimize: 	Bad step direction: g.d > 0.
LCAOMinimize: 	Undoing step.
LCAOMinimize: 	Step failed: resetting search direction.
	FillingsUpdate:  mu: +0.833847941  nElectrons: 353.000000  magneticMoment: [ Abs: 14.43130  Tot: +0.00000 ]
LCAOMinimize: Iter:  12  F: -2012.2860043275131829  |grad|_K:  3.296e-02  alpha:  0.000e+00
	FillingsUpdate:  mu: +0.274279721  nElectrons: 353.000000  magneticMoment: [ Abs: 12.24058  Tot: -0.00000 ]
LCAOMinimize: Iter:  13  F: -2017.1372872279214334  |grad|_K:  9.698e-03  alpha:  1.010e-02  linmin: -3.147e-02  cgtest:  2.137e-01  t[s]:    221.54
	FillingsUpdate:  mu: +0.086334651  nElectrons: 353.000000  magneticMoment: [ Abs: 11.67868  Tot: +0.00000 ]
LCAOMinimize: Iter:  14  F: -2018.0400194510596066  |grad|_K:  6.469e-03  alpha:  1.668e-02  linmin: -8.755e-02  cgtest:  2.206e-01  t[s]:    236.17
LCAOMinimize: 	Predicted alpha/alphaT>3.000000, increasing alphaT to 5.005341e-02.
	FillingsUpdate:  mu: +0.095078677  nElectrons: 353.000000  magneticMoment: [ Abs: 11.17399  Tot: +0.00000 ]
LCAOMinimize: Iter:  15  F: -2018.8412290140279310  |grad|_K:  1.156e-02  alpha:  5.810e-02  linmin:  8.972e-02  cgtest: -2.576e-01  t[s]:    255.27
LCAOMinimize: 	Bad step direction: g.d > 0.
LCAOMinimize: 	Undoing step.
LCAOMinimize: 	Step failed: resetting search direction.
	FillingsUpdate:  mu: +0.095078677  nElectrons: 353.000000  magneticMoment: [ Abs: 11.17399  Tot: +0.00000 ]
LCAOMinimize: Iter:  16  F: -2018.8412290140279310  |grad|_K:  1.156e-02  alpha:  0.000e+00
	FillingsUpdate:  mu: +0.029550059  nElectrons: 353.000000  magneticMoment: [ Abs: 10.52613  Tot: +0.00000 ]
LCAOMinimize: Iter:  17  F: -2019.6461345227342008  |grad|_K:  7.453e-03  alpha:  2.812e-02  linmin:  6.306e-02  cgtest: -7.010e-01  t[s]:    280.62
	FillingsUpdate:  mu: -0.000751873  nElectrons: 353.000000  magneticMoment: [ Abs: 11.38226  Tot: +0.00000 ]
LCAOMinimize: Iter:  18  F: -2019.8533041614648482  |grad|_K:  4.928e-03  alpha:  1.543e-02  linmin: -2.222e-03  cgtest:  7.017e-01  t[s]:    295.55
LCAOMinimize: Encountered beta<0, resetting CG.
LCAOMinimize: 	Step increased F by 5.883305e-01, reducing alpha to 4.132570e-03.
	FillingsUpdate:  mu: +0.011360245  nElectrons: 353.000000  magneticMoment: [ Abs: 11.51118  Tot: -0.00000 ]
LCAOMinimize: Iter:  19  F: -2019.9503238629736188  |grad|_K:  4.574e-03  alpha:  4.133e-03  linmin: -1.016e-01  cgtest:  9.062e-01  t[s]:    320.85
LCAOMinimize: 	Predicted alpha/alphaT>3.000000, increasing alphaT to 1.239771e-02.
	FillingsUpdate:  mu: +0.141908817  nElectrons: 353.000000  magneticMoment: [ Abs: 12.27867  Tot: +0.00000 ]
LCAOMinimize: Iter:  20  F: -2020.0238545907075149  |grad|_K:  7.175e-03  alpha:  2.697e-02  linmin:  6.268e-02  cgtest: -3.977e-01  t[s]:    339.78
LCAOMinimize: 	Bad step direction: g.d > 0.
LCAOMinimize: 	Undoing step.
LCAOMinimize: 	Step failed: resetting search direction.
	FillingsUpdate:  mu: +0.141908817  nElectrons: 353.000000  magneticMoment: [ Abs: 12.27867  Tot: +0.00000 ]
LCAOMinimize: Iter:  21  F: -2020.0238545907075149  |grad|_K:  7.175e-03  alpha:  0.000e+00
	FillingsUpdate:  mu: +0.057697562  nElectrons: 353.000000  magneticMoment: [ Abs: 12.21425  Tot: +0.00000 ]
LCAOMinimize: Iter:  22  F: -2020.2033249738444738  |grad|_K:  3.413e-03  alpha:  1.168e-02  linmin:  5.850e-02  cgtest: -6.638e-01  t[s]:    364.67
	FillingsUpdate:  mu: +0.005781143  nElectrons: 353.000000  magneticMoment: [ Abs: 12.02554  Tot: +0.00000 ]
LCAOMinimize: Iter:  23  F: -2020.2322422987829214  |grad|_K:  3.093e-03  alpha:  1.386e-02  linmin:  4.549e-04  cgtest:  8.195e-01  t[s]:    379.35
	FillingsUpdate:  mu: +0.041645739  nElectrons: 353.000000  magneticMoment: [ Abs: 12.18938  Tot: +0.00000 ]
LCAOMinimize: Iter:  24  F: -2020.2898506791527780  |grad|_K:  1.802e-03  alpha:  1.255e-02  linmin:  9.003e-03  cgtest: -7.840e-02  t[s]:    393.98
	FillingsUpdate:  mu: +0.068430072  nElectrons: 353.000000  magneticMoment: [ Abs: 12.75088  Tot: +0.00000 ]
LCAOMinimize: Iter:  25  F: -2020.3224559569393932  |grad|_K:  1.975e-03  alpha:  2.332e-02  linmin:  8.815e-04  cgtest:  2.323e-01  t[s]:    408.60
	FillingsUpdate:  mu: +0.047625171  nElectrons: 353.000000  magneticMoment: [ Abs: 13.33312  Tot: +0.00000 ]
LCAOMinimize: Iter:  26  F: -2020.3969340028024817  |grad|_K:  2.661e-03  alpha:  3.931e-02  linmin: -1.681e-03  cgtest:  4.456e-02  t[s]:    423.35
	FillingsUpdate:  mu: +0.036696714  nElectrons: 353.000000  magneticMoment: [ Abs: 13.77528  Tot: +0.00000 ]
LCAOMinimize: Iter:  27  F: -2020.4625074775447047  |grad|_K:  1.516e-03  alpha:  1.881e-02  linmin:  9.618e-04  cgtest: -3.393e-01  t[s]:    438.20
	FillingsUpdate:  mu: +0.058241077  nElectrons: 353.000000  magneticMoment: [ Abs: 15.06636  Tot: +0.00000 ]
LCAOMinimize: Iter:  28  F: -2020.4938227884695152  |grad|_K:  1.444e-03  alpha:  3.266e-02  linmin:  1.144e-03  cgtest:  2.871e-01  t[s]:    452.86
	FillingsUpdate:  mu: +0.047784565  nElectrons: 353.000000  magneticMoment: [ Abs: 15.64370  Tot: +0.00000 ]
LCAOMinimize: Iter:  29  F: -2020.5134372282459481  |grad|_K:  1.373e-03  alpha:  2.191e-02  linmin: -9.370e-05  cgtest:  1.429e-01  t[s]:    467.63
	FillingsUpdate:  mu: +0.053416119  nElectrons: 353.000000  magneticMoment: [ Abs: 16.64030  Tot: -0.00000 ]
LCAOMinimize: Iter:  30  F: -2020.5574605738568152  |grad|_K:  1.294e-03  alpha:  4.515e-02  linmin: -2.597e-03  cgtest: -9.168e-02  t[s]:    482.38
LCAOMinimize: None of the convergence criteria satisfied after 30 iterations.


---- Citations for features of the code used in this run ----

   Software package:
      R. Sundararaman, K. Letchworth-Weaver, K.A. Schwarz, D. Gunceler, Y. Ozhabes and T.A. Arias, 'JDFTx: software for joint density-functional theory', SoftwareX 6, 278 (2017)

   Simplified rotationally-invariant DFT+U:
      S. L. Dudarev et al., Phys. Rev. B 57, 1505 (1998)

   LibXC library of exchange-correlation functions:
      M. A. L. Marques, M. J. T. Oliveira and T. Burnus, Comput. Phys. Commun. 183, 2272 (2012)

   Hammer, Hansen, and Norskov exchange functional:
      B. Hammer, L. B. Hansen, and J. K. Nørskov, Phys. Rev. B 59, 7413 (1999)

   Perdew, Burke & Ernzerhof correlation functional:
      J. P. Perdew, K. Burke, and M. Ernzerhof, Phys. Rev. Lett. 77, 3865 (1996)

   Pseudopotentials:
      M Schlipf and F Gygi, Comput. Phys. Commun. 196, 36 (2015)

   Total energy minimization with Auxiliary Hamiltonian:
      C. Freysoldt, S. Boeck, and J. Neugebauer, Phys. Rev. B 79, 241103(R) (2009)

This list may not be complete. Please suggest additional citations or
report any other bugs at https://github.com/shankar1729/jdftx/issues

Initialization completed successfully at t[s]:    489.04


-------- Electronic minimization -----------
	FillingsUpdate:  mu: +0.053416272  nElectrons: 353.000000  magneticMoment: [ Abs: 16.64030  Tot: -0.00000 ]
ElecMinimize: Iter:   0  F: -2020.557460573856360  |grad|_K:  1.049e-03  alpha:  1.000e+00
	FillingsUpdate:  mu: +1.029674282  nElectrons: 353.000000  magneticMoment: [ Abs: 21.53990  Tot: -0.00000 ]
	SubspaceRotationAdjust: set factor to 0.626
ElecMinimize: Iter:   1  F: -2066.819934147610638  |grad|_K:  2.486e-03  alpha:  4.483e-01  linmin:  2.113e-02  t[s]:    575.26
ElecMinimize: 	Step increased F by 1.512088e+02, reducing alpha to 1.211094e-02.
	FillingsUpdate:  mu: +0.320879332  nElectrons: 353.000000  magneticMoment: [ Abs: 20.48753  Tot: -0.00000 ]
	SubspaceRotationAdjust: set factor to 0.613
ElecMinimize: Iter:   2  F: -2072.176823391177550  |grad|_K:  8.482e-04  alpha:  1.211e-02  linmin:  6.601e-03  t[s]:    694.17
	FillingsUpdate:  mu: +0.340529371  nElectrons: 353.000000  magneticMoment: [ Abs: 20.03755  Tot: +0.00000 ]
	SubspaceRotationAdjust: set factor to 0.658
ElecMinimize: Iter:   3  F: -2075.660586361366313  |grad|_K:  8.080e-04  alpha:  2.386e-02  linmin: -4.305e-03  t[s]:    772.39
ElecMinimize: 	Predicted alpha/alphaT>3.000000, increasing alphaT to 7.157889e-02.
	FillingsUpdate:  mu: +0.343643299  nElectrons: 353.000000  magneticMoment: [ Abs: 20.34635  Tot: -0.00000 ]
	SubspaceRotationAdjust: set factor to 0.604
ElecMinimize: Iter:   4  F: -2096.609324411219404  |grad|_K:  7.061e-04  alpha:  1.311e-01  linmin:  8.444e-04  t[s]:    882.32
	FillingsUpdate:  mu: +0.084355438  nElectrons: 353.000000  magneticMoment: [ Abs: 21.96850  Tot: +0.00000 ]
	SubspaceRotationAdjust: set factor to 0.878
ElecMinimize: Iter:   5  F: -2099.834622167488760  |grad|_K:  5.318e-04  alpha:  3.257e-02  linmin: -1.027e-03  t[s]:    961.08
	FillingsUpdate:  mu: +0.369786838  nElectrons: 353.000000  magneticMoment: [ Abs: 23.20602  Tot: +0.00000 ]
	SubspaceRotationAdjust: set factor to 0.59
ElecMinimize: Iter:   6  F: -2103.568556371023988  |grad|_K:  6.995e-04  alpha:  5.365e-02  linmin: -7.776e-04  t[s]:   1037.78
	FillingsUpdate:  mu: +0.271775667  nElectrons: 353.000000  magneticMoment: [ Abs: 23.33043  Tot: +0.00000 ]
	SubspaceRotationAdjust: set factor to 0.613
ElecMinimize: Iter:   7  F: -2105.065954516738657  |grad|_K:  4.511e-04  alpha:  2.131e-02  linmin: -4.977e-05  t[s]:   1119.30
	FillingsUpdate:  mu: +0.423880811  nElectrons: 353.000000  magneticMoment: [ Abs: 22.40506  Tot: +0.00000 ]
	SubspaceRotationAdjust: set factor to 0.411
ElecMinimize: Iter:   8  F: -2105.846608168725197  |grad|_K:  5.789e-04  alpha:  4.058e-02  linmin:  2.781e-03  t[s]:   1201.79
ElecMinimize: 	Bad step direction: g.d > 0.
ElecMinimize: 	Undoing step.
ElecMinimize: 	Step failed: resetting search direction.
	FillingsUpdate:  mu: +0.423880811  nElectrons: 353.000000  magneticMoment: [ Abs: 22.40506  Tot: +0.00000 ]
	SubspaceRotationAdjust: set factor to 0.31
ElecMinimize: Iter:   9  F: -2105.846608168723378  |grad|_K:  5.027e-04  alpha:  0.000e+00
	FillingsUpdate:  mu: +0.181820031  nElectrons: 353.000000  magneticMoment: [ Abs: 23.24995  Tot: +0.00000 ]
	SubspaceRotationAdjust: set factor to 0.27
ElecMinimize: Iter:  10  F: -2108.015568283677112  |grad|_K:  2.770e-04  alpha:  4.723e-02  linmin: -4.719e-03  t[s]:   1329.18
ElecMinimize: 	Predicted alpha/alphaT>3.000000, increasing alphaT to 1.416766e-01.
	FillingsUpdate:  mu: +0.163437041  nElectrons: 353.000000  magneticMoment: [ Abs: 23.50628  Tot: +0.00000 ]
	SubspaceRotationAdjust: set factor to 0.136
ElecMinimize: Iter:  11  F: -2110.086288278850589  |grad|_K:  1.341e-04  alpha:  1.213e-01  linmin:  2.583e-03  t[s]:   1444.08
	FillingsUpdate:  mu: +0.134079683  nElectrons: 353.000000  magneticMoment: [ Abs: 23.08226  Tot: -0.00000 ]
	SubspaceRotationAdjust: set factor to 0.132
	SubspaceRotationAdjust: resetting CG because factor has changed by 0.132368
ElecMinimize: 	State modified externally: resetting search direction.
ElecMinimize: Iter:  12  F: -2110.498374034212247  |grad|_K:  9.633e-05  alpha:  1.528e-01
	FillingsUpdate:  mu: +0.173135921  nElectrons: 353.000000  magneticMoment: [ Abs: 23.31550  Tot: +0.00000 ]
	SubspaceRotationAdjust: set factor to 0.11
ElecMinimize: Iter:  13  F: -2110.725410051938070  |grad|_K:  6.681e-05  alpha:  1.395e-01  linmin:  6.528e-04  t[s]:   1621.35
	FillingsUpdate:  mu: +0.130303789  nElectrons: 353.000000  magneticMoment: [ Abs: 23.63438  Tot: -0.00000 ]
	SubspaceRotationAdjust: set factor to 0.105
ElecMinimize: Iter:  14  F: -2110.922291755132392  |grad|_K:  5.625e-05  alpha:  2.571e-01  linmin: -1.475e-04  t[s]:   1701.02
	FillingsUpdate:  mu: +0.106174798  nElectrons: 353.000000  magneticMoment: [ Abs: 23.96884  Tot: -0.00000 ]
	SubspaceRotationAdjust: set factor to 0.135
ElecMinimize: Iter:  15  F: -2111.191825710953708  |grad|_K:  4.615e-05  alpha:  4.768e-01  linmin: -1.238e-04  t[s]:   1780.79
	FillingsUpdate:  mu: +0.135347396  nElectrons: 353.000000  magneticMoment: [ Abs: 24.28849  Tot: -0.00000 ]
	SubspaceRotationAdjust: set factor to 0.104
ElecMinimize: Iter:  16  F: -2111.302506721142436  |grad|_K:  5.204e-05  alpha:  2.848e-01  linmin: -7.120e-05  t[s]:   1856.75
	FillingsUpdate:  mu: +0.091897479  nElectrons: 353.000000  magneticMoment: [ Abs: 24.62863  Tot: -0.00000 ]
	SubspaceRotationAdjust: set factor to 0.0869
ElecMinimize: Iter:  17  F: -2111.431433256798755  |grad|_K:  4.429e-05  alpha:  2.662e-01  linmin: -2.375e-05  t[s]:   1934.95
	FillingsUpdate:  mu: +0.093770188  nElectrons: 353.000000  magneticMoment: [ Abs: 25.67654  Tot: -0.00000 ]
	SubspaceRotationAdjust: set factor to 0.104
ElecMinimize: Iter:  18  F: -2111.596637913761697  |grad|_K:  4.439e-05  alpha:  4.724e-01  linmin: -3.649e-05  t[s]:   2012.28
	FillingsUpdate:  mu: +0.127597572  nElectrons: 353.000000  magneticMoment: [ Abs: 27.19354  Tot: +0.00000 ]
	SubspaceRotationAdjust: set factor to 0.107
ElecMinimize: Iter:  19  F: -2111.762777320072018  |grad|_K:  6.120e-05  alpha:  4.608e-01  linmin:  3.265e-04  t[s]:   2094.81
ElecMinimize: 	Step increased F by 5.536302e-02, reducing alpha to 6.757160e-04.
ElecMinimize: 	Step increased F by 6.082447e-02, reducing alpha to 6.757160e-05.
ElecMinimize: 	Step increased F by 6.139226e-02, reducing alpha to 6.757160e-06.
ElecMinimize: 	Step failed to reduce F after 3 attempts. Quitting step.
ElecMinimize: 	Undoing step.
ElecMinimize: 	Step failed: resetting search direction.
	FillingsUpdate:  mu: +0.124690734  nElectrons: 353.000000  magneticMoment: [ Abs: 27.18582  Tot: -0.00000 ]
	SubspaceRotationAdjust: set factor to 0.124
ElecMinimize: Iter:  20  F: -2111.701378725175800  |grad|_K:  6.196e-05  alpha:  6.757e-06
	FillingsUpdate:  mu: +0.132314528  nElectrons: 353.000000  magneticMoment: [ Abs: 27.24658  Tot: -0.00000 ]
	SubspaceRotationAdjust: set factor to 0.0895
ElecMinimize: Iter:  21  F: -2111.810542039172105  |grad|_K:  4.863e-05  alpha:  1.606e-01  linmin: -1.777e-04  t[s]:   2389.23
	FillingsUpdate:  mu: +0.089601852  nElectrons: 353.000000  magneticMoment: [ Abs: 26.97949  Tot: +0.00000 ]
	SubspaceRotationAdjust: set factor to 0.0708
ElecMinimize: Iter:  22  F: -2111.900788869897951  |grad|_K:  3.349e-05  alpha:  2.166e-01  linmin: -3.812e-04  t[s]:   2470.88
	FillingsUpdate:  mu: +0.098315465  nElectrons: 353.000000  magneticMoment: [ Abs: 27.31624  Tot: +0.00000 ]
	SubspaceRotationAdjust: set factor to 0.087
ElecMinimize: Iter:  23  F: -2111.986140931984664  |grad|_K:  3.136e-05  alpha:  4.249e-01  linmin: -1.703e-04  t[s]:   2551.68
	FillingsUpdate:  mu: +0.105813258  nElectrons: 353.000000  magneticMoment: [ Abs: 27.78401  Tot: -0.00000 ]
	SubspaceRotationAdjust: set factor to 0.0993
ElecMinimize: Iter:  24  F: -2112.039705475513529  |grad|_K:  2.594e-05  alpha:  3.049e-01  linmin: -9.879e-05  t[s]:   2632.11
	FillingsUpdate:  mu: +0.105912212  nElectrons: 353.000000  magneticMoment: [ Abs: 28.31603  Tot: -0.00000 ]
	SubspaceRotationAdjust: set factor to 0.0977
ElecMinimize: Iter:  25  F: -2112.091272765960639  |grad|_K:  2.954e-05  alpha:  4.341e-01  linmin: -4.408e-05  t[s]:   2711.63
	FillingsUpdate:  mu: +0.116546931  nElectrons: 353.000000  magneticMoment: [ Abs: 28.91747  Tot: -0.00000 ]
	SubspaceRotationAdjust: set factor to 0.082
ElecMinimize: Iter:  26  F: -2112.130598336853382  |grad|_K:  2.552e-05  alpha:  2.668e-01  linmin: -8.761e-06  t[s]:   2792.42
	FillingsUpdate:  mu: +0.104264532  nElectrons: 353.000000  magneticMoment: [ Abs: 29.34950  Tot: -0.00000 ]
	SubspaceRotationAdjust: set factor to 0.0775
ElecMinimize: Iter:  27  F: -2112.166625040908457  |grad|_K:  2.521e-05  alpha:  3.185e-01  linmin:  5.075e-06  t[s]:   2868.05
	FillingsUpdate:  mu: +0.107183873  nElectrons: 353.000000  magneticMoment: [ Abs: 30.25897  Tot: -0.00000 ]
	SubspaceRotationAdjust: set factor to 0.0876
ElecMinimize: Iter:  28  F: -2112.226655697941169  |grad|_K:  3.021e-05  alpha:  5.338e-01  linmin: -1.167e-04  t[s]:   2945.68
	FillingsUpdate:  mu: +0.125924190  nElectrons: 353.000000  magneticMoment: [ Abs: 31.48783  Tot: +0.00000 ]
	SubspaceRotationAdjust: set factor to 0.0854
ElecMinimize: Iter:  29  F: -2112.306684637065700  |grad|_K:  3.428e-05  alpha:  4.661e-01  linmin:  5.618e-05  t[s]:   3026.40
ElecMinimize: 	Step increased F by 5.727705e-03, reducing alpha to 5.963323e-04.
ElecMinimize: 	Step increased F by 8.048982e-03, reducing alpha to 5.963323e-05.
ElecMinimize: 	Step increased F by 8.283653e-03, reducing alpha to 5.963323e-06.
ElecMinimize: 	Step failed to reduce F after 3 attempts. Quitting step.
ElecMinimize: 	Undoing step.
ElecMinimize: 	Step failed: resetting search direction.
	FillingsUpdate:  mu: +0.124376822  nElectrons: 353.000000  magneticMoment: [ Abs: 31.48567  Tot: -0.00000 ]
	SubspaceRotationAdjust: set factor to 0.114
ElecMinimize: Iter:  30  F: -2112.298398373902273  |grad|_K:  3.408e-05  alpha:  5.963e-06
	FillingsUpdate:  mu: +0.108209670  nElectrons: 353.000000  magneticMoment: [ Abs: 31.46186  Tot: -0.00000 ]
	SubspaceRotationAdjust: set factor to 0.0903
ElecMinimize: Iter:  31  F: -2112.338726581961055  |grad|_K:  2.347e-05  alpha:  2.137e-01  linmin:  6.648e-03  t[s]:   3314.35
	FillingsUpdate:  mu: +0.104241885  nElectrons: 353.000000  magneticMoment: [ Abs: 31.54221  Tot: -0.00000 ]
	SubspaceRotationAdjust: set factor to 0.0598
ElecMinimize: Iter:  32  F: -2112.361751475563779  |grad|_K:  1.694e-05  alpha:  2.503e-01  linmin:  4.406e-04  t[s]:   3392.83
	FillingsUpdate:  mu: +0.102046572  nElectrons: 353.000000  magneticMoment: [ Abs: 31.67905  Tot: +0.00000 ]
	SubspaceRotationAdjust: set factor to 0.0607
ElecMinimize: Iter:  33  F: -2112.378061067915496  |grad|_K:  1.389e-05  alpha:  3.289e-01  linmin:  3.124e-05  t[s]:   3470.97
	FillingsUpdate:  mu: +0.104697967  nElectrons: 353.000000  magneticMoment: [ Abs: 31.83000  Tot: -0.00000 ]
	SubspaceRotationAdjust: set factor to 0.0713
ElecMinimize: Iter:  34  F: -2112.391280974076381  |grad|_K:  1.314e-05  alpha:  3.941e-01  linmin: -1.921e-05  t[s]:   3550.45
	FillingsUpdate:  mu: +0.102439447  nElectrons: 353.000000  magneticMoment: [ Abs: 31.97163  Tot: -0.00000 ]
	SubspaceRotationAdjust: set factor to 0.0725
ElecMinimize: Iter:  35  F: -2112.402309762791901  |grad|_K:  1.029e-05  alpha:  3.670e-01  linmin: -1.394e-04  t[s]:   3627.04
	FillingsUpdate:  mu: +0.098386229  nElectrons: 353.000000  magneticMoment: [ Abs: 32.12093  Tot: -0.00000 ]
	SubspaceRotationAdjust: set factor to 0.0753
ElecMinimize: Iter:  36  F: -2112.409271508398888  |grad|_K:  9.345e-06  alpha:  3.759e-01  linmin:  7.487e-05  t[s]:   3708.33
	FillingsUpdate:  mu: +0.098891114  nElectrons: 353.000000  magneticMoment: [ Abs: 32.41243  Tot: +0.00000 ]
	SubspaceRotationAdjust: set factor to 0.0861
ElecMinimize: Iter:  37  F: -2112.416611349699906  |grad|_K:  1.035e-05  alpha:  4.828e-01  linmin: -1.779e-04  t[s]:   3789.41
	FillingsUpdate:  mu: +0.101765004  nElectrons: 353.000000  magneticMoment: [ Abs: 32.82274  Tot: +0.00000 ]
	SubspaceRotationAdjust: set factor to 0.0955
ElecMinimize: Iter:  38  F: -2112.424956843075051  |grad|_K:  1.090e-05  alpha:  4.405e-01  linmin: -6.314e-06  t[s]:   3868.36
	FillingsUpdate:  mu: +0.103803337  nElectrons: 353.000000  magneticMoment: [ Abs: 33.32796  Tot: -0.00000 ]
	SubspaceRotationAdjust: set factor to 0.0972
ElecMinimize: Iter:  39  F: -2112.435796980148552  |grad|_K:  1.417e-05  alpha:  5.272e-01  linmin:  1.493e-04  t[s]:   3946.70
	FillingsUpdate:  mu: +0.104800337  nElectrons: 353.000000  magneticMoment: [ Abs: 33.65861  Tot: -0.00000 ]
	SubspaceRotationAdjust: set factor to 0.0896
ElecMinimize: Iter:  40  F: -2112.445729862964072  |grad|_K:  1.121e-05  alpha:  2.775e-01  linmin: -3.291e-04  t[s]:   4025.31
	FillingsUpdate:  mu: +0.103879849  nElectrons: 353.000000  magneticMoment: [ Abs: 33.91282  Tot: +0.00000 ]
	SubspaceRotationAdjust: set factor to 0.11
ElecMinimize: Iter:  41  F: -2112.453281497448643  |grad|_K:  1.007e-05  alpha:  3.322e-01  linmin:  7.221e-05  t[s]:   4106.10
	FillingsUpdate:  mu: +0.101538429  nElectrons: 353.000000  magneticMoment: [ Abs: 34.14482  Tot: +0.00000 ]
	SubspaceRotationAdjust: set factor to 0.12
ElecMinimize: Iter:  42  F: -2112.458168380029292  |grad|_K:  8.066e-06  alpha:  2.803e-01  linmin: -4.232e-05  t[s]:   4186.20
	FillingsUpdate:  mu: +0.103798971  nElectrons: 353.000000  magneticMoment: [ Abs: 34.33375  Tot: -0.00000 ]
	SubspaceRotationAdjust: set factor to 0.113
ElecMinimize: Iter:  43  F: -2112.461417065590922  |grad|_K:  7.553e-06  alpha:  2.858e-01  linmin:  6.866e-05  t[s]:   4264.68
	FillingsUpdate:  mu: +0.101880779  nElectrons: 353.000000  magneticMoment: [ Abs: 34.48981  Tot: -0.00000 ]
	SubspaceRotationAdjust: set factor to 0.133
ElecMinimize: Iter:  44  F: -2112.464508091769403  |grad|_K:  6.459e-06  alpha:  3.130e-01  linmin:  3.254e-06  t[s]:   4338.34
	FillingsUpdate:  mu: +0.102280147  nElectrons: 353.000000  magneticMoment: [ Abs: 34.61534  Tot: -0.00000 ]
	SubspaceRotationAdjust: set factor to 0.163
ElecMinimize: Iter:  45  F: -2112.466948507796133  |grad|_K:  5.896e-06  alpha:  3.361e-01  linmin:  1.857e-05  t[s]:   4420.14
	FillingsUpdate:  mu: +0.104590029  nElectrons: 353.000000  magneticMoment: [ Abs: 34.77309  Tot: +0.00000 ]
	SubspaceRotationAdjust: set factor to 0.158
ElecMinimize: Iter:  46  F: -2112.468860167499770  |grad|_K:  6.678e-06  alpha:  3.161e-01  linmin:  4.248e-05  t[s]:   4499.47
	FillingsUpdate:  mu: +0.105048441  nElectrons: 353.000000  magneticMoment: [ Abs: 34.91860  Tot: -0.00000 ]
	SubspaceRotationAdjust: set factor to 0.155
ElecMinimize: Iter:  47  F: -2112.470699652029907  |grad|_K:  6.439e-06  alpha:  2.393e-01  linmin: -4.369e-05  t[s]:   4577.06
	FillingsUpdate:  mu: +0.103675250  nElectrons: 353.000000  magneticMoment: [ Abs: 35.08608  Tot: +0.00000 ]
	SubspaceRotationAdjust: set factor to 0.176
ElecMinimize: Iter:  48  F: -2112.473030134656710  |grad|_K:  6.040e-06  alpha:  3.222e-01  linmin:  4.183e-05  t[s]:   4655.95
	FillingsUpdate:  mu: +0.102060248  nElectrons: 353.000000  magneticMoment: [ Abs: 35.24523  Tot: +0.00000 ]
	SubspaceRotationAdjust: set factor to 0.22
ElecMinimize: Iter:  49  F: -2112.475191310131322  |grad|_K:  6.063e-06  alpha:  3.420e-01  linmin:  5.286e-06  t[s]:   4736.41
	FillingsUpdate:  mu: +0.103004510  nElectrons: 353.000000  magneticMoment: [ Abs: 35.41513  Tot: -0.00000 ]
	SubspaceRotationAdjust: set factor to 0.24
ElecMinimize: Iter:  50  F: -2112.477292696727091  |grad|_K:  6.779e-06  alpha:  3.291e-01  linmin: -2.064e-04  t[s]:   4817.93
	FillingsUpdate:  mu: +0.103720922  nElectrons: 353.000000  magneticMoment: [ Abs: 35.53606  Tot: -0.00000 ]
	SubspaceRotationAdjust: set factor to 0.214
ElecMinimize: Iter:  51  F: -2112.478804733502329  |grad|_K:  7.250e-06  alpha:  1.863e-01  linmin:  7.889e-07  t[s]:   4898.88
	FillingsUpdate:  mu: +0.103353043  nElectrons: 353.000000  magneticMoment: [ Abs: 35.63689  Tot: +0.00000 ]
	SubspaceRotationAdjust: set factor to 0.21
ElecMinimize: Iter:  52  F: -2112.480622913282332  |grad|_K:  6.211e-06  alpha:  1.982e-01  linmin: -1.884e-04  t[s]:   4976.76
	FillingsUpdate:  mu: +0.103381135  nElectrons: 353.000000  magneticMoment: [ Abs: 35.78480  Tot: -0.00000 ]
	SubspaceRotationAdjust: set factor to 0.245
ElecMinimize: Iter:  53  F: -2112.482744484427712  |grad|_K:  5.400e-06  alpha:  3.089e-01  linmin:  3.734e-05  t[s]:   5054.96
	FillingsUpdate:  mu: +0.104774277  nElectrons: 353.000000  magneticMoment: [ Abs: 35.89450  Tot: +0.00000 ]
	SubspaceRotationAdjust: set factor to 0.299
ElecMinimize: Iter:  54  F: -2112.484425971587825  |grad|_K:  5.005e-06  alpha:  3.322e-01  linmin: -3.241e-05  t[s]:   5136.66
	FillingsUpdate:  mu: +0.105922858  nElectrons: 353.000000  magneticMoment: [ Abs: 35.94186  Tot: -0.00000 ]
	SubspaceRotationAdjust: set factor to 0.339
ElecMinimize: Iter:  55  F: -2112.485784658406828  |grad|_K:  4.956e-06  alpha:  3.110e-01  linmin: -8.762e-05  t[s]:   5215.58
	FillingsUpdate:  mu: +0.105681558  nElectrons: 353.000000  magneticMoment: [ Abs: 35.99468  Tot: +0.00000 ]
	SubspaceRotationAdjust: set factor to 0.266
ElecMinimize: Iter:  56  F: -2112.486623158605653  |grad|_K:  5.783e-06  alpha:  1.967e-01  linmin:  1.530e-05  t[s]:   5293.92
	FillingsUpdate:  mu: +0.106220837  nElectrons: 353.000000  magneticMoment: [ Abs: 36.02288  Tot: +0.00000 ]
	SubspaceRotationAdjust: set factor to 0.236
ElecMinimize: Iter:  57  F: -2112.487425075183182  |grad|_K:  4.263e-06  alpha:  1.396e-01  linmin: -3.955e-05  t[s]:   5372.81
	FillingsUpdate:  mu: +0.104493250  nElectrons: 353.000000  magneticMoment: [ Abs: 36.04832  Tot: -0.00000 ]
	SubspaceRotationAdjust: set factor to 0.281
ElecMinimize: Iter:  58  F: -2112.488332078334679  |grad|_K:  3.886e-06  alpha:  2.917e-01  linmin:  4.057e-04  t[s]:   5453.54
	FillingsUpdate:  mu: +0.105170662  nElectrons: 353.000000  magneticMoment: [ Abs: 36.11182  Tot: -0.00000 ]
	SubspaceRotationAdjust: set factor to 0.338
ElecMinimize: Iter:  59  F: -2112.489055591282522  |grad|_K:  3.700e-06  alpha:  2.885e-01  linmin: -9.906e-05  t[s]:   5534.93
	FillingsUpdate:  mu: +0.105853549  nElectrons: 353.000000  magneticMoment: [ Abs: 36.14618  Tot: +0.00000 ]
	SubspaceRotationAdjust: set factor to 0.27
ElecMinimize: Iter:  60  F: -2112.489654123587115  |grad|_K:  4.586e-06  alpha:  2.462e-01  linmin:  1.179e-04  t[s]:   5615.90
	FillingsUpdate:  mu: +0.106288439  nElectrons: 353.000000  magneticMoment: [ Abs: 36.15736  Tot: -0.00000 ]
	SubspaceRotationAdjust: set factor to 0.257
ElecMinimize: Iter:  61  F: -2112.490163425870833  |grad|_K:  3.663e-06  alpha:  1.473e-01  linmin:  5.038e-05  t[s]:   5697.16
	FillingsUpdate:  mu: +0.106884551  nElectrons: 353.000000  magneticMoment: [ Abs: 36.18968  Tot: +0.00000 ]
	SubspaceRotationAdjust: set factor to 0.318
ElecMinimize: Iter:  62  F: -2112.490805690440538  |grad|_K:  3.298e-06  alpha:  2.797e-01  linmin:  1.579e-04  t[s]:   5774.00
	FillingsUpdate:  mu: +0.106588175  nElectrons: 353.000000  magneticMoment: [ Abs: 36.22528  Tot: +0.00000 ]
	SubspaceRotationAdjust: set factor to 0.366
ElecMinimize: Iter:  63  F: -2112.491395887834187  |grad|_K:  3.603e-06  alpha:  3.190e-01  linmin:  5.253e-05  t[s]:   5855.00
	FillingsUpdate:  mu: +0.105222880  nElectrons: 353.000000  magneticMoment: [ Abs: 36.22420  Tot: +0.00000 ]
	SubspaceRotationAdjust: set factor to 0.328
ElecMinimize: Iter:  64  F: -2112.491814685566169  |grad|_K:  4.212e-06  alpha:  1.871e-01  linmin: -1.284e-05  t[s]:   5935.11
	FillingsUpdate:  mu: +0.107398877  nElectrons: 353.000000  magneticMoment: [ Abs: 36.25552  Tot: +0.00000 ]
	SubspaceRotationAdjust: set factor to 0.294
ElecMinimize: Iter:  65  F: -2112.492294120562292  |grad|_K:  3.429e-06  alpha:  1.550e-01  linmin: -1.918e-06  t[s]:   6014.56
	FillingsUpdate:  mu: +0.107459657  nElectrons: 353.000000  magneticMoment: [ Abs: 36.28066  Tot: -0.00000 ]
	SubspaceRotationAdjust: set factor to 0.335
ElecMinimize: Iter:  66  F: -2112.492854853793233  |grad|_K:  3.184e-06  alpha:  2.747e-01  linmin:  6.081e-05  t[s]:   6094.08
	FillingsUpdate:  mu: +0.106913870  nElectrons: 353.000000  magneticMoment: [ Abs: 36.31577  Tot: +0.00000 ]
	SubspaceRotationAdjust: set factor to 0.404
ElecMinimize: Iter:  67  F: -2112.493397911684042  |grad|_K:  3.146e-06  alpha:  3.109e-01  linmin:  9.049e-05  t[s]:   6175.33
	FillingsUpdate:  mu: +0.108037616  nElectrons: 353.000000  magneticMoment: [ Abs: 36.37477  Tot: -0.00000 ]
	SubspaceRotationAdjust: set factor to 0.47
ElecMinimize: Iter:  68  F: -2112.493879725472198  |grad|_K:  3.442e-06  alpha:  2.832e-01  linmin: -4.118e-05  t[s]:   6254.02
	FillingsUpdate:  mu: +0.105935143  nElectrons: 353.000000  magneticMoment: [ Abs: 36.39165  Tot: -0.00000 ]
	SubspaceRotationAdjust: set factor to 0.34
ElecMinimize: Iter:  69  F: -2112.494234880310614  |grad|_K:  4.505e-06  alpha:  1.644e-01  linmin: -1.230e-04  t[s]:   6332.75
	FillingsUpdate:  mu: +0.108017301  nElectrons: 353.000000  magneticMoment: [ Abs: 36.46269  Tot: +0.00000 ]
	SubspaceRotationAdjust: set factor to 0.393
ElecMinimize: Iter:  70  F: -2112.494694141867058  |grad|_K:  3.476e-06  alpha:  1.295e-01  linmin: -7.442e-05  t[s]:   6412.03
	FillingsUpdate:  mu: +0.107879550  nElectrons: 353.000000  magneticMoment: [ Abs: 36.54927  Tot: -0.00000 ]
	SubspaceRotationAdjust: set factor to 0.481
ElecMinimize: Iter:  71  F: -2112.495338652001465  |grad|_K:  3.659e-06  alpha:  3.061e-01  linmin:  1.549e-04  t[s]:   6491.33
	FillingsUpdate:  mu: +0.107682454  nElectrons: 353.000000  magneticMoment: [ Abs: 36.63967  Tot: -0.00000 ]
	SubspaceRotationAdjust: set factor to 0.595
ElecMinimize: Iter:  72  F: -2112.495965027830607  |grad|_K:  4.096e-06  alpha:  2.754e-01  linmin:  6.554e-05  t[s]:   6567.00
	FillingsUpdate:  mu: +0.108588306  nElectrons: 353.000000  magneticMoment: [ Abs: 36.71891  Tot: -0.00000 ]
	SubspaceRotationAdjust: set factor to 0.504
ElecMinimize: Iter:  73  F: -2112.496464607837879  |grad|_K:  5.233e-06  alpha:  1.804e-01  linmin: -2.378e-05  t[s]:   6646.59
	FillingsUpdate:  mu: +0.107356476  nElectrons: 353.000000  magneticMoment: [ Abs: 36.75264  Tot: -0.00000 ]
	SubspaceRotationAdjust: set factor to 0.454
ElecMinimize: Iter:  74  F: -2112.496915430130230  |grad|_K:  4.557e-06  alpha:  8.999e-02  linmin: -1.272e-04  t[s]:   6726.80
	FillingsUpdate:  mu: +0.107544421  nElectrons: 353.000000  magneticMoment: [ Abs: 36.82078  Tot: +0.00000 ]
	SubspaceRotationAdjust: set factor to 0.652
ElecMinimize: Iter:  75  F: -2112.497638902641029  |grad|_K:  4.281e-06  alpha:  1.941e-01  linmin:  6.539e-07  t[s]:   6805.64
	FillingsUpdate:  mu: +0.108369760  nElectrons: 353.000000  magneticMoment: [ Abs: 36.87487  Tot: +0.00000 ]
	SubspaceRotationAdjust: set factor to 0.547
ElecMinimize: Iter:  76  F: -2112.498161559840355  |grad|_K:  5.247e-06  alpha:  1.650e-01  linmin: -9.109e-05  t[s]:   6885.88
	FillingsUpdate:  mu: +0.107810537  nElectrons: 353.000000  magneticMoment: [ Abs: 36.91363  Tot: -0.00000 ]
	SubspaceRotationAdjust: set factor to 0.584
ElecMinimize: Iter:  77  F: -2112.498622153837459  |grad|_K:  4.336e-06  alpha:  8.765e-02  linmin: -2.816e-04  t[s]:   6962.99
	FillingsUpdate:  mu: +0.106693139  nElectrons: 353.000000  magneticMoment: [ Abs: 36.95000  Tot: +0.00000 ]
	SubspaceRotationAdjust: set factor to 0.508
ElecMinimize: Iter:  78  F: -2112.499269899379215  |grad|_K:  5.084e-06  alpha:  1.939e-01  linmin:  4.472e-04  t[s]:   7044.34
	FillingsUpdate:  mu: +0.108211012  nElectrons: 353.000000  magneticMoment: [ Abs: 36.95826  Tot: -0.00000 ]
	SubspaceRotationAdjust: set factor to 0.545
ElecMinimize: Iter:  79  F: -2112.499612833507399  |grad|_K:  4.749e-06  alpha:  8.328e-02  linmin: -7.066e-05  t[s]:   7123.69
	FillingsUpdate:  mu: +0.109682158  nElectrons: 353.000000  magneticMoment: [ Abs: 36.96897  Tot: -0.00000 ]
	SubspaceRotationAdjust: set factor to 0.587
ElecMinimize: Iter:  80  F: -2112.500105461540898  |grad|_K:  4.340e-06  alpha:  1.214e-01  linmin: -2.045e-04  t[s]:   7198.80
	FillingsUpdate:  mu: +0.110573241  nElectrons: 353.000000  magneticMoment: [ Abs: 36.97646  Tot: +0.00000 ]
	SubspaceRotationAdjust: set factor to 0.581
ElecMinimize: Iter:  81  F: -2112.500452461344594  |grad|_K:  4.193e-06  alpha:  1.026e-01  linmin: -1.174e-04  t[s]:   7280.15
	FillingsUpdate:  mu: +0.109470678  nElectrons: 353.000000  magneticMoment: [ Abs: 36.94920  Tot: -0.00000 ]
	SubspaceRotationAdjust: set factor to 0.703
ElecMinimize: Iter:  82  F: -2112.500856638951973  |grad|_K:  3.723e-06  alpha:  1.298e-01  linmin:  9.313e-05  t[s]:   7355.27
	FillingsUpdate:  mu: +0.109289339  nElectrons: 353.000000  magneticMoment: [ Abs: 36.92927  Tot: -0.00000 ]
	SubspaceRotationAdjust: set factor to 0.689
ElecMinimize: Iter:  83  F: -2112.501229990243246  |grad|_K:  3.832e-06  alpha:  1.570e-01  linmin: -6.591e-05  t[s]:   7436.59
	FillingsUpdate:  mu: +0.108962393  nElectrons: 353.000000  magneticMoment: [ Abs: 36.92062  Tot: +0.00000 ]
	SubspaceRotationAdjust: set factor to 0.582
ElecMinimize: Iter:  84  F: -2112.501478744975429  |grad|_K:  4.079e-06  alpha:  9.183e-02  linmin: -1.244e-04  t[s]:   7515.59
	FillingsUpdate:  mu: +0.108650616  nElectrons: 353.000000  magneticMoment: [ Abs: 36.87508  Tot: -0.00000 ]
	SubspaceRotationAdjust: set factor to 0.699
ElecMinimize: Iter:  85  F: -2112.501789681071841  |grad|_K:  3.434e-06  alpha:  1.049e-01  linmin: -2.277e-05  t[s]:   7597.79
	FillingsUpdate:  mu: +0.108612235  nElectrons: 353.000000  magneticMoment: [ Abs: 36.84191  Tot: -0.00000 ]
	SubspaceRotationAdjust: set factor to 0.637
ElecMinimize: Iter:  86  F: -2112.502001071016366  |grad|_K:  3.644e-06  alpha:  1.026e-01  linmin: -1.696e-04  t[s]:   7673.07
	FillingsUpdate:  mu: +0.108373609  nElectrons: 353.000000  magneticMoment: [ Abs: 36.82402  Tot: -0.00000 ]
	SubspaceRotationAdjust: set factor to 0.695
ElecMinimize: Iter:  87  F: -2112.502227825765203  |grad|_K:  3.096e-06  alpha:  9.447e-02  linmin:  1.263e-04  t[s]:   7754.65
	FillingsUpdate:  mu: +0.109151889  nElectrons: 353.000000  magneticMoment: [ Abs: 36.80922  Tot: -0.00000 ]
	SubspaceRotationAdjust: set factor to 0.719
ElecMinimize: Iter:  88  F: -2112.502441425426696  |grad|_K:  3.105e-06  alpha:  1.303e-01  linmin: -6.774e-05  t[s]:   7834.82
	FillingsUpdate:  mu: +0.108093053  nElectrons: 353.000000  magneticMoment: [ Abs: 36.77351  Tot: +0.00000 ]
	SubspaceRotationAdjust: set factor to 0.641
ElecMinimize: Iter:  89  F: -2112.502630971664530  |grad|_K:  3.313e-06  alpha:  1.116e-01  linmin: -1.624e-05  t[s]:   7907.46
	FillingsUpdate:  mu: +0.107392684  nElectrons: 353.000000  magneticMoment: [ Abs: 36.74514  Tot: -0.00000 ]
	SubspaceRotationAdjust: set factor to 0.6
ElecMinimize: Iter:  90  F: -2112.502826754455327  |grad|_K:  3.247e-06  alpha:  1.019e-01  linmin:  3.474e-05  t[s]:   7987.10
	FillingsUpdate:  mu: +0.109021660  nElectrons: 353.000000  magneticMoment: [ Abs: 36.74159  Tot: +0.00000 ]
	SubspaceRotationAdjust: set factor to 0.645
ElecMinimize: Iter:  91  F: -2112.502998252484758  |grad|_K:  3.057e-06  alpha:  9.437e-02  linmin: -6.265e-05  t[s]:   8068.59
	FillingsUpdate:  mu: +0.107901870  nElectrons: 353.000000  magneticMoment: [ Abs: 36.69888  Tot: +0.00000 ]
	SubspaceRotationAdjust: set factor to 0.702
ElecMinimize: Iter:  92  F: -2112.503224199228498  |grad|_K:  3.044e-06  alpha:  1.392e-01  linmin:  1.910e-04  t[s]:   8147.36
	FillingsUpdate:  mu: +0.106439533  nElectrons: 353.000000  magneticMoment: [ Abs: 36.67388  Tot: +0.00000 ]
	SubspaceRotationAdjust: set factor to 0.62
ElecMinimize: Iter:  93  F: -2112.503416036575345  |grad|_K:  3.433e-06  alpha:  1.244e-01  linmin: -1.997e-05  t[s]:   8226.49
	FillingsUpdate:  mu: +0.108387640  nElectrons: 353.000000  magneticMoment: [ Abs: 36.68812  Tot: -0.00000 ]
	SubspaceRotationAdjust: set factor to 0.621
ElecMinimize: Iter:  94  F: -2112.503578519766506  |grad|_K:  3.234e-06  alpha:  7.859e-02  linmin: -5.995e-06  t[s]:   8307.35
	FillingsUpdate:  mu: +0.108129254  nElectrons: 353.000000  magneticMoment: [ Abs: 36.68312  Tot: -0.00000 ]
	SubspaceRotationAdjust: set factor to 0.746
ElecMinimize: Iter:  95  F: -2112.503795175970481  |grad|_K:  2.975e-06  alpha:  1.178e-01  linmin: -9.322e-05  t[s]:   8385.18
	FillingsUpdate:  mu: +0.105749860  nElectrons: 353.000000  magneticMoment: [ Abs: 36.66274  Tot: -0.00000 ]
	SubspaceRotationAdjust: set factor to 0.58
ElecMinimize: Iter:  96  F: -2112.503976181257258  |grad|_K:  3.711e-06  alpha:  1.152e-01  linmin:  3.262e-05  t[s]:   8460.93
	FillingsUpdate:  mu: +0.107657696  nElectrons: 353.000000  magneticMoment: [ Abs: 36.67535  Tot: +0.00000 ]
	SubspaceRotationAdjust: set factor to 0.687
ElecMinimize: Iter:  97  F: -2112.504138706035974  |grad|_K:  3.055e-06  alpha:  6.791e-02  linmin: -1.021e-05  t[s]:   8537.17
	FillingsUpdate:  mu: +0.108418507  nElectrons: 353.000000  magneticMoment: [ Abs: 36.68990  Tot: +0.00000 ]
	SubspaceRotationAdjust: set factor to 0.707
ElecMinimize: Iter:  98  F: -2112.504325777758368  |grad|_K:  3.154e-06  alpha:  1.137e-01  linmin: -1.092e-04  t[s]:   8615.80
	FillingsUpdate:  mu: +0.106697036  nElectrons: 353.000000  magneticMoment: [ Abs: 36.67984  Tot: -0.00000 ]
	SubspaceRotationAdjust: set factor to 0.651
ElecMinimize: Iter:  99  F: -2112.504468995803109  |grad|_K:  3.180e-06  alpha:  8.062e-02  linmin:  3.716e-07  t[s]:   8694.88
	FillingsUpdate:  mu: +0.107283883  nElectrons: 353.000000  magneticMoment: [ Abs: 36.68896  Tot: +0.00000 ]
	SubspaceRotationAdjust: set factor to 0.673
ElecMinimize: Iter: 100  F: -2112.504609812861418  |grad|_K:  2.958e-06  alpha:  7.994e-02  linmin:  8.518e-05  t[s]:   8776.20
	FillingsUpdate:  mu: +0.108256523  nElectrons: 353.000000  magneticMoment: [ Abs: 36.71237  Tot: -0.00000 ]
	SubspaceRotationAdjust: set factor to 0.74
ElecMinimize: Iter: 101  F: -2112.504756100129271  |grad|_K:  2.851e-06  alpha:  9.680e-02  linmin: -1.398e-04  t[s]:   8853.60
	FillingsUpdate:  mu: +0.107586899  nElectrons: 353.000000  magneticMoment: [ Abs: 36.71676  Tot: -0.00000 ]
	SubspaceRotationAdjust: set factor to 0.697
ElecMinimize: Iter: 102  F: -2112.504878611078311  |grad|_K:  2.930e-06  alpha:  8.471e-02  linmin: -6.334e-05  t[s]:   8930.92
	FillingsUpdate:  mu: +0.107338469  nElectrons: 353.000000  magneticMoment: [ Abs: 36.71812  Tot: +0.00000 ]
	SubspaceRotationAdjust: set factor to 0.858
ElecMinimize: Iter: 103  F: -2112.505009211922697  |grad|_K:  2.503e-06  alpha:  8.630e-02  linmin:  8.415e-05  t[s]:   9010.60
	FillingsUpdate:  mu: +0.107927870  nElectrons: 353.000000  magneticMoment: [ Abs: 36.73379  Tot: +0.00000 ]
	SubspaceRotationAdjust: set factor to 0.771
ElecMinimize: Iter: 104  F: -2112.505135735872045  |grad|_K:  2.834e-06  alpha:  1.183e-01  linmin:  2.055e-05  t[s]:   9084.22
	FillingsUpdate:  mu: +0.107785962  nElectrons: 353.000000  magneticMoment: [ Abs: 36.74491  Tot: +0.00000 ]
	SubspaceRotationAdjust: set factor to 0.802
ElecMinimize: Iter: 105  F: -2112.505227355678016  |grad|_K:  2.595e-06  alpha:  6.772e-02  linmin:  3.454e-05  t[s]:   9162.86
	FillingsUpdate:  mu: +0.108103519  nElectrons: 353.000000  magneticMoment: [ Abs: 36.75738  Tot: +0.00000 ]
	SubspaceRotationAdjust: set factor to 0.928
ElecMinimize: Iter: 106  F: -2112.505356346126064  |grad|_K:  2.378e-06  alpha:  1.115e-01  linmin:  4.889e-05  t[s]:   9243.86
	FillingsUpdate:  mu: +0.108209867  nElectrons: 353.000000  magneticMoment: [ Abs: 36.76505  Tot: -0.00000 ]
	SubspaceRotationAdjust: set factor to 0.759
ElecMinimize: Iter: 107  F: -2112.505464751796808  |grad|_K:  2.784e-06  alpha:  1.114e-01  linmin:  4.024e-05  t[s]:   9325.52
	FillingsUpdate:  mu: +0.107989783  nElectrons: 353.000000  magneticMoment: [ Abs: 36.76924  Tot: +0.00000 ]
	SubspaceRotationAdjust: set factor to 0.867
ElecMinimize: Iter: 108  F: -2112.505550967418003  |grad|_K:  2.364e-06  alpha:  6.486e-02  linmin: -6.001e-06  t[s]:   9402.90
	FillingsUpdate:  mu: +0.108135442  nElectrons: 353.000000  magneticMoment: [ Abs: 36.77648  Tot: +0.00000 ]
	SubspaceRotationAdjust: set factor to 0.843
ElecMinimize: Iter: 109  F: -2112.505670432552051  |grad|_K:  2.500e-06  alpha:  1.233e-01  linmin:  5.810e-05  t[s]:   9479.35
	FillingsUpdate:  mu: +0.108550907  nElectrons: 353.000000  magneticMoment: [ Abs: 36.78185  Tot: +0.00000 ]
	SubspaceRotationAdjust: set factor to 0.76
ElecMinimize: Iter: 110  F: -2112.505751245930242  |grad|_K:  2.573e-06  alpha:  7.521e-02  linmin:  6.724e-07  t[s]:   9556.68
	FillingsUpdate:  mu: +0.108679998  nElectrons: 353.000000  magneticMoment: [ Abs: 36.78538  Tot: +0.00000 ]
	SubspaceRotationAdjust: set factor to 0.941
ElecMinimize: Iter: 111  F: -2112.505856490958195  |grad|_K:  2.253e-06  alpha:  9.119e-02  linmin: -2.975e-05  t[s]:   9632.22
	FillingsUpdate:  mu: +0.108426153  nElectrons: 353.000000  magneticMoment: [ Abs: 36.78572  Tot: +0.00000 ]
	SubspaceRotationAdjust: set factor to 0.81
ElecMinimize: Iter: 112  F: -2112.505950728208063  |grad|_K:  2.655e-06  alpha:  1.057e-01  linmin: -4.752e-05  t[s]:   9708.38
	FillingsUpdate:  mu: +0.108979137  nElectrons: 353.000000  magneticMoment: [ Abs: 36.78209  Tot: +0.00000 ]
	SubspaceRotationAdjust: set factor to 0.991
	SubspaceRotationAdjust: resetting CG because factor has changed by 7.4897
ElecMinimize: 	State modified externally: resetting search direction.
ElecMinimize: Iter: 113  F: -2112.506037331857897  |grad|_K:  2.365e-06  alpha:  6.999e-02
ElecMinimize: 	Predicted alpha/alphaT>3.000000, increasing alphaT to 2.099669e-01.
	FillingsUpdate:  mu: +0.105957933  nElectrons: 353.000000  magneticMoment: [ Abs: 36.76124  Tot: -0.00000 ]
	SubspaceRotationAdjust: set factor to 0.54
ElecMinimize: Iter: 114  F: -2112.506251770783820  |grad|_K:  4.612e-06  alpha:  2.203e-01  linmin:  9.822e-05  t[s]:   9912.94
	FillingsUpdate:  mu: +0.108979297  nElectrons: 353.000000  magneticMoment: [ Abs: 36.75980  Tot: -0.00000 ]
	SubspaceRotationAdjust: set factor to 0.431
ElecMinimize: Iter: 115  F: -2112.506507641003736  |grad|_K:  2.695e-06  alpha:  7.694e-02  linmin:  4.762e-04  t[s]:   9990.33
ElecMinimize: 	Predicted alpha/alphaT>3.000000, increasing alphaT to 2.308080e-01.
	FillingsUpdate:  mu: +0.108408417  nElectrons: 353.000000  magneticMoment: [ Abs: 36.74238  Tot: -0.00000 ]
	SubspaceRotationAdjust: set factor to 0.489
ElecMinimize: Iter: 116  F: -2112.506886013504300  |grad|_K:  2.211e-06  alpha:  3.184e-01  linmin:  3.480e-06  t[s]:  10099.39
	FillingsUpdate:  mu: +0.106556001  nElectrons: 353.000000  magneticMoment: [ Abs: 36.72631  Tot: +0.00000 ]
	SubspaceRotationAdjust: set factor to 0.365
ElecMinimize: Iter: 117  F: -2112.507035693745365  |grad|_K:  2.186e-06  alpha:  1.718e-01  linmin: -1.438e-04  t[s]:  10177.14
	FillingsUpdate:  mu: +0.108791048  nElectrons: 353.000000  magneticMoment: [ Abs: 36.73404  Tot: +0.00000 ]
	SubspaceRotationAdjust: set factor to 0.298
ElecMinimize: Iter: 118  F: -2112.507157864405599  |grad|_K:  1.203e-06  alpha:  1.455e-01  linmin: -5.782e-05  t[s]:  10253.84
	FillingsUpdate:  mu: +0.108405674  nElectrons: 353.000000  magneticMoment: [ Abs: 36.72928  Tot: -0.00000 ]
	SubspaceRotationAdjust: set factor to 0.37
ElecMinimize: Iter: 119  F: -2112.507241124426855  |grad|_K:  9.277e-07  alpha:  3.288e-01  linmin: -4.125e-05  t[s]:  10330.40
	FillingsUpdate:  mu: +0.107818827  nElectrons: 353.000000  magneticMoment: [ Abs: 36.72658  Tot: -0.00000 ]
	SubspaceRotationAdjust: set factor to 0.293
ElecMinimize: Iter: 120  F: -2112.507283080858997  |grad|_K:  9.665e-07  alpha:  2.800e-01  linmin: -1.023e-04  t[s]:  10407.73
	FillingsUpdate:  mu: +0.108705225  nElectrons: 353.000000  magneticMoment: [ Abs: 36.73242  Tot: +0.00000 ]
	SubspaceRotationAdjust: set factor to 0.249
ElecMinimize: Iter: 121  F: -2112.507320598117531  |grad|_K:  8.246e-07  alpha:  2.301e-01  linmin: -1.513e-05  t[s]:  10483.15
	FillingsUpdate:  mu: +0.108264765  nElectrons: 353.000000  magneticMoment: [ Abs: 36.73139  Tot: +0.00000 ]
	SubspaceRotationAdjust: set factor to 0.282
ElecMinimize: Iter: 122  F: -2112.507368673791461  |grad|_K:  8.247e-07  alpha:  4.062e-01  linmin:  3.290e-05  t[s]:  10560.41
	FillingsUpdate:  mu: +0.108393781  nElectrons: 353.000000  magneticMoment: [ Abs: 36.73801  Tot: +0.00000 ]
	SubspaceRotationAdjust: set factor to 0.275
ElecMinimize: Iter: 123  F: -2112.507410285834794  |grad|_K:  8.245e-07  alpha:  3.529e-01  linmin: -3.933e-05  t[s]:  10636.51
	FillingsUpdate:  mu: +0.108591857  nElectrons: 353.000000  magneticMoment: [ Abs: 36.74231  Tot: +0.00000 ]
	SubspaceRotationAdjust: set factor to 0.235
ElecMinimize: Iter: 124  F: -2112.507449690280282  |grad|_K:  7.924e-07  alpha:  3.317e-01  linmin:  1.480e-05  t[s]:  10712.95
	FillingsUpdate:  mu: +0.108013341  nElectrons: 353.000000  magneticMoment: [ Abs: 36.74192  Tot: -0.00000 ]
	SubspaceRotationAdjust: set factor to 0.225
ElecMinimize: Iter: 125  F: -2112.507483001890250  |grad|_K:  6.898e-07  alpha:  3.052e-01  linmin: -5.502e-06  t[s]:  10789.19
	FillingsUpdate:  mu: +0.108704286  nElectrons: 353.000000  magneticMoment: [ Abs: 36.75170  Tot: +0.00000 ]
	SubspaceRotationAdjust: set factor to 0.231
ElecMinimize: Iter: 126  F: -2112.507510996074416  |grad|_K:  5.841e-07  alpha:  3.375e-01  linmin: -4.966e-05  t[s]:  10868.69
	FillingsUpdate:  mu: +0.108560249  nElectrons: 353.000000  magneticMoment: [ Abs: 36.75364  Tot: -0.00000 ]
	SubspaceRotationAdjust: set factor to 0.222
ElecMinimize: Iter: 127  F: -2112.507532431086474  |grad|_K:  5.635e-07  alpha:  3.595e-01  linmin:  3.819e-05  t[s]:  10947.34
	FillingsUpdate:  mu: +0.108175895  nElectrons: 353.000000  magneticMoment: [ Abs: 36.75502  Tot: -0.00000 ]
	SubspaceRotationAdjust: set factor to 0.232
ElecMinimize: Iter: 128  F: -2112.507553128417385  |grad|_K:  5.619e-07  alpha:  3.753e-01  linmin: -3.305e-06  t[s]:  11026.48
	FillingsUpdate:  mu: +0.108925820  nElectrons: 353.000000  magneticMoment: [ Abs: 36.76515  Tot: +0.00000 ]
	SubspaceRotationAdjust: set factor to 0.236
ElecMinimize: Iter: 129  F: -2112.507575718684166  |grad|_K:  5.872e-07  alpha:  4.105e-01  linmin: -7.448e-05  t[s]:  11104.67
	FillingsUpdate:  mu: +0.108603177  nElectrons: 353.000000  magneticMoment: [ Abs: 36.76659  Tot: +0.00000 ]
	SubspaceRotationAdjust: set factor to 0.226
ElecMinimize: Iter: 130  F: -2112.507598336836509  |grad|_K:  5.822e-07  alpha:  3.744e-01  linmin:  4.359e-05  t[s]:  11182.51
	FillingsUpdate:  mu: +0.108286980  nElectrons: 353.000000  magneticMoment: [ Abs: 36.77018  Tot: +0.00000 ]
	SubspaceRotationAdjust: set factor to 0.243
ElecMinimize: Iter: 131  F: -2112.507622366834312  |grad|_K:  5.992e-07  alpha:  4.085e-01  linmin: -1.883e-05  t[s]:  11258.00
	FillingsUpdate:  mu: +0.108973595  nElectrons: 353.000000  magneticMoment: [ Abs: 36.78058  Tot: +0.00000 ]
	SubspaceRotationAdjust: set factor to 0.238
ElecMinimize: Iter: 132  F: -2112.507647690510112  |grad|_K:  6.243e-07  alpha:  4.044e-01  linmin: -5.986e-05  t[s]:  11334.63
	FillingsUpdate:  mu: +0.108378021  nElectrons: 353.000000  magneticMoment: [ Abs: 36.78020  Tot: +0.00000 ]
	SubspaceRotationAdjust: set factor to 0.226
ElecMinimize: Iter: 133  F: -2112.507672897843804  |grad|_K:  6.138e-07  alpha:  3.689e-01  linmin:  3.721e-05  t[s]:  11412.35
	FillingsUpdate:  mu: +0.108435133  nElectrons: 353.000000  magneticMoment: [ Abs: 36.78679  Tot: -0.00000 ]
	SubspaceRotationAdjust: set factor to 0.243
ElecMinimize: Iter: 134  F: -2112.507700096249209  |grad|_K:  6.284e-07  alpha:  4.160e-01  linmin: -3.726e-05  t[s]:  11488.26
	FillingsUpdate:  mu: +0.109212137  nElectrons: 353.000000  magneticMoment: [ Abs: 36.79804  Tot: +0.00000 ]
	SubspaceRotationAdjust: set factor to 0.242
ElecMinimize: Iter: 135  F: -2112.507728895549917  |grad|_K:  6.688e-07  alpha:  4.170e-01  linmin: -5.651e-05  t[s]:  11565.16
	FillingsUpdate:  mu: +0.108412964  nElectrons: 353.000000  magneticMoment: [ Abs: 36.79647  Tot: -0.00000 ]
	SubspaceRotationAdjust: set factor to 0.228
ElecMinimize: Iter: 136  F: -2112.507759473340229  |grad|_K:  6.817e-07  alpha:  3.898e-01  linmin:  4.831e-05  t[s]:  11643.48
	FillingsUpdate:  mu: +0.108545510  nElectrons: 353.000000  magneticMoment: [ Abs: 36.80341  Tot: +0.00000 ]
	SubspaceRotationAdjust: set factor to 0.246
ElecMinimize: Iter: 137  F: -2112.507792342157245  |grad|_K:  6.684e-07  alpha:  4.083e-01  linmin: -4.911e-05  t[s]:  11722.84
	FillingsUpdate:  mu: +0.109198568  nElectrons: 353.000000  magneticMoment: [ Abs: 36.81222  Tot: +0.00000 ]
	SubspaceRotationAdjust: set factor to 0.255
ElecMinimize: Iter: 138  F: -2112.507822554895483  |grad|_K:  6.723e-07  alpha:  3.863e-01  linmin: -2.064e-05  t[s]:  11801.20
	FillingsUpdate:  mu: +0.108392033  nElectrons: 353.000000  magneticMoment: [ Abs: 36.80971  Tot: -0.00000 ]
	SubspaceRotationAdjust: set factor to 0.255
ElecMinimize: Iter: 139  F: -2112.507854007788865  |grad|_K:  6.929e-07  alpha:  3.989e-01  linmin:  4.824e-05  t[s]:  11878.16
	FillingsUpdate:  mu: +0.108725702  nElectrons: 353.000000  magneticMoment: [ Abs: 36.81696  Tot: -0.00000 ]
	SubspaceRotationAdjust: set factor to 0.265
ElecMinimize: Iter: 140  F: -2112.507887102665791  |grad|_K:  6.949e-07  alpha:  3.980e-01  linmin: -5.485e-05  t[s]:  11956.60
	FillingsUpdate:  mu: +0.109176685  nElectrons: 353.000000  magneticMoment: [ Abs: 36.82320  Tot: +0.00000 ]
	SubspaceRotationAdjust: set factor to 0.265
ElecMinimize: Iter: 141  F: -2112.507921750497189  |grad|_K:  7.503e-07  alpha:  4.097e-01  linmin:  3.541e-05  t[s]:  12032.12
	FillingsUpdate:  mu: +0.108349868  nElectrons: 353.000000  magneticMoment: [ Abs: 36.82033  Tot: +0.00000 ]
	SubspaceRotationAdjust: set factor to 0.259
ElecMinimize: Iter: 142  F: -2112.507958788895849  |grad|_K:  7.214e-07  alpha:  3.794e-01  linmin:  2.596e-05  t[s]:  12109.72
	FillingsUpdate:  mu: +0.109033617  nElectrons: 353.000000  magneticMoment: [ Abs: 36.82859  Tot: -0.00000 ]
	SubspaceRotationAdjust: set factor to 0.25
ElecMinimize: Iter: 143  F: -2112.507991155272521  |grad|_K:  6.692e-07  alpha:  3.587e-01  linmin: -3.349e-05  t[s]:  12187.83
	FillingsUpdate:  mu: +0.108980169  nElectrons: 353.000000  magneticMoment: [ Abs: 36.82900  Tot: -0.00000 ]
	SubspaceRotationAdjust: set factor to 0.247
ElecMinimize: Iter: 144  F: -2112.508017769813705  |grad|_K:  5.879e-07  alpha:  3.396e-01  linmin:  3.712e-05  t[s]:  12265.36
	FillingsUpdate:  mu: +0.108458811  nElectrons: 353.000000  magneticMoment: [ Abs: 36.82792  Tot: -0.00000 ]
	SubspaceRotationAdjust: set factor to 0.255
ElecMinimize: Iter: 145  F: -2112.508039769214065  |grad|_K:  5.410e-07  alpha:  3.673e-01  linmin:  1.537e-05  t[s]:  12341.95
	FillingsUpdate:  mu: +0.109127292  nElectrons: 353.000000  magneticMoment: [ Abs: 36.83526  Tot: -0.00000 ]
	SubspaceRotationAdjust: set factor to 0.245
ElecMinimize: Iter: 146  F: -2112.508056850763296  |grad|_K:  4.891e-07  alpha:  3.359e-01  linmin: -1.751e-05  t[s]:  12419.57
	FillingsUpdate:  mu: +0.108847048  nElectrons: 353.000000  magneticMoment: [ Abs: 36.83485  Tot: +0.00000 ]
	SubspaceRotationAdjust: set factor to 0.252
ElecMinimize: Iter: 147  F: -2112.508072023981640  |grad|_K:  4.469e-07  alpha:  3.638e-01  linmin:  2.691e-05  t[s]:  12496.09
	FillingsUpdate:  mu: +0.108619844  nElectrons: 353.000000  magneticMoment: [ Abs: 36.83651  Tot: -0.00000 ]
	SubspaceRotationAdjust: set factor to 0.268
ElecMinimize: Iter: 148  F: -2112.508084975732800  |grad|_K:  4.194e-07  alpha:  3.735e-01  linmin:  9.101e-06  t[s]:  12573.30
	FillingsUpdate:  mu: +0.109141684  nElectrons: 353.000000  magneticMoment: [ Abs: 36.84308  Tot: -0.00000 ]
	SubspaceRotationAdjust: set factor to 0.265
ElecMinimize: Iter: 149  F: -2112.508095283851162  |grad|_K:  3.903e-07  alpha:  3.371e-01  linmin: -2.239e-05  t[s]:  12649.71
	FillingsUpdate:  mu: +0.108694490  nElectrons: 353.000000  magneticMoment: [ Abs: 36.84268  Tot: -0.00000 ]
	SubspaceRotationAdjust: set factor to 0.259
ElecMinimize: Iter: 150  F: -2112.508105247066396  |grad|_K:  3.847e-07  alpha:  3.751e-01  linmin:  3.369e-05  t[s]:  12725.79
	FillingsUpdate:  mu: +0.108761560  nElectrons: 353.000000  magneticMoment: [ Abs: 36.84790  Tot: +0.00000 ]
	SubspaceRotationAdjust: set factor to 0.276
ElecMinimize: Iter: 151  F: -2112.508114829321585  |grad|_K:  3.791e-07  alpha:  3.732e-01  linmin: -2.929e-06  t[s]:  12803.53
	FillingsUpdate:  mu: +0.109070803  nElectrons: 353.000000  magneticMoment: [ Abs: 36.85493  Tot: +0.00000 ]
	SubspaceRotationAdjust: set factor to 0.28
ElecMinimize: Iter: 152  F: -2112.508124924407639  |grad|_K:  3.910e-07  alpha:  4.032e-01  linmin: -2.255e-05  t[s]:  12879.74
	FillingsUpdate:  mu: +0.108521609  nElectrons: 353.000000  magneticMoment: [ Abs: 36.85542  Tot: -0.00000 ]
	SubspaceRotationAdjust: set factor to 0.256
ElecMinimize: Iter: 153  F: -2112.508134553293530  |grad|_K:  3.938e-07  alpha:  3.604e-01  linmin:  2.935e-05  t[s]:  12956.48
	FillingsUpdate:  mu: +0.108959007  nElectrons: 353.000000  magneticMoment: [ Abs: 36.86315  Tot: -0.00000 ]
	SubspaceRotationAdjust: set factor to 0.254
ElecMinimize: Iter: 154  F: -2112.508143773323809  |grad|_K:  3.623e-07  alpha:  3.429e-01  linmin: -2.214e-05  t[s]:  13032.89
	FillingsUpdate:  mu: +0.108976658  nElectrons: 353.000000  magneticMoment: [ Abs: 36.86727  Tot: +0.00000 ]
	SubspaceRotationAdjust: set factor to 0.271
ElecMinimize: Iter: 155  F: -2112.508153126233537  |grad|_K:  3.635e-07  alpha:  4.082e-01  linmin:  1.149e-05  t[s]:  13110.44
	FillingsUpdate:  mu: +0.108531824  nElectrons: 353.000000  magneticMoment: [ Abs: 36.86841  Tot: +0.00000 ]
	SubspaceRotationAdjust: set factor to 0.256
ElecMinimize: Iter: 156  F: -2112.508161816188476  |grad|_K:  3.707e-07  alpha:  3.780e-01  linmin:  2.881e-05  t[s]:  13186.08
	FillingsUpdate:  mu: +0.109027522  nElectrons: 353.000000  magneticMoment: [ Abs: 36.87572  Tot: -0.00000 ]
	SubspaceRotationAdjust: set factor to 0.248
ElecMinimize: Iter: 157  F: -2112.508169993900992  |grad|_K:  3.367e-07  alpha:  3.433e-01  linmin: -3.627e-05  t[s]:  13264.12
	FillingsUpdate:  mu: +0.108840501  nElectrons: 353.000000  magneticMoment: [ Abs: 36.87721  Tot: +0.00000 ]
	SubspaceRotationAdjust: set factor to 0.273
ElecMinimize: Iter: 158  F: -2112.508177649651770  |grad|_K:  3.256e-07  alpha:  3.865e-01  linmin:  1.902e-05  t[s]:  13340.52
	FillingsUpdate:  mu: +0.108640636  nElectrons: 353.000000  magneticMoment: [ Abs: 36.87848  Tot: -0.00000 ]
	SubspaceRotationAdjust: set factor to 0.28
ElecMinimize: Iter: 159  F: -2112.508184746793631  |grad|_K:  3.313e-07  alpha:  3.852e-01  linmin:  8.404e-06  t[s]:  13415.65
	FillingsUpdate:  mu: +0.108996224  nElectrons: 353.000000  magneticMoment: [ Abs: 36.88305  Tot: +0.00000 ]
	SubspaceRotationAdjust: set factor to 0.264
ElecMinimize: Iter: 160  F: -2112.508191696870654  |grad|_K:  3.324e-07  alpha:  3.641e-01  linmin: -2.808e-05  t[s]:  13493.59
	FillingsUpdate:  mu: +0.108672447  nElectrons: 353.000000  magneticMoment: [ Abs: 36.88305  Tot: -0.00000 ]
	SubspaceRotationAdjust: set factor to 0.272
ElecMinimize: Iter: 161  F: -2112.508198648776670  |grad|_K:  3.079e-07  alpha:  3.602e-01  linmin:  1.600e-05  t[s]:  13571.30
	FillingsUpdate:  mu: +0.108798939  nElectrons: 353.000000  magneticMoment: [ Abs: 36.88611  Tot: -0.00000 ]
	SubspaceRotationAdjust: set factor to 0.296
ElecMinimize: Iter: 162  F: -2112.508205252932839  |grad|_K:  3.041e-07  alpha:  4.008e-01  linmin: -1.034e-05  t[s]:  13647.87
	FillingsUpdate:  mu: +0.108936212  nElectrons: 353.000000  magneticMoment: [ Abs: 36.88737  Tot: -0.00000 ]
	SubspaceRotationAdjust: set factor to 0.292
ElecMinimize: Iter: 163  F: -2112.508211137434046  |grad|_K:  3.078e-07  alpha:  3.650e-01  linmin:  2.247e-06  t[s]:  13725.27
	FillingsUpdate:  mu: +0.108660546  nElectrons: 353.000000  magneticMoment: [ Abs: 36.88484  Tot: +0.00000 ]
	SubspaceRotationAdjust: set factor to 0.253
ElecMinimize: Iter: 164  F: -2112.508216503206313  |grad|_K:  2.935e-07  alpha:  3.253e-01  linmin:  1.331e-05  t[s]:  13804.04
	FillingsUpdate:  mu: +0.108922339  nElectrons: 353.000000  magneticMoment: [ Abs: 36.88540  Tot: +0.00000 ]
	SubspaceRotationAdjust: set factor to 0.262
ElecMinimize: Iter: 165  F: -2112.508221811890962  |grad|_K:  2.669e-07  alpha:  3.546e-01  linmin: -3.318e-06  t[s]:  13880.88
	FillingsUpdate:  mu: +0.108900135  nElectrons: 353.000000  magneticMoment: [ Abs: 36.88434  Tot: -0.00000 ]
	SubspaceRotationAdjust: set factor to 0.301
ElecMinimize: Iter: 166  F: -2112.508226469071815  |grad|_K:  2.470e-07  alpha:  3.753e-01  linmin:  1.442e-06  t[s]:  13958.44
	FillingsUpdate:  mu: +0.108713346  nElectrons: 353.000000  magneticMoment: [ Abs: 36.88203  Tot: -0.00000 ]
	SubspaceRotationAdjust: set factor to 0.303
ElecMinimize: Iter: 167  F: -2112.508230416397055  |grad|_K:  2.476e-07  alpha:  3.717e-01  linmin: -7.372e-06  t[s]:  14037.56
	FillingsUpdate:  mu: +0.108910408  nElectrons: 353.000000  magneticMoment: [ Abs: 36.88174  Tot: +0.00000 ]
	SubspaceRotationAdjust: set factor to 0.275
ElecMinimize: Iter: 168  F: -2112.508233889573148  |grad|_K:  2.433e-07  alpha:  3.250e-01  linmin:  1.862e-06  t[s]:  14113.21
	FillingsUpdate:  mu: +0.108785621  nElectrons: 353.000000  magneticMoment: [ Abs: 36.87943  Tot: +0.00000 ]
	SubspaceRotationAdjust: set factor to 0.279
ElecMinimize: Iter: 169  F: -2112.508237486835696  |grad|_K:  2.255e-07  alpha:  3.491e-01  linmin: -1.307e-05  t[s]:  14192.06
	FillingsUpdate:  mu: +0.108764352  nElectrons: 353.000000  magneticMoment: [ Abs: 36.87793  Tot: -0.00000 ]
	SubspaceRotationAdjust: set factor to 0.321
ElecMinimize: Iter: 170  F: -2112.508241073732734  |grad|_K:  2.215e-07  alpha:  4.045e-01  linmin:  5.053e-06  t[s]:  14268.43
	FillingsUpdate:  mu: +0.108939828  nElectrons: 353.000000  magneticMoment: [ Abs: 36.87794  Tot: +0.00000 ]
	SubspaceRotationAdjust: set factor to 0.332
ElecMinimize: Iter: 171  F: -2112.508244264912719  |grad|_K:  2.215e-07  alpha:  3.736e-01  linmin: -9.889e-07  t[s]:  14343.90
	FillingsUpdate:  mu: +0.108699429  nElectrons: 353.000000  magneticMoment: [ Abs: 36.87524  Tot: -0.00000 ]
	SubspaceRotationAdjust: set factor to 0.29
ElecMinimize: Iter: 172  F: -2112.508247030085840  |grad|_K:  2.220e-07  alpha:  3.236e-01  linmin:  1.531e-06  t[s]:  14423.17
	FillingsUpdate:  mu: +0.108875123  nElectrons: 353.000000  magneticMoment: [ Abs: 36.87540  Tot: -0.00000 ]
	SubspaceRotationAdjust: set factor to 0.265
ElecMinimize: Iter: 173  F: -2112.508249733133653  |grad|_K:  2.085e-07  alpha:  3.151e-01  linmin:  5.010e-06  t[s]:  14498.33
	FillingsUpdate:  mu: +0.108905409  nElectrons: 353.000000  magneticMoment: [ Abs: 36.87508  Tot: +0.00000 ]
	SubspaceRotationAdjust: set factor to 0.29
ElecMinimize: Iter: 174  F: -2112.508252436902239  |grad|_K:  1.805e-07  alpha:  3.571e-01  linmin: -2.173e-05  t[s]:  14575.76
	FillingsUpdate:  mu: +0.108748312  nElectrons: 353.000000  magneticMoment: [ Abs: 36.87334  Tot: -0.00000 ]
	SubspaceRotationAdjust: set factor to 0.304
ElecMinimize: Iter: 175  F: -2112.508254429502813  |grad|_K:  1.699e-07  alpha:  3.504e-01  linmin:  1.114e-05  t[s]:  14650.92
	FillingsUpdate:  mu: +0.108941948  nElectrons: 353.000000  magneticMoment: [ Abs: 36.87410  Tot: +0.00000 ]
	SubspaceRotationAdjust: set factor to 0.288
ElecMinimize: Iter: 176  F: -2112.508256109954345  |grad|_K:  1.632e-07  alpha:  3.347e-01  linmin: -9.172e-06  t[s]:  14727.42
	FillingsUpdate:  mu: +0.108825550  nElectrons: 353.000000  magneticMoment: [ Abs: 36.87312  Tot: +0.00000 ]
	SubspaceRotationAdjust: set factor to 0.282
ElecMinimize: Iter: 177  F: -2112.508257683743523  |grad|_K:  1.554e-07  alpha:  3.392e-01  linmin: -4.674e-07  t[s]:  14806.11
	FillingsUpdate:  mu: +0.108820271  nElectrons: 353.000000  magneticMoment: [ Abs: 36.87303  Tot: -0.00000 ]
	SubspaceRotationAdjust: set factor to 0.305
ElecMinimize: Iter: 178  F: -2112.508259221320714  |grad|_K:  1.491e-07  alpha:  3.656e-01  linmin:  7.985e-06  t[s]:  14879.03
	FillingsUpdate:  mu: +0.108975004  nElectrons: 353.000000  magneticMoment: [ Abs: 36.87451  Tot: -0.00000 ]
	SubspaceRotationAdjust: set factor to 0.312
ElecMinimize: Iter: 179  F: -2112.508260663634701  |grad|_K:  1.466e-07  alpha:  3.726e-01  linmin: -2.228e-05  t[s]:  14956.20
	FillingsUpdate:  mu: +0.108773016  nElectrons: 353.000000  magneticMoment: [ Abs: 36.87315  Tot: +0.00000 ]
	SubspaceRotationAdjust: set factor to 0.288
ElecMinimize: Iter: 180  F: -2112.508261935632163  |grad|_K:  1.458e-07  alpha:  3.391e-01  linmin:  1.423e-05  t[s]:  15034.68
	FillingsUpdate:  mu: +0.108909242  nElectrons: 353.000000  magneticMoment: [ Abs: 36.87408  Tot: -0.00000 ]
	SubspaceRotationAdjust: set factor to 0.281
ElecMinimize: Iter: 181  F: -2112.508263187147350  |grad|_K:  1.380e-07  alpha:  3.388e-01  linmin: -1.047e-05  t[s]:  15110.07
	FillingsUpdate:  mu: +0.108910279  nElectrons: 353.000000  magneticMoment: [ Abs: 36.87427  Tot: -0.00000 ]
	SubspaceRotationAdjust: set factor to 0.295
ElecMinimize: Iter: 182  F: -2112.508264449149465  |grad|_K:  1.349e-07  alpha:  3.801e-01  linmin: -6.960e-06  t[s]:  15188.01
	FillingsUpdate:  mu: +0.108793068  nElectrons: 353.000000  magneticMoment: [ Abs: 36.87337  Tot: -0.00000 ]
	SubspaceRotationAdjust: set factor to 0.293
ElecMinimize: Iter: 183  F: -2112.508265610063063  |grad|_K:  1.379e-07  alpha:  3.660e-01  linmin:  9.339e-06  t[s]:  15265.01
	FillingsUpdate:  mu: +0.108973453  nElectrons: 353.000000  magneticMoment: [ Abs: 36.87493  Tot: +0.00000 ]
	SubspaceRotationAdjust: set factor to 0.281
ElecMinimize: Iter: 184  F: -2112.508266807444670  |grad|_K:  1.392e-07  alpha:  3.621e-01  linmin: -1.788e-05  t[s]:  15342.42
	FillingsUpdate:  mu: +0.108843561  nElectrons: 353.000000  magneticMoment: [ Abs: 36.87418  Tot: -0.00000 ]
	SubspaceRotationAdjust: set factor to 0.29
ElecMinimize: Iter: 185  F: -2112.508268121172023  |grad|_K:  1.416e-07  alpha:  3.888e-01  linmin:  1.111e-05  t[s]:  15421.10
	FillingsUpdate:  mu: +0.108860762  nElectrons: 353.000000  magneticMoment: [ Abs: 36.87415  Tot: -0.00000 ]
	SubspaceRotationAdjust: set factor to 0.304
ElecMinimize: Iter: 186  F: -2112.508269465848571  |grad|_K:  1.442e-07  alpha:  3.859e-01  linmin:  5.715e-06  t[s]:  15498.66
	FillingsUpdate:  mu: +0.108985631  nElectrons: 353.000000  magneticMoment: [ Abs: 36.87525  Tot: +0.00000 ]
	SubspaceRotationAdjust: set factor to 0.293
ElecMinimize: Iter: 187  F: -2112.508270806566998  |grad|_K:  1.500e-07  alpha:  3.706e-01  linmin: -1.224e-05  t[s]:  15576.35
	FillingsUpdate:  mu: +0.108816320  nElectrons: 353.000000  magneticMoment: [ Abs: 36.87390  Tot: +0.00000 ]
	SubspaceRotationAdjust: set factor to 0.278
ElecMinimize: Iter: 188  F: -2112.508272194231267  |grad|_K:  1.529e-07  alpha:  3.536e-01  linmin:  1.198e-05  t[s]:  15654.32
	FillingsUpdate:  mu: +0.108945854  nElectrons: 353.000000  magneticMoment: [ Abs: 36.87484  Tot: +0.00000 ]
	SubspaceRotationAdjust: set factor to 0.3
ElecMinimize: Iter: 189  F: -2112.508273842421659  |grad|_K:  1.549e-07  alpha:  4.056e-01  linmin: -6.620e-06  t[s]:  15729.42
	FillingsUpdate:  mu: +0.108941103  nElectrons: 353.000000  magneticMoment: [ Abs: 36.87487  Tot: +0.00000 ]
	SubspaceRotationAdjust: set factor to 0.314
ElecMinimize: Iter: 190  F: -2112.508275555400814  |grad|_K:  1.626e-07  alpha:  4.098e-01  linmin: -4.778e-06  t[s]:  15808.11
	FillingsUpdate:  mu: +0.108842089  nElectrons: 353.000000  magneticMoment: [ Abs: 36.87379  Tot: +0.00000 ]
	SubspaceRotationAdjust: set factor to 0.287
ElecMinimize: Iter: 191  F: -2112.508277169335997  |grad|_K:  1.712e-07  alpha:  3.501e-01  linmin:  1.057e-05  t[s]:  15884.62
	FillingsUpdate:  mu: +0.108971900  nElectrons: 353.000000  magneticMoment: [ Abs: 36.87479  Tot: +0.00000 ]
	SubspaceRotationAdjust: set factor to 0.268
ElecMinimize: Iter: 192  F: -2112.508278894438263  |grad|_K:  1.668e-07  alpha:  3.388e-01  linmin: -5.165e-06  t[s]:  15958.61
	FillingsUpdate:  mu: +0.108891486  nElectrons: 353.000000  magneticMoment: [ Abs: 36.87386  Tot: +0.00000 ]
	SubspaceRotationAdjust: set factor to 0.295
ElecMinimize: Iter: 193  F: -2112.508280851781819  |grad|_K:  1.650e-07  alpha:  4.038e-01  linmin:  4.458e-06  t[s]:  16037.13
[...]
	SubspaceRotationAdjust: set factor to 0.258
ElecMinimize: Iter:  20  F: -2112.568980513119186  |grad|_K:  8.151e-08  alpha:  3.108e-01  linmin:  2.754e-06  t[s]: 145824.20
ElecMinimize: Converged (|Delta F|<1.000000e-06 for 5 iters).
Setting wave functions to eigenvectors of Hamiltonian

# Ionic positions in lattice coordinates:
ion Ni   0.082223658958057   0.005179194107932   0.189357716108858 1
ion Ni   0.000000000000000   0.000000000000000  -0.050000000000000 0
ion Ni   0.000000000000000   0.500000000000000  -0.050000000000000 0
ion Ni   0.500000000000000   0.500000000000000  -0.050000000000000 0
ion Ni   0.250000000000000   0.750000000000000  -0.150000000000000 0
ion Ni  -0.250000000000000   0.250000000000000  -0.150000000000000 0
ion V   0.526404725106035  -0.009203851426761   0.161199287252302 1
ion V  -0.012485181685601   0.493010922259506   0.159610250594618 1
ion V   0.244434423344411   0.240988265974103   0.050166960663364 1
ion V   0.243562953937598   0.749438824075138   0.051783296290510 1
ion V  -0.249965341604753   0.245596184632887   0.049425603952855 1
ion V  -0.250755759621294   0.742873478504053   0.050528807180943 1
ion Cr   0.488193734780453   0.493772519378275   0.162888175222704 1
ion Co   0.500000000000000   0.000000000000000  -0.050000000000000 0
ion Co   0.250000000000000   0.250000000000000  -0.150000000000000 0
ion Co  -0.250000000000000   0.750000000000000  -0.150000000000000 0
ion O   0.246411277745889   0.242320815443025   0.149225966975512 1
ion O   0.241450685464046   0.742321883374251   0.155612862442878 1
ion O  -0.273106604976752   0.260408159660818   0.141882381333049 1
ion O  -0.273661069646395   0.720400282027714   0.150071772943271 1
ion O  -0.007635946161871   0.014613675158515   0.048635935693332 1
ion O   0.491286752884886   0.007477925410498   0.054711364665093 1
ion O   0.006941097423861   0.479813456172433   0.054613489061150 1
ion O   0.493526118512896   0.476660691080760   0.045088201007413 1
ion O   0.250000000000000   0.250000000000000  -0.050000000000000 0
ion O   0.250000000000000   0.750000000000000  -0.050000000000000 0
ion O  -0.250000000000000   0.250000000000000  -0.050000000000000 0
ion O  -0.250000000000000   0.750000000000000  -0.050000000000000 0
ion O   0.000000000000000   0.000000000000000  -0.150000000000000 0
ion O   0.500000000000000   0.000000000000000  -0.150000000000000 0
ion O   0.000000000000000   0.500000000000000  -0.150000000000000 0
ion O   0.500000000000000   0.500000000000000  -0.150000000000000 0
ion O  -0.062173954811167  -0.008235467812070   0.256019614608175 1

# Forces in Lattice coordinates:
force Ni   0.020498680101789   0.006998697585457  -0.000450688287756 1
force Ni  -0.010499039615200  -0.010886491891564  -0.741035396473256 0
force Ni  -0.003377750027361   0.055195191364680  -0.838751944683198 0
force Ni  -0.013158495199984   0.005716842322578  -0.844706065575493 0
force Ni  -0.013059462918105  -0.012481192521068   0.555767256048044 0
force Ni   0.010268665621576   0.012258831626873   0.429245209000271 0
force V   0.000166088151667   0.008313379438829  -0.009064931763905 1
force V  -0.007148352646412  -0.002182964194270  -0.017810734924907 1
force V   0.009288594385193   0.008581393456363  -0.006807626203517 1
force V   0.001919816096271  -0.002049006704635  -0.015087285156655 1
force V  -0.006765981339278   0.004240135382382   0.041213842751147 1
force V  -0.000256028375726  -0.003642146462222   0.013964288782515 1
force Cr   0.005353817150635  -0.009077230288681  -0.012515411302029 1
force Co  -0.016949186665343  -0.028500834002101  -0.783750087609405 0
force Co  -0.010455111497891   0.035059145406520  -0.217301490435164 0
force Co   0.015097097890727  -0.036042338298764  -0.176596750655440 0
force O  -0.000762761646977  -0.000610184113266   0.000869342460236 1
force O  -0.000446639050014   0.008011591263326   0.007864520327329 1
force O   0.006705868891352   0.001838971284422  -0.038151631383619 1
force O   0.007624414405384  -0.006525228399618  -0.002118051598202 1
force O   0.002706840404284  -0.006331256126042  -0.002591643627622 1
force O  -0.004328312503014  -0.003678850721186  -0.015204281355617 1
force O   0.004871431340813   0.001448986453255  -0.001000170312384 1
force O  -0.001441256756642   0.000367256213900   0.002081182569654 1
force O   0.008539153637032  -0.051267780681609   0.739610570124186 0
force O  -0.086942316784866  -0.071286491445417   0.203986370830401 0
force O   0.070738533271523   0.057843457768787   0.500453863925298 0
force O   0.014259109208766   0.015263709880356   0.495951154420251 0
force O   0.007752193675062  -0.002503590513241   0.222832560999796 0
force O  -0.006496048540644   0.004356355528382   0.067435170001897 0
force O   0.005771996256908  -0.003813616269734   0.243336885838700 0
force O  -0.005794685859441   0.002812385323562   0.131508588468609 0
force O  -0.006830019005242   0.000551105671176  -0.006622957219168 1

# Energy components:
   Eewald =     5373.3892027738975230
       EH =     7276.2553538012507488
     Eloc =   -14912.3460181879108859
      Enl =     -566.4102495219383400
   Epulay =       -0.0004868641557714
      Exc =     -253.5801134734739435
       KE =      968.7586297412219665
        U =        1.3658499941719933
-------------------------------------
     Etot =    -2112.5678317369356591
       TS =        0.0011487761835150
-------------------------------------
        F =    -2112.5689805131191861

IonicMinimize: Iter:  33  F: -2112.568980513119186  |grad|_K:  4.989e-04  alpha:  1.000e+00  linmin:  2.404e-02  t[s]: 145835.35

#--- Lowdin population analysis ---
# oxidation-state Ni +3.626 +3.427 +3.414 +3.428 +3.812 +3.815
# magnetic-moments Ni -0.784 +0.825 -0.139 +0.824 +0.932 +0.931
# oxidation-state V +1.100 +1.136 +1.280 +1.050 +1.267 +1.038
# magnetic-moments V -2.955 +2.854 +2.066 +2.865 -2.094 -2.905
# oxidation-state Cr +2.874
# magnetic-moments Cr -4.033
# oxidation-state Co +1.122 +1.309 +1.304
# magnetic-moments Co +1.088 -2.797 +2.795
# oxidation-state O -0.863 -0.879 -0.844 -0.880 -0.833 -0.917 -0.862 -0.862 -0.806 -0.756 -0.763 -0.802 -0.837 -0.901 -0.820 -0.842 -0.447
# magnetic-moments O -0.122 -0.146 +0.103 +0.084 +0.088 -0.011 -0.051 +0.071 +0.142 +0.133 +0.167 +0.256 +0.230 +0.087 +0.042 +0.215 -1.224


-------- Electronic minimization -----------
	FillingsUpdate:  mu: +0.104213886  nElectrons: 353.000000  magneticMoment: [ Abs: 36.68282  Tot: -0.00000 ]
ElecMinimize: Iter:   0  F: -2112.458191295422239  |grad|_K:  5.585e-05  alpha:  1.000e+00
	FillingsUpdate:  mu: +0.111792251  nElectrons: 353.000000  magneticMoment: [ Abs: 36.79530  Tot: +0.00000 ]
	SubspaceRotationAdjust: set factor to 0.215
ElecMinimize: Iter:   1  F: -2112.559663785064004  |grad|_K:  1.388e-05  alpha:  1.941e-01  linmin:  1.370e-02  t[s]: 145938.13
	FillingsUpdate:  mu: +0.101342947  nElectrons: 353.000000  magneticMoment: [ Abs: 36.66237  Tot: +0.00000 ]
	SubspaceRotationAdjust: set factor to 0.122
ElecMinimize: Iter:   2  F: -2112.563516827107833  |grad|_K:  8.442e-06  alpha:  1.210e-01  linmin:  1.250e-03  t[s]: 146014.06
	FillingsUpdate:  mu: +0.107934776  nElectrons: 353.000000  magneticMoment: [ Abs: 36.69624  Tot: +0.00000 ]
	SubspaceRotationAdjust: set factor to 0.208
ElecMinimize: Iter:   3  F: -2112.565993010065540  |grad|_K:  3.697e-06  alpha:  2.042e-01  linmin:  1.307e-04  t[s]: 146090.85
	FillingsUpdate:  mu: +0.108359131  nElectrons: 353.000000  magneticMoment: [ Abs: 36.72060  Tot: -0.00000 ]
	SubspaceRotationAdjust: set factor to 0.151
ElecMinimize: Iter:   4  F: -2112.566688569693724  |grad|_K:  3.369e-06  alpha:  2.931e-01  linmin:  3.802e-05  t[s]: 146167.76
	FillingsUpdate:  mu: +0.106891079  nElectrons: 353.000000  magneticMoment: [ Abs: 36.68256  Tot: +0.00000 ]
	SubspaceRotationAdjust: set factor to 0.133
ElecMinimize: Iter:   5  F: -2112.567121305963610  |grad|_K:  2.840e-06  alpha:  2.200e-01  linmin: -1.339e-05  t[s]: 146243.79
	FillingsUpdate:  mu: +0.107941903  nElectrons: 353.000000  magneticMoment: [ Abs: 36.68193  Tot: -0.00000 ]
	SubspaceRotationAdjust: set factor to 0.181
ElecMinimize: Iter:   6  F: -2112.567689137420075  |grad|_K:  2.731e-06  alpha:  4.040e-01  linmin:  7.721e-06  t[s]: 146321.62
	FillingsUpdate:  mu: +0.108507819  nElectrons: 353.000000  magneticMoment: [ Abs: 36.70661  Tot: -0.00000 ]
	SubspaceRotationAdjust: set factor to 0.153
ElecMinimize: Iter:   7  F: -2112.568155874775584  |grad|_K:  2.918e-06  alpha:  3.592e-01  linmin:  3.784e-05  t[s]: 146397.71
	FillingsUpdate:  mu: +0.108410237  nElectrons: 353.000000  magneticMoment: [ Abs: 36.67791  Tot: +0.00000 ]
	SubspaceRotationAdjust: set factor to 0.124
ElecMinimize: Iter:   8  F: -2112.568490235247282  |grad|_K:  2.059e-06  alpha:  2.284e-01  linmin:  9.096e-06  t[s]: 146475.57
	FillingsUpdate:  mu: +0.108056723  nElectrons: 353.000000  magneticMoment: [ Abs: 36.67505  Tot: +0.00000 ]
	SubspaceRotationAdjust: set factor to 0.157
ElecMinimize: Iter:   9  F: -2112.568771811029364  |grad|_K:  1.570e-06  alpha:  3.819e-01  linmin: -6.290e-06  t[s]: 146552.46
	FillingsUpdate:  mu: +0.108894125  nElectrons: 353.000000  magneticMoment: [ Abs: 36.69009  Tot: -0.00000 ]
	SubspaceRotationAdjust: set factor to 0.12
ElecMinimize: Iter:  10  F: -2112.568891420768523  |grad|_K:  1.166e-06  alpha:  2.780e-01  linmin:  9.099e-06  t[s]: 146628.20
	FillingsUpdate:  mu: +0.108710745  nElectrons: 353.000000  magneticMoment: [ Abs: 36.68149  Tot: -0.00000 ]
	SubspaceRotationAdjust: set factor to 0.0951
ElecMinimize: Iter:  11  F: -2112.568954141707763  |grad|_K:  7.337e-07  alpha:  2.651e-01  linmin: -1.472e-05  t[s]: 146704.09
	FillingsUpdate:  mu: +0.108744461  nElectrons: 353.000000  magneticMoment: [ Abs: 36.68261  Tot: -0.00000 ]
	SubspaceRotationAdjust: set factor to 0.114
ElecMinimize: Iter:  12  F: -2112.568986544377822  |grad|_K:  5.073e-07  alpha:  3.453e-01  linmin:  1.245e-06  t[s]: 146781.62
	FillingsUpdate:  mu: +0.108917452  nElectrons: 353.000000  magneticMoment: [ Abs: 36.68600  Tot: -0.00000 ]
	SubspaceRotationAdjust: set factor to 0.111
ElecMinimize: Iter:  13  F: -2112.569000229882931  |grad|_K:  3.689e-07  alpha:  3.054e-01  linmin:  3.719e-06  t[s]: 146858.57
	FillingsUpdate:  mu: +0.108849447  nElectrons: 353.000000  magneticMoment: [ Abs: 36.68507  Tot: -0.00000 ]
	SubspaceRotationAdjust: set factor to 0.124
ElecMinimize: Iter:  14  F: -2112.569008350504646  |grad|_K:  2.639e-07  alpha:  3.427e-01  linmin: -2.262e-06  t[s]: 146936.34
	FillingsUpdate:  mu: +0.108819829  nElectrons: 353.000000  magneticMoment: [ Abs: 36.68517  Tot: +0.00000 ]
	SubspaceRotationAdjust: set factor to 0.147
ElecMinimize: Iter:  15  F: -2112.569013077858017  |grad|_K:  2.221e-07  alpha:  3.897e-01  linmin: -6.340e-07  t[s]: 147016.84
	FillingsUpdate:  mu: +0.108875935  nElectrons: 353.000000  magneticMoment: [ Abs: 36.68663  Tot: -0.00000 ]
	SubspaceRotationAdjust: set factor to 0.162
ElecMinimize: Iter:  16  F: -2112.569016256604300  |grad|_K:  1.934e-07  alpha:  3.701e-01  linmin:  2.268e-06  t[s]: 147096.09
	FillingsUpdate:  mu: +0.108804229  nElectrons: 353.000000  magneticMoment: [ Abs: 36.68559  Tot: +0.00000 ]
	SubspaceRotationAdjust: set factor to 0.172
ElecMinimize: Iter:  17  F: -2112.569018793839405  |grad|_K:  1.834e-07  alpha:  3.897e-01  linmin: -2.211e-06  t[s]: 147173.73
	FillingsUpdate:  mu: +0.108856697  nElectrons: 353.000000  magneticMoment: [ Abs: 36.68682  Tot: -0.00000 ]
	SubspaceRotationAdjust: set factor to 0.175
ElecMinimize: Iter:  18  F: -2112.569021053316192  |grad|_K:  1.664e-07  alpha:  3.855e-01  linmin:  2.078e-06  t[s]: 147254.64
	FillingsUpdate:  mu: +0.108801301  nElectrons: 353.000000  magneticMoment: [ Abs: 36.68585  Tot: +0.00000 ]
	SubspaceRotationAdjust: set factor to 0.174
ElecMinimize: Iter:  19  F: -2112.569022855311232  |grad|_K:  1.456e-07  alpha:  3.737e-01  linmin: -1.558e-06  t[s]: 147330.72
	FillingsUpdate:  mu: +0.108844583  nElectrons: 353.000000  magneticMoment: [ Abs: 36.68655  Tot: +0.00000 ]
	SubspaceRotationAdjust: set factor to 0.165
ElecMinimize: Iter:  20  F: -2112.569024132212689  |grad|_K:  1.187e-07  alpha:  3.456e-01  linmin:  1.148e-06  t[s]: 147410.07
	FillingsUpdate:  mu: +0.108800638  nElectrons: 353.000000  magneticMoment: [ Abs: 36.68561  Tot: +0.00000 ]
	SubspaceRotationAdjust: set factor to 0.15
ElecMinimize: Iter:  21  F: -2112.569024943953991  |grad|_K:  9.472e-08  alpha:  3.309e-01  linmin: -2.532e-06  t[s]: 147487.65
	FillingsUpdate:  mu: +0.108829071  nElectrons: 353.000000  magneticMoment: [ Abs: 36.68600  Tot: +0.00000 ]
	SubspaceRotationAdjust: set factor to 0.14
ElecMinimize: Iter:  22  F: -2112.569025455163228  |grad|_K:  7.445e-08  alpha:  3.272e-01  linmin: -2.163e-06  t[s]: 147565.88
	FillingsUpdate:  mu: +0.108807844  nElectrons: 353.000000  magneticMoment: [ Abs: 36.68541  Tot: -0.00000 ]
	SubspaceRotationAdjust: set factor to 0.147
ElecMinimize: Iter:  23  F: -2112.569025784661790  |grad|_K:  5.952e-08  alpha:  3.414e-01  linmin:  1.005e-06  t[s]: 147641.41
	FillingsUpdate:  mu: +0.108813741  nElectrons: 353.000000  magneticMoment: [ Abs: 36.68529  Tot: -0.00000 ]
	SubspaceRotationAdjust: set factor to 0.173
ElecMinimize: Iter:  24  F: -2112.569026019452394  |grad|_K:  5.129e-08  alpha:  3.807e-01  linmin:  1.537e-05  t[s]: 147718.57
	FillingsUpdate:  mu: +0.108818824  nElectrons: 353.000000  magneticMoment: [ Abs: 36.68515  Tot: -0.00000 ]
	SubspaceRotationAdjust: set factor to 0.206
ElecMinimize: Iter:  25  F: -2112.569026209551794  |grad|_K:  5.039e-08  alpha:  4.159e-01  linmin: -1.837e-05  t[s]: 147794.69
ElecMinimize: Converged (|Delta F|<1.000000e-06 for 5 iters).
Setting wave functions to eigenvectors of Hamiltonian

# Ionic positions in lattice coordinates:
ion Ni   0.083127287797880   0.006528604432967   0.189665143793236 1
ion Ni   0.000000000000000   0.000000000000000  -0.050000000000000 0
ion Ni   0.000000000000000   0.500000000000000  -0.050000000000000 0
ion Ni   0.500000000000000   0.500000000000000  -0.050000000000000 0
ion Ni   0.250000000000000   0.750000000000000  -0.150000000000000 0
ion Ni  -0.250000000000000   0.250000000000000  -0.150000000000000 0
ion V   0.526905359936403  -0.009076911305411   0.161082989738464 1
ion V  -0.012559384112873   0.492623015614666   0.159492072065949 1
ion V   0.244845079458993   0.241088301098786   0.050034896837204 1
ion V   0.243614954056340   0.749478292095407   0.051790227297801 1
ion V  -0.249811099275743   0.245534743108308   0.049336215080702 1
ion V  -0.250509207424410   0.742732716128695   0.050491889001339 1
ion Cr   0.488573830227376   0.493572891390846   0.162711171223600 1
ion Co   0.500000000000000   0.000000000000000  -0.050000000000000 0
ion Co   0.250000000000000   0.250000000000000  -0.150000000000000 0
ion Co  -0.250000000000000   0.750000000000000  -0.150000000000000 0
ion O   0.246900829201504   0.242314156344738   0.149073594514906 1
ion O   0.241311052278133   0.742768484374575   0.155767135513441 1
ion O  -0.272895809986953   0.260549535196325   0.141674347038809 1
ion O  -0.273271190484767   0.719884831414734   0.150008351832015 1
ion O  -0.007469011796108   0.014475645158758   0.048560549964529 1
ion O   0.491222147679029   0.007355749108314   0.054638516232865 1
ion O   0.007297270793681   0.479754517142434   0.054675756888490 1
ion O   0.493404457372514   0.476671650965689   0.045100594571223 1
ion O   0.250000000000000   0.250000000000000  -0.050000000000000 0
ion O   0.250000000000000   0.750000000000000  -0.050000000000000 0
ion O  -0.250000000000000   0.250000000000000  -0.050000000000000 0
ion O  -0.250000000000000   0.750000000000000  -0.050000000000000 0
ion O   0.000000000000000   0.000000000000000  -0.150000000000000 0
ion O   0.500000000000000   0.000000000000000  -0.150000000000000 0
ion O   0.000000000000000   0.500000000000000  -0.150000000000000 0
ion O   0.500000000000000   0.500000000000000  -0.150000000000000 0
ion O  -0.063260327842515  -0.007667681817736   0.255963323725639 1

# Forces in Lattice coordinates:
force Ni   0.005095041636753   0.006543250753698  -0.026011834543655 1
force Ni  -0.010456266433783  -0.011348267384159  -0.730527608807748 0
force Ni  -0.003492454740285   0.056124212020588  -0.829324433411086 0
force Ni  -0.012849984252613   0.006578599010177  -0.836640144711621 0
force Ni  -0.013236377218445  -0.012526621483612   0.553559146195552 0
force Ni   0.010415011607138   0.012307151889365   0.426098558361412 0
force V  -0.001299501046848   0.000338833410815   0.002152880692607 1
force V   0.001510538493546   0.003491613558195   0.000100900481784 1
force V  -0.002961647882855   0.005704585741231   0.018829238010634 1
force V   0.000153616967994  -0.002015235445406  -0.005984262018836 1
force V  -0.007191575697011   0.003921303406325   0.052673378010495 1
force V  -0.002071611690732  -0.001543697578708   0.013492949068184 1
force Cr  -0.002737035070357  -0.001707645918573   0.000329837144573 1
force Co  -0.016738837419953  -0.029567871407118  -0.779409197378921 0
force Co  -0.010610057093696   0.035114197763477  -0.220465802237085 0
force Co   0.015229080770131  -0.036075316934840  -0.178496933805807 0
force O  -0.000795412186983   0.000774868964501   0.002313140919194 1
force O   0.002348730614089   0.002085892164029  -0.005080255928254 1
force O   0.006850618736059  -0.001913611394638  -0.024240464017342 1
force O   0.004712629606298   0.000289342906528  -0.002241437030996 1
force O   0.000803696263043  -0.003340555391043  -0.012476148504978 1
force O   0.001530852346806  -0.002770453177907  -0.018382479345629 1
force O   0.001397725402930   0.001189141364455  -0.016414115582268 1
force O   0.002770390743348   0.002046715343684  -0.014206488271450 1
force O   0.009791634446581  -0.051609929067479   0.734455945743238 0
force O  -0.086641019061258  -0.071649354267670   0.201838948232035 0
force O   0.070881957203432   0.057964154729127   0.497028877456029 0
force O   0.014671531255074   0.014991100676928   0.495348755965371 0
force O   0.007850003927313  -0.002474161659742   0.223687329603615 0
force O  -0.006578260749194   0.004394984210872   0.069519490022451 0
force O   0.005854707571253  -0.003913588663646   0.241729294710559 0
force O  -0.005804783430955   0.002775145584833   0.130674627252555 0
force O  -0.005060060749993  -0.000990984345980  -0.016606278218120 1

# Energy components:
   Eewald =     5374.3087470266218588
       EH =     7277.1515428741495271
     Eloc =   -14914.1636290590140561
      Enl =     -566.4074217580405275
   Epulay =       -0.0004868641557714
      Exc =     -253.5805705567134680
       KE =      968.7576125350419716
        U =        1.3663282511256825
-------------------------------------
     Etot =    -2112.5678775509850311
       TS =        0.0011486585669074
-------------------------------------
        F =    -2112.5690262095517937

IonicMinimize: Iter:  34  F: -2112.569026209551794  |grad|_K:  3.512e-04  alpha:  1.000e+00  linmin: -3.768e-03  t[s]: 147805.82
IonicMinimize: Converged (|Delta F|<1.000000e-04 for 3 iters).

#--- Lowdin population analysis ---
# oxidation-state Ni +3.624 +3.427 +3.413 +3.428 +3.812 +3.815
# magnetic-moments Ni -0.781 +0.826 -0.142 +0.825 +0.932 +0.931
# oxidation-state V +1.100 +1.138 +1.280 +1.050 +1.266 +1.038
# magnetic-moments V -2.956 +2.849 +2.065 +2.866 -2.093 -2.905
# oxidation-state Cr +2.874
# magnetic-moments Cr -4.032
# oxidation-state Co +1.122 +1.309 +1.304
# magnetic-moments Co +1.088 -2.797 +2.795
# oxidation-state O -0.863 -0.879 -0.843 -0.880 -0.833 -0.917 -0.862 -0.862 -0.807 -0.756 -0.763 -0.802 -0.837 -0.901 -0.820 -0.842 -0.446
# magnetic-moments O -0.122 -0.147 +0.102 +0.084 +0.089 -0.010 -0.050 +0.071 +0.142 +0.134 +0.167 +0.257 +0.230 +0.087 +0.044 +0.215 -1.224


Dumping 'run.ionpos' ... done
Dumping 'run.lattice' ... done
Dumping 'run.Ecomponents' ... done
End date and time: Sat May 10 12:56:28 2025  (Duration: 1-17:03:28.98)
Done!
