/var/spool/slurmd/job44412/slurm_script: line 9: module: command not found
/var/spool/slurmd/job44412/slurm_script: line 10: module: command not found

*************** JDFTx 1.7.0  ***************

Start date and time: Sun May 18 05:29:57 2025
Executable /data2/jt577/jdftx_eat_withLibXC/build/jdftx with command-line: -i /data2/jt577/May_2025/Relax_Mag_litU/rel13+1_6/O/runs/calc_/run.in
Running on hosts (process indices):  node3401 (0-8)
Divided in process groups (process indices):  0 (0)  1 (1)  2 (2)  3 (3)  4 (4)  5 (5)  6 (6)  7 (7)  8 (8)
Resource initialization completed at t[s]:      0.00
Run totals: 9 processes, 90 threads, 0 GPUs


Input parsed successfully to the following command list (including defaults):

add-mix 
add-U 	Ni d 0.235196 \
	V d 0.113923 \
	Cr d 0.128623 \
	Co d 0.121273
basis kpoint-dependent
coords-type Lattice
core-overlap-check vector
coulomb-interaction Periodic
davidson-band-ratio 1.1
dump End IonicPositions Lattice Ecomponents
dump-name run.$VAR
elec-cutoff 30
elec-eigen-algo Davidson
elec-ex-corr gga-x-rpbe gga-c-pbe
elec-smearing Fermi 0.001
electronic-minimize  \
	dirUpdateScheme      FletcherReeves \
	linminMethod         DirUpdateRecommended \
	nIterations          1000 \
	history              15 \
	knormThreshold       0 \
	energyDiffThreshold  1e-06 \
	nEnergyDiff          5 \
	alphaTstart          1 \
	alphaTmin            1e-10 \
	updateTestStepSize   yes \
	alphaTreduceFactor   0.1 \
	alphaTincreaseFactor 3 \
	nAlphaAdjustMax      3 \
	wolfeEnergy          0.0001 \
	wolfeGradient        0.9 \
	fdTest               no
exchange-regularization WignerSeitzTruncated
fluid None
fluid-ex-corr (null) lda-PZ
fluid-gummel-loop 10 1.000000e-05
fluid-minimize  \
	dirUpdateScheme      PolakRibiere \
	linminMethod         DirUpdateRecommended \
	nIterations          100 \
	history              15 \
	knormThreshold       0 \
	energyDiffThreshold  0 \
	nEnergyDiff          2 \
	alphaTstart          1 \
	alphaTmin            1e-10 \
	updateTestStepSize   yes \
	alphaTreduceFactor   0.1 \
	alphaTincreaseFactor 3 \
	nAlphaAdjustMax      3 \
	wolfeEnergy          0.0001 \
	wolfeGradient        0.9 \
	fdTest               no
fluid-solvent H2O 55.338 ScalarEOS \
	epsBulk 78.4 \
	pMol 0.92466 \
	epsInf 1.77 \
	Pvap 1.06736e-10 \
	sigmaBulk 4.62e-05 \
	Rvdw 2.61727 \
	Res 1.42 \
	tauNuc 343133 \
	poleEl 15 7 1
forces-output-coords Positions
initial-magnetic-moments  \
	Ni 1 -1 -1 1 -1 1 \
	V -1 1 1 1 -1 -1 \
	Cr -1 \
	Co 1 -1 1
initial-state run.$VAR
ion Ni  0.000000000000000   0.000000000000000   0.150000000000000 1
ion Ni  0.000000000000000   0.000000000000000  -0.050000000000000 0
ion Ni  0.000000000000000   0.500000000000000  -0.050000000000000 0
ion Ni  0.500000000000000   0.500000000000000  -0.050000000000000 0
ion Ni  0.250000000000000   0.750000000000000  -0.150000000000000 0
ion Ni -0.250000000000000   0.250000000000000  -0.150000000000000 0
ion V  0.500000000000000   0.000000000000000   0.150000000000000 1
ion V  0.000000000000000   0.500000000000000   0.150000000000000 1
ion V  0.250000000000000   0.250000000000000   0.050000000000000 1
ion V  0.250000000000000   0.750000000000000   0.050000000000000 1
ion V -0.250000000000000   0.250000000000000   0.050000000000000 1
ion V -0.250000000000000   0.750000000000000   0.050000000000000 1
ion Cr  0.500000000000000   0.500000000000000   0.150000000000000 1
ion Co  0.500000000000000   0.000000000000000  -0.050000000000000 0
ion Co  0.250000000000000   0.250000000000000  -0.150000000000000 0
ion Co -0.250000000000000   0.750000000000000  -0.150000000000000 0
ion O  0.250000000000000   0.250000000000000   0.150000000000000 1
ion O  0.250000000000000   0.750000000000000   0.150000000000000 1
ion O -0.250000000000000   0.250000000000000   0.150000000000000 1
ion O -0.250000000000000   0.750000000000000   0.150000000000000 1
ion O  0.000000000000000   0.000000000000000   0.050000000000000 1
ion O  0.500000000000000   0.000000000000000   0.050000000000000 1
ion O  0.000000000000000   0.500000000000000   0.050000000000000 1
ion O  0.500000000000000   0.500000000000000   0.050000000000000 1
ion O  0.250000000000000   0.250000000000000  -0.050000000000000 0
ion O  0.250000000000000   0.750000000000000  -0.050000000000000 0
ion O -0.250000000000000   0.250000000000000  -0.050000000000000 0
ion O -0.250000000000000   0.750000000000000  -0.050000000000000 0
ion O  0.000000000000000   0.000000000000000  -0.150000000000000 0
ion O  0.500000000000000   0.000000000000000  -0.150000000000000 0
ion O  0.000000000000000   0.500000000000000  -0.150000000000000 0
ion O  0.500000000000000   0.500000000000000  -0.150000000000000 0
ion O -0.000095572322686   0.000198307128402   0.224876729873325 1
ion-species SG15/$ID_ONCV_PBE.upf
ion-width 0
ionic-minimize  \
	dirUpdateScheme      L-BFGS \
	linminMethod         DirUpdateRecommended \
	nIterations          1000 \
	history              15 \
	knormThreshold       0.0001 \
	energyDiffThreshold  0.0001 \
	nEnergyDiff          3 \
	alphaTstart          1 \
	alphaTmin            1e-10 \
	updateTestStepSize   yes \
	alphaTreduceFactor   0.1 \
	alphaTincreaseFactor 3 \
	nAlphaAdjustMax      3 \
	wolfeEnergy          0.0001 \
	wolfeGradient        0.9 \
	fdTest               no
kpoint   0.500000000000   0.500000000000   0.500000000000  1.00000000000000
kpoint-folding 3 3 1 
latt-move-scale 1 1 1
latt-scale 1 1 1 
lattice  \
	   8.140000000000001    8.140000000000001    0.000000000000000  \
	   8.140000000000001   -8.140000000000001    0.000000000000000  \
	   0.000000000000000    0.000000000000000   40.700000000000003 
lattice-minimize  \
	dirUpdateScheme      L-BFGS \
	linminMethod         DirUpdateRecommended \
	nIterations          0 \
	history              15 \
	knormThreshold       0 \
	energyDiffThreshold  1e-06 \
	nEnergyDiff          2 \
	alphaTstart          1 \
	alphaTmin            1e-10 \
	updateTestStepSize   yes \
	alphaTreduceFactor   0.1 \
	alphaTincreaseFactor 3 \
	nAlphaAdjustMax      3 \
	wolfeEnergy          0.0001 \
	wolfeGradient        0.9 \
	fdTest               no
lcao-params -1 1e-06 0.001
pcm-variant GLSSA13
spintype z-spin
subspace-rotation-factor 1 yes
symmetries none
symmetry-threshold 0.0001


Applied RMS atom displacement 0 bohrs to make symmetries exact.

---------- Initializing the Grid ----------
R = 
[         8.14         8.14            0  ]
[         8.14        -8.14            0  ]
[            0            0         40.7  ]
unit cell volume = 5393.53
G =
[   0.385945   0.385945         -0  ]
[   0.385945  -0.385945         -0  ]
[         -0         -0   0.154378  ]
Minimum fftbox size, Smin = [  60  60  204  ]
Chosen fftbox size, S = [  60  60  210  ]

---------- Exchange Correlation functional ----------
Initialized LibXC exchange functional 'Hammer, Hansen, and Norskov'
Initialized LibXC correlation functional 'Perdew, Burke & Ernzerhof'

---------- Setting up pseudopotentials ----------
Width of ionic core gaussian charges (only for fluid interactions / plotting) set to 0

Reading pseudopotential file '/data2/jt577/jdftx_eat_withLibXC/build/pseudopotentials/SG15/Ni_ONCV_PBE.upf':
  'Ni' pseudopotential, 'PBE' functional
  Generated using ONCVPSP code by D. R. Hamann
  Author: Martin Schlipf and Francois Gygi  Date: 150915.
  18 valence electrons, 4 orbitals, 6 projectors, 1292 radial grid points, with lMax = 2
  Transforming local potential to a uniform radial grid of dG=0.02 with 1419 points.
  Transforming nonlocal projectors to a uniform radial grid of dG=0.02 with 528 points.
    3S    l: 0   occupation:  2.0   eigenvalue: -4.081355
    3P    l: 1   occupation:  6.0   eigenvalue: -2.623460
    4S    l: 0   occupation:  2.0   eigenvalue: -0.207378
    3D    l: 2   occupation:  8.0   eigenvalue: -0.326118
  Transforming atomic orbitals to a uniform radial grid of dG=0.02 with 528 points.
  WARNING: large normalization error in atomic orbital 1s (integral: 0.000006).
  Core radius for overlap checks: 1.99 bohrs.
  Reading pulay file /data2/jt577/jdftx_eat_withLibXC/build/pseudopotentials/SG15/Ni_ONCV_PBE.pulay ... using dE_dnG = -7.250568e-04 computed for Ecut = 30.

Reading pseudopotential file '/data2/jt577/jdftx_eat_withLibXC/build/pseudopotentials/SG15/V_ONCV_PBE.upf':
  'V' pseudopotential, 'PBE' functional
  Generated using ONCVPSP code by D. R. Hamann
  Author: Martin Schlipf and Francois Gygi  Date: 150915.
  13 valence electrons, 4 orbitals, 6 projectors, 1536 radial grid points, with lMax = 2
  Transforming local potential to a uniform radial grid of dG=0.02 with 1419 points.
  Transforming nonlocal projectors to a uniform radial grid of dG=0.02 with 528 points.
    3S    l: 0   occupation:  2.0   eigenvalue: -2.581105
    3P    l: 1   occupation:  6.0   eigenvalue: -1.618486
    4S    l: 0   occupation:  2.0   eigenvalue: -0.172804
    3D    l: 2   occupation:  3.0   eigenvalue: -0.189795
  Transforming atomic orbitals to a uniform radial grid of dG=0.02 with 528 points.
  Core radius for overlap checks: 1.80 bohrs.
  Reading pulay file /data2/jt577/jdftx_eat_withLibXC/build/pseudopotentials/SG15/V_ONCV_PBE.pulay ... using dE_dnG = -1.698632e-04 computed for Ecut = 30.

Reading pseudopotential file '/data2/jt577/jdftx_eat_withLibXC/build/pseudopotentials/SG15/Cr_ONCV_PBE.upf':
  'Cr' pseudopotential, 'PBE' functional
  Generated using ONCVPSP code by D. R. Hamann
  Author: Martin Schlipf and Francois Gygi  Date: 150915.
  14 valence electrons, 4 orbitals, 6 projectors, 1160 radial grid points, with lMax = 2
  Transforming local potential to a uniform radial grid of dG=0.02 with 1419 points.
  Transforming nonlocal projectors to a uniform radial grid of dG=0.02 with 528 points.
    3S    l: 0   occupation:  2.0   eigenvalue: -2.865131
    3P    l: 1   occupation:  6.0   eigenvalue: -1.810600
    4S    l: 0   occupation:  2.0   eigenvalue: -0.180525
    3D    l: 2   occupation:  4.0   eigenvalue: -0.220312
  Transforming atomic orbitals to a uniform radial grid of dG=0.02 with 528 points.
  WARNING: large normalization error in atomic orbital 1s (integral: 0.000001).
  Core radius for overlap checks: 2.10 bohrs.
  Reading pulay file /data2/jt577/jdftx_eat_withLibXC/build/pseudopotentials/SG15/Cr_ONCV_PBE.pulay ... using dE_dnG = -9.817895e-06 computed for Ecut = 30.

Reading pseudopotential file '/data2/jt577/jdftx_eat_withLibXC/build/pseudopotentials/SG15/Co_ONCV_PBE.upf':
  'Co' pseudopotential, 'PBE' functional
  Generated using ONCVPSP code by D. R. Hamann
  Author: Martin Schlipf and Francois Gygi  Date: 150915.
  17 valence electrons, 4 orbitals, 6 projectors, 1388 radial grid points, with lMax = 2
  Transforming local potential to a uniform radial grid of dG=0.02 with 1419 points.
  Transforming nonlocal projectors to a uniform radial grid of dG=0.02 with 528 points.
    3S    l: 0   occupation:  2.0   eigenvalue: -3.763303
    3P    l: 1   occupation:  6.0   eigenvalue: -2.412101
    4S    l: 0   occupation:  2.0   eigenvalue: -0.201022
    3D    l: 2   occupation:  7.0   eigenvalue: -0.301498
  Transforming atomic orbitals to a uniform radial grid of dG=0.02 with 528 points.
  Core radius for overlap checks: 1.94 bohrs.
  Reading pulay file /data2/jt577/jdftx_eat_withLibXC/build/pseudopotentials/SG15/Co_ONCV_PBE.pulay ... using dE_dnG = -9.787391e-05 computed for Ecut = 30.

Reading pseudopotential file '/data2/jt577/jdftx_eat_withLibXC/build/pseudopotentials/SG15/O_ONCV_PBE.upf':
  'O' pseudopotential, 'PBE' functional
  Generated using ONCVPSP code by D. R. Hamann
  Author: Martin Schlipf and Francois Gygi  Date: 150915.
  6 valence electrons, 2 orbitals, 4 projectors, 936 radial grid points, with lMax = 1
  Transforming local potential to a uniform radial grid of dG=0.02 with 1419 points.
  Transforming nonlocal projectors to a uniform radial grid of dG=0.02 with 528 points.
    2S    l: 0   occupation:  2.0   eigenvalue: -0.880572
    2P    l: 1   occupation:  4.0   eigenvalue: -0.331869
  Transforming atomic orbitals to a uniform radial grid of dG=0.02 with 528 points.
  Core radius for overlap checks: 1.29 bohrs.
  Reading pulay file /data2/jt577/jdftx_eat_withLibXC/build/pseudopotentials/SG15/O_ONCV_PBE.pulay ... using dE_dnG = -8.209514e-03 computed for Ecut = 30.

Initialized 5 species with 33 total atoms.

Folded 1 k-points by 3x3x1 to 9 k-points.

---------- Setting up k-points, bands, fillings ----------
No reducable k-points. 
Computing the number of bands and number of electrons
Calculating initial fillings.
nElectrons: 353.000000   nBands: 228   nStates: 18

----- Setting up reduced wavefunction bases (one per k-point) -----
average nbasis = 42312.000 , ideal nbasis = 42330.081

---------- Setting up ewald sum ----------
Optimum gaussian width for ewald sums = 3.906449 bohr.
Real space sum over 605 unit cells with max indices [  5  5  2  ]
Reciprocal space sum over 5915 terms with max indices [  6  6  17  ]

---------- Allocating electronic variables ----------
Initializing wave functions:  linear combination of atomic orbitals
Ni (M=1) pseudo-atom majority spin occupations:   s ( 1 0.5 )  p ( 3 )  d ( 5 )
Ni (M=1) pseudo-atom minority spin occupations:   s ( 1 0 )  p ( 3 )  d ( 4.5 )
V (M=1) pseudo-atom majority spin occupations:   s ( 1 0 )  p ( 3 )  d ( 3 )
V (M=1) pseudo-atom minority spin occupations:   s ( 1 0 )  p ( 3 )  d ( 2 )
Cr (M=1) pseudo-atom majority spin occupations:   s ( 1 0 )  p ( 3 )  d ( 3.5 )
Cr (M=1) pseudo-atom minority spin occupations:   s ( 1 0 )  p ( 3 )  d ( 2.5 )
Co (M=1) pseudo-atom majority spin occupations:   s ( 1 0 )  p ( 3 )  d ( 5 )
Co (M=1) pseudo-atom minority spin occupations:   s ( 1 0 )  p ( 3 )  d ( 4 )
O pseudo-atom occupations:   s ( 2 )  p ( 4 )
	FillingsUpdate:  mu: +0.688272034  nElectrons: 353.000000  magneticMoment: [ Abs: 0.96866  Tot: +0.00000 ]
LCAOMinimize: Iter:   0  F: -1954.3530393069752336  |grad|_K:  1.142e-02  alpha:  1.000e+00
	FillingsUpdate:  mu: +0.143219461  nElectrons: 353.000000  magneticMoment: [ Abs: 7.72556  Tot: +0.00000 ]
LCAOMinimize: Iter:   1  F: -1986.1944931771815845  |grad|_K:  3.131e-02  alpha:  9.172e-02  linmin:  4.611e-02  cgtest:  7.549e-02  t[s]:     43.03
LCAOMinimize: 	Bad step direction: g.d > 0.
LCAOMinimize: 	Undoing step.
LCAOMinimize: 	Step failed: resetting search direction.
	FillingsUpdate:  mu: +0.143219461  nElectrons: 353.000000  magneticMoment: [ Abs: 7.72556  Tot: +0.00000 ]
LCAOMinimize: Iter:   2  F: -1986.1944931771815845  |grad|_K:  3.131e-02  alpha:  0.000e+00
	FillingsUpdate:  mu: +0.326031672  nElectrons: 353.000000  magneticMoment: [ Abs: 3.72861  Tot: +0.00000 ]
LCAOMinimize: Iter:   3  F: -1989.2297990978852340  |grad|_K:  2.367e-02  alpha:  4.527e-02  linmin:  1.221e-02  cgtest: -1.081e+00  t[s]:     68.39
	FillingsUpdate:  mu: +0.301294929  nElectrons: 353.000000  magneticMoment: [ Abs: 5.34271  Tot: -0.00000 ]
LCAOMinimize: Iter:   4  F: -1992.3752456602790062  |grad|_K:  1.505e-02  alpha:  1.312e-02  linmin: -1.514e-02  cgtest:  1.252e+00  t[s]:     82.94
LCAOMinimize: Encountered beta<0, resetting CG.
	FillingsUpdate:  mu: +0.290252132  nElectrons: 353.000000  magneticMoment: [ Abs: 6.41725  Tot: +0.00000 ]
LCAOMinimize: Iter:   5  F: -1995.0199600643550184  |grad|_K:  1.305e-02  alpha:  1.694e-02  linmin: -5.044e-02  cgtest:  1.009e+00  t[s]:     97.21
LCAOMinimize: Encountered beta<0, resetting CG.
LCAOMinimize: 	Wrong curvature in test step, increasing alphaT to 5.080509e-02.
	FillingsUpdate:  mu: +0.253562215  nElectrons: 353.000000  magneticMoment: [ Abs: 7.72438  Tot: -0.00000 ]
LCAOMinimize: Iter:   6  F: -1997.8139074099387926  |grad|_K:  1.550e-02  alpha: -3.298e-01  linmin: -6.259e-02  cgtest:  7.380e-01  t[s]:    110.69
LCAOMinimize: 	Step increased F by 2.553770e+02, reducing alpha to 2.180568e-02.
	FillingsUpdate:  mu: +0.382435818  nElectrons: 353.000000  magneticMoment: [ Abs: 8.35351  Tot: -0.00000 ]
LCAOMinimize: Iter:   7  F: -1998.0125534436037924  |grad|_K:  4.580e-02  alpha:  2.181e-02  linmin:  5.530e-02  cgtest: -2.304e-01  t[s]:    135.51
LCAOMinimize: 	Bad step direction: g.d > 0.
LCAOMinimize: 	Undoing step.
LCAOMinimize: 	Step failed: resetting search direction.
	FillingsUpdate:  mu: +0.382435818  nElectrons: 353.000000  magneticMoment: [ Abs: 8.35351  Tot: -0.00000 ]
LCAOMinimize: Iter:   8  F: -1998.0125534436037924  |grad|_K:  4.580e-02  alpha:  0.000e+00
	FillingsUpdate:  mu: -0.002047749  nElectrons: 353.000000  magneticMoment: [ Abs: 10.38005  Tot: -0.00000 ]
LCAOMinimize: Iter:   9  F: -2006.0139624970806835  |grad|_K:  1.136e-02  alpha:  1.295e-02  linmin: -4.657e-04  cgtest: -1.460e+00  t[s]:    160.22
LCAOMinimize: 	Wrong curvature in test step, increasing alphaT to 3.885546e-02.
	FillingsUpdate:  mu: +0.100128202  nElectrons: 353.000000  magneticMoment: [ Abs: 11.10511  Tot: +0.00000 ]
LCAOMinimize: Iter:  10  F: -2007.5996645148422886  |grad|_K:  1.659e-02  alpha: -3.033e+01  linmin: -3.810e-02  cgtest:  6.501e-01  t[s]:    173.73
LCAOMinimize: 	Step increased F by 3.093185e+02, reducing alpha to 2.411031e-02.
LCAOMinimize: 	Step increased F by 2.134974e-01, reducing alpha to 2.411031e-03.
	FillingsUpdate:  mu: +0.197592412  nElectrons: 353.000000  magneticMoment: [ Abs: 12.14746  Tot: +0.00000 ]
LCAOMinimize: Iter:  11  F: -2008.6173758898657979  |grad|_K:  1.201e-02  alpha:  2.411e-03  linmin: -3.867e-02  cgtest:  8.105e-01  t[s]:    208.97
LCAOMinimize: Encountered beta<0, resetting CG.
LCAOMinimize: 	Predicted alpha/alphaT>3.000000, increasing alphaT to 7.233092e-03.
	FillingsUpdate:  mu: +0.091278570  nElectrons: 353.000000  magneticMoment: [ Abs: 12.38094  Tot: -0.00000 ]
LCAOMinimize: Iter:  12  F: -2010.2159521070618666  |grad|_K:  1.076e-02  alpha:  1.819e-02  linmin: -3.178e-02  cgtest:  5.166e-01  t[s]:    227.89
	FillingsUpdate:  mu: +0.192897425  nElectrons: 353.000000  magneticMoment: [ Abs: 12.16251  Tot: +0.00000 ]
LCAOMinimize: Iter:  13  F: -2011.2576700780582541  |grad|_K:  1.536e-02  alpha:  1.508e-02  linmin:  3.435e-03  cgtest: -1.306e-01  t[s]:    242.57
LCAOMinimize: 	Wrong curvature in test step, increasing alphaT to 4.524427e-02.
	FillingsUpdate:  mu: +0.279080228  nElectrons: 353.000000  magneticMoment: [ Abs: 10.03487  Tot: -0.00000 ]
LCAOMinimize: Iter:  14  F: -2014.5449013901047692  |grad|_K:  2.488e-02  alpha: -6.348e-02  linmin: -1.411e-02  cgtest:  8.348e-01  t[s]:    256.28
LCAOMinimize: 	Step increased F by 4.536718e+02, reducing alpha to 3.041718e-02.
LCAOMinimize: 	Step increased F by 9.631543e+01, reducing alpha to 3.041718e-03.
	FillingsUpdate:  mu: +0.090615479  nElectrons: 353.000000  magneticMoment: [ Abs: 10.09195  Tot: -0.00000 ]
LCAOMinimize: Iter:  15  F: -2016.9760521246898861  |grad|_K:  1.415e-02  alpha:  3.042e-03  linmin: -4.496e-02  cgtest:  1.021e+00  t[s]:    291.47
LCAOMinimize: Encountered beta<0, resetting CG.
LCAOMinimize: 	Predicted alpha/alphaT>3.000000, increasing alphaT to 9.125153e-03.
	FillingsUpdate:  mu: +0.084466158  nElectrons: 353.000000  magneticMoment: [ Abs: 10.79392  Tot: +0.00000 ]
LCAOMinimize: Iter:  16  F: -2018.1556853580450479  |grad|_K:  6.143e-03  alpha:  1.170e-02  linmin: -8.619e-02  cgtest:  2.162e-01  t[s]:    310.27
LCAOMinimize: 	Wrong curvature in test step, increasing alphaT to 3.510710e-02.
	FillingsUpdate:  mu: +0.079433651  nElectrons: 353.000000  magneticMoment: [ Abs: 10.93774  Tot: +0.00000 ]
LCAOMinimize: Iter:  17  F: -2018.6192135758683435  |grad|_K:  5.814e-03  alpha: -6.341e-01  linmin: -1.235e-01  cgtest:  8.834e-01  t[s]:    323.98
LCAOMinimize: 	Step increased F by 8.418185e+00, reducing alpha to 1.222766e-02.
	FillingsUpdate:  mu: +0.075745980  nElectrons: 353.000000  magneticMoment: [ Abs: 11.06364  Tot: -0.00000 ]
LCAOMinimize: Iter:  18  F: -2019.0395165574234397  |grad|_K:  5.329e-03  alpha:  1.223e-02  linmin: -1.328e-01  cgtest:  8.886e-01  t[s]:    348.86
LCAOMinimize: 	Predicted alpha/alphaT>3.000000, increasing alphaT to 3.668298e-02.
LCAOMinimize: 	Step increased F by 2.734969e+00, reducing alpha to 9.876048e-03.
	FillingsUpdate:  mu: +0.065222993  nElectrons: 353.000000  magneticMoment: [ Abs: 11.16186  Tot: -0.00000 ]
LCAOMinimize: Iter:  19  F: -2019.3088957296417902  |grad|_K:  4.853e-03  alpha:  9.876e-03  linmin: -1.219e-01  cgtest:  9.445e-01  t[s]:    378.61
LCAOMinimize: Encountered beta<0, resetting CG.
LCAOMinimize: 	Predicted alpha/alphaT>3.000000, increasing alphaT to 2.962814e-02.
LCAOMinimize: 	Predicted alpha/alphaT>3.000000, increasing alphaT to 8.888443e-02.
	FillingsUpdate:  mu: +0.084293830  nElectrons: 353.000000  magneticMoment: [ Abs: 11.54184  Tot: -0.00000 ]
LCAOMinimize: Iter:  20  F: -2019.9613861141976940  |grad|_K:  3.148e-03  alpha:  3.774e-02  linmin: -5.374e-02  cgtest:  5.406e-01  t[s]:    402.18
	FillingsUpdate:  mu: +0.043707060  nElectrons: 353.000000  magneticMoment: [ Abs: 11.25122  Tot: -0.00000 ]
LCAOMinimize: Iter:  21  F: -2020.1762635850441256  |grad|_K:  4.790e-03  alpha:  4.356e-02  linmin:  1.666e-03  cgtest: -4.782e-02  t[s]:    417.07
	FillingsUpdate:  mu: +0.004824667  nElectrons: 353.000000  magneticMoment: [ Abs: 11.69877  Tot: -0.00000 ]
LCAOMinimize: Iter:  22  F: -2020.3950718372118445  |grad|_K:  2.869e-03  alpha:  1.788e-02  linmin: -7.022e-03  cgtest:  3.283e-01  t[s]:    431.89
	FillingsUpdate:  mu: +0.070389334  nElectrons: 353.000000  magneticMoment: [ Abs: 12.63364  Tot: -0.00000 ]
LCAOMinimize: Iter:  23  F: -2020.4967850038965480  |grad|_K:  2.213e-03  alpha:  2.663e-02  linmin:  1.400e-02  cgtest: -2.289e-01  t[s]:    446.61
	FillingsUpdate:  mu: +0.075293065  nElectrons: 353.000000  magneticMoment: [ Abs: 13.21855  Tot: -0.00000 ]
LCAOMinimize: Iter:  24  F: -2020.5468866259723200  |grad|_K:  2.845e-03  alpha:  3.189e-02  linmin: -1.436e-04  cgtest:  7.931e-01  t[s]:    461.41
	FillingsUpdate:  mu: +0.040325578  nElectrons: 353.000000  magneticMoment: [ Abs: 13.04039  Tot: +0.00000 ]
LCAOMinimize: Iter:  25  F: -2020.6115643037946938  |grad|_K:  1.248e-03  alpha:  1.910e-02  linmin:  1.410e-03  cgtest: -2.214e-01  t[s]:    476.16
LCAOMinimize: 	Predicted alpha/alphaT>3.000000, increasing alphaT to 5.731198e-02.
	FillingsUpdate:  mu: +0.042222587  nElectrons: 353.000000  magneticMoment: [ Abs: 13.86265  Tot: +0.00000 ]
LCAOMinimize: Iter:  26  F: -2020.6565781852498276  |grad|_K:  1.949e-03  alpha:  6.321e-02  linmin:  4.560e-04  cgtest:  4.925e-03  t[s]:    495.03
	FillingsUpdate:  mu: +0.049704111  nElectrons: 353.000000  magneticMoment: [ Abs: 14.99609  Tot: +0.00000 ]
LCAOMinimize: Iter:  27  F: -2020.6901988707027158  |grad|_K:  1.203e-03  alpha:  2.087e-02  linmin: -3.455e-04  cgtest:  3.996e-01  t[s]:    509.70
	FillingsUpdate:  mu: +0.048788850  nElectrons: 353.000000  magneticMoment: [ Abs: 15.64936  Tot: +0.00000 ]
LCAOMinimize: Iter:  28  F: -2020.7250800064136911  |grad|_K:  1.130e-03  alpha:  5.046e-02  linmin: -2.409e-04  cgtest:  2.730e-02  t[s]:    524.50
	FillingsUpdate:  mu: +0.055524950  nElectrons: 353.000000  magneticMoment: [ Abs: 16.12548  Tot: +0.00000 ]
LCAOMinimize: Iter:  29  F: -2020.7419327337090635  |grad|_K:  1.193e-03  alpha:  3.012e-02  linmin:  3.995e-04  cgtest: -1.257e-01  t[s]:    539.48
LCAOMinimize: 	Predicted alpha/alphaT>3.000000, increasing alphaT to 9.035022e-02.
	FillingsUpdate:  mu: +0.066337345  nElectrons: 353.000000  magneticMoment: [ Abs: 18.89656  Tot: +0.00000 ]
LCAOMinimize: Iter:  30  F: -2020.8167399322035180  |grad|_K:  1.113e-03  alpha:  1.115e-01  linmin: -1.275e-03  cgtest:  3.637e-01  t[s]:    558.66
LCAOMinimize: None of the convergence criteria satisfied after 30 iterations.


---- Citations for features of the code used in this run ----

   Software package:
      R. Sundararaman, K. Letchworth-Weaver, K.A. Schwarz, D. Gunceler, Y. Ozhabes and T.A. Arias, 'JDFTx: software for joint density-functional theory', SoftwareX 6, 278 (2017)

   Simplified rotationally-invariant DFT+U:
      S. L. Dudarev et al., Phys. Rev. B 57, 1505 (1998)

   LibXC library of exchange-correlation functions:
      M. A. L. Marques, M. J. T. Oliveira and T. Burnus, Comput. Phys. Commun. 183, 2272 (2012)

   Hammer, Hansen, and Norskov exchange functional:
      B. Hammer, L. B. Hansen, and J. K. Nørskov, Phys. Rev. B 59, 7413 (1999)

   Perdew, Burke & Ernzerhof correlation functional:
      J. P. Perdew, K. Burke, and M. Ernzerhof, Phys. Rev. Lett. 77, 3865 (1996)

   Pseudopotentials:
      M Schlipf and F Gygi, Comput. Phys. Commun. 196, 36 (2015)

   Total energy minimization with Auxiliary Hamiltonian:
      C. Freysoldt, S. Boeck, and J. Neugebauer, Phys. Rev. B 79, 241103(R) (2009)

This list may not be complete. Please suggest additional citations or
report any other bugs at https://github.com/shankar1729/jdftx/issues

Initialization completed successfully at t[s]:    564.93


-------- Electronic minimization -----------
	FillingsUpdate:  mu: +0.066337441  nElectrons: 353.000000  magneticMoment: [ Abs: 18.89656  Tot: +0.00000 ]
ElecMinimize: Iter:   0  F: -2020.816739932199880  |grad|_K:  1.049e-03  alpha:  1.000e+00
	FillingsUpdate:  mu: +0.202284396  nElectrons: 353.000000  magneticMoment: [ Abs: 17.32919  Tot: -0.00000 ]
	SubspaceRotationAdjust: set factor to 0.993
ElecMinimize: Iter:   1  F: -2070.372551760814986  |grad|_K:  1.225e-03  alpha:  4.737e-01  linmin:  2.134e-02  t[s]:    656.73
	FillingsUpdate:  mu: +1.161314224  nElectrons: 353.000000  magneticMoment: [ Abs: 22.71102  Tot: +0.00000 ]
	SubspaceRotationAdjust: set factor to 0.569
ElecMinimize: Iter:   2  F: -2072.502680335924651  |grad|_K:  2.042e-03  alpha:  1.565e-01  linmin:  7.005e-03  t[s]:    732.82
	FillingsUpdate:  mu: +0.897060825  nElectrons: 353.000000  magneticMoment: [ Abs: 24.50698  Tot: +0.00000 ]
	SubspaceRotationAdjust: set factor to 0.529
ElecMinimize: Iter:   3  F: -2077.054928378766363  |grad|_K:  1.015e-03  alpha:  1.138e-02  linmin: -5.537e-04  t[s]:    810.42
	FillingsUpdate:  mu: +0.902913457  nElectrons: 353.000000  magneticMoment: [ Abs: 25.36636  Tot: -0.00000 ]
	SubspaceRotationAdjust: set factor to 0.506
ElecMinimize: Iter:   4  F: -2081.347338716357172  |grad|_K:  8.736e-04  alpha:  2.076e-02  linmin: -8.512e-04  t[s]:    888.29
ElecMinimize: 	Predicted alpha/alphaT>3.000000, increasing alphaT to 6.226524e-02.
	FillingsUpdate:  mu: +0.182791325  nElectrons: 353.000000  magneticMoment: [ Abs: 21.28232  Tot: -0.00000 ]
	SubspaceRotationAdjust: set factor to 0.315
ElecMinimize: Iter:   5  F: -2092.923107267408341  |grad|_K:  9.941e-04  alpha:  8.746e-02  linmin:  9.596e-04  t[s]:    993.22
	FillingsUpdate:  mu: -0.034027600  nElectrons: 353.000000  magneticMoment: [ Abs: 20.46094  Tot: +0.00000 ]
	SubspaceRotationAdjust: set factor to 0.258
ElecMinimize: Iter:   6  F: -2097.001225337221967  |grad|_K:  6.746e-04  alpha:  2.029e-02  linmin: -2.350e-03  t[s]:   1070.39
ElecMinimize: 	Predicted alpha/alphaT>3.000000, increasing alphaT to 6.087706e-02.
	FillingsUpdate:  mu: +0.090154488  nElectrons: 353.000000  magneticMoment: [ Abs: 21.90665  Tot: +0.00000 ]
	SubspaceRotationAdjust: set factor to 0.24
ElecMinimize: Iter:   7  F: -2101.892863252594452  |grad|_K:  5.113e-04  alpha:  3.666e-02  linmin:  5.784e-04  t[s]:   1178.27
	FillingsUpdate:  mu: +0.304360110  nElectrons: 353.000000  magneticMoment: [ Abs: 22.01469  Tot: +0.00000 ]
	SubspaceRotationAdjust: set factor to 0.161
ElecMinimize: Iter:   8  F: -2103.494157696428829  |grad|_K:  6.556e-04  alpha:  5.939e-02  linmin:  4.635e-03  t[s]:   1256.00
	FillingsUpdate:  mu: +0.306840606  nElectrons: 353.000000  magneticMoment: [ Abs: 22.01178  Tot: +0.00000 ]
	SubspaceRotationAdjust: set factor to 0.122
	SubspaceRotationAdjust: resetting CG because factor has changed by 0.121525
ElecMinimize: 	State modified externally: resetting search direction.
ElecMinimize: Iter:   9  F: -2103.495753770996998  |grad|_K:  5.219e-04  alpha:  2.897e-04
ElecMinimize: 	Predicted alpha/alphaT>3.000000, increasing alphaT to 8.690391e-04.
ElecMinimize: 	Predicted alpha/alphaT>3.000000, increasing alphaT to 2.607117e-03.
ElecMinimize: 	Predicted alpha/alphaT>3.000000, increasing alphaT to 7.821352e-03.
	FillingsUpdate:  mu: +0.142736621  nElectrons: 353.000000  magneticMoment: [ Abs: 23.10737  Tot: -0.00000 ]
	SubspaceRotationAdjust: set factor to 0.154
ElecMinimize: Iter:  10  F: -2108.710051678306172  |grad|_K:  1.902e-04  alpha:  1.166e-01  linmin: -1.947e-02  t[s]:   1487.44
	FillingsUpdate:  mu: +0.199634377  nElectrons: 353.000000  magneticMoment: [ Abs: 23.50514  Tot: +0.00000 ]
	SubspaceRotationAdjust: set factor to 0.195
ElecMinimize: Iter:  11  F: -2110.272497576577734  |grad|_K:  1.137e-04  alpha:  2.164e-01  linmin:  8.800e-04  t[s]:   1562.75
	FillingsUpdate:  mu: +0.228954868  nElectrons: 353.000000  magneticMoment: [ Abs: 23.99381  Tot: +0.00000 ]
	SubspaceRotationAdjust: set factor to 0.143
ElecMinimize: Iter:  12  F: -2110.658288596935563  |grad|_K:  1.272e-04  alpha:  1.796e-01  linmin: -2.592e-04  t[s]:   1639.76
	FillingsUpdate:  mu: +0.144588820  nElectrons: 353.000000  magneticMoment: [ Abs: 24.22101  Tot: -0.00000 ]
	SubspaceRotationAdjust: set factor to 0.103
ElecMinimize: Iter:  13  F: -2111.059798416524245  |grad|_K:  7.034e-05  alpha:  1.351e-01  linmin: -5.205e-05  t[s]:   1717.04
	FillingsUpdate:  mu: +0.107985724  nElectrons: 353.000000  magneticMoment: [ Abs: 24.60845  Tot: +0.00000 ]
	SubspaceRotationAdjust: set factor to 0.118
ElecMinimize: Iter:  14  F: -2111.367085670292909  |grad|_K:  5.552e-05  alpha:  3.660e-01  linmin:  1.378e-04  t[s]:   1795.28
	FillingsUpdate:  mu: +0.089224621  nElectrons: 353.000000  magneticMoment: [ Abs: 24.97431  Tot: -0.00000 ]
	SubspaceRotationAdjust: set factor to 0.138
ElecMinimize: Iter:  15  F: -2111.571655045258467  |grad|_K:  4.732e-05  alpha:  3.960e-01  linmin: -4.307e-05  t[s]:   1872.58
	FillingsUpdate:  mu: +0.104538608  nElectrons: 353.000000  magneticMoment: [ Abs: 25.75030  Tot: -0.00000 ]
	SubspaceRotationAdjust: set factor to 0.16
ElecMinimize: Iter:  16  F: -2111.732374039665501  |grad|_K:  4.231e-05  alpha:  4.054e-01  linmin: -1.357e-06  t[s]:   1951.52
	FillingsUpdate:  mu: +0.116588472  nElectrons: 353.000000  magneticMoment: [ Abs: 26.99078  Tot: +0.00000 ]
	SubspaceRotationAdjust: set factor to 0.183
ElecMinimize: Iter:  17  F: -2111.892309489413947  |grad|_K:  4.800e-05  alpha:  5.140e-01  linmin:  6.839e-06  t[s]:   2029.60
	FillingsUpdate:  mu: +0.106880145  nElectrons: 353.000000  magneticMoment: [ Abs: 27.57329  Tot: -0.00000 ]
	SubspaceRotationAdjust: set factor to 0.157
ElecMinimize: Iter:  18  F: -2112.036816286077283  |grad|_K:  6.456e-05  alpha:  3.677e-01  linmin: -6.909e-06  t[s]:   2108.84
	FillingsUpdate:  mu: +0.131189468  nElectrons: 353.000000  magneticMoment: [ Abs: 27.98653  Tot: +0.00000 ]
	SubspaceRotationAdjust: set factor to 0.104
ElecMinimize: Iter:  19  F: -2112.094385661598153  |grad|_K:  5.690e-05  alpha:  9.505e-02  linmin:  1.233e-04  t[s]:   2185.60
	FillingsUpdate:  mu: +0.121995153  nElectrons: 353.000000  magneticMoment: [ Abs: 28.86864  Tot: -0.00000 ]
	SubspaceRotationAdjust: set factor to 0.126
ElecMinimize: Iter:  20  F: -2112.192162723411002  |grad|_K:  5.463e-05  alpha:  2.466e-01  linmin:  3.557e-04  t[s]:   2263.50
	FillingsUpdate:  mu: +0.120679838  nElectrons: 353.000000  magneticMoment: [ Abs: 28.87878  Tot: -0.00000 ]
	SubspaceRotationAdjust: set factor to 0.162
ElecMinimize: Iter:  21  F: -2112.192883369451920  |grad|_K:  5.590e-05  alpha:  2.887e-03  linmin: -5.125e-04  t[s]:   2340.72
ElecMinimize: 	Predicted alpha/alphaT>3.000000, increasing alphaT to 8.659964e-03.
ElecMinimize: 	Predicted alpha/alphaT>3.000000, increasing alphaT to 2.597989e-02.
ElecMinimize: 	Predicted alpha/alphaT>3.000000, increasing alphaT to 7.793968e-02.
	FillingsUpdate:  mu: +0.102645569  nElectrons: 353.000000  magneticMoment: [ Abs: 29.24444  Tot: -0.00000 ]
	SubspaceRotationAdjust: set factor to 0.143
ElecMinimize: Iter:  22  F: -2112.233084533160763  |grad|_K:  5.020e-05  alpha:  8.697e-02  linmin:  2.926e-03  t[s]:   2479.76
ElecMinimize: 	Bad step direction: g.d > 0.
ElecMinimize: 	Undoing step.
ElecMinimize: 	Step failed: resetting search direction.
	FillingsUpdate:  mu: +0.102645569  nElectrons: 353.000000  magneticMoment: [ Abs: 29.24444  Tot: -0.00000 ]
	SubspaceRotationAdjust: set factor to 0.133
ElecMinimize: Iter:  23  F: -2112.233084533158944  |grad|_K:  4.849e-05  alpha:  0.000e+00
	FillingsUpdate:  mu: +0.117472348  nElectrons: 353.000000  magneticMoment: [ Abs: 29.28565  Tot: +0.00000 ]
	SubspaceRotationAdjust: set factor to 0.0895
ElecMinimize: Iter:  24  F: -2112.282061537270238  |grad|_K:  3.505e-05  alpha:  1.183e-01  linmin: -3.584e-03  t[s]:   2599.84
	FillingsUpdate:  mu: +0.097609997  nElectrons: 353.000000  magneticMoment: [ Abs: 29.20409  Tot: -0.00000 ]
	SubspaceRotationAdjust: set factor to 0.0766
ElecMinimize: Iter:  25  F: -2112.335322931038718  |grad|_K:  2.175e-05  alpha:  2.371e-01  linmin: -3.017e-03  t[s]:   2676.96
	FillingsUpdate:  mu: +0.102455932  nElectrons: 353.000000  magneticMoment: [ Abs: 29.44050  Tot: -0.00000 ]
	SubspaceRotationAdjust: set factor to 0.0859
ElecMinimize: Iter:  26  F: -2112.378863618062041  |grad|_K:  1.738e-05  alpha:  5.069e-01  linmin: -7.617e-04  t[s]:   2754.62
	FillingsUpdate:  mu: +0.102277291  nElectrons: 353.000000  magneticMoment: [ Abs: 29.67603  Tot: +0.00000 ]
	SubspaceRotationAdjust: set factor to 0.0984
ElecMinimize: Iter:  27  F: -2112.401005640191670  |grad|_K:  1.432e-05  alpha:  4.157e-01  linmin: -1.033e-04  t[s]:   2831.41
	FillingsUpdate:  mu: +0.094894661  nElectrons: 353.000000  magneticMoment: [ Abs: 29.94086  Tot: -0.00000 ]
	SubspaceRotationAdjust: set factor to 0.101
ElecMinimize: Iter:  28  F: -2112.416515930111018  |grad|_K:  1.434e-05  alpha:  4.337e-01  linmin:  2.096e-04  t[s]:   2909.47
	FillingsUpdate:  mu: +0.100865957  nElectrons: 353.000000  magneticMoment: [ Abs: 30.25670  Tot: +0.00000 ]
	SubspaceRotationAdjust: set factor to 0.104
ElecMinimize: Iter:  29  F: -2112.429429092037026  |grad|_K:  1.298e-05  alpha:  3.666e-01  linmin: -2.966e-04  t[s]:   2984.84
	FillingsUpdate:  mu: +0.102329053  nElectrons: 353.000000  magneticMoment: [ Abs: 30.61289  Tot: +0.00000 ]
	SubspaceRotationAdjust: set factor to 0.1
ElecMinimize: Iter:  30  F: -2112.440563522042339  |grad|_K:  1.146e-05  alpha:  3.749e-01  linmin:  4.196e-04  t[s]:   3059.55
	FillingsUpdate:  mu: +0.102810431  nElectrons: 353.000000  magneticMoment: [ Abs: 30.94990  Tot: -0.00000 ]
	SubspaceRotationAdjust: set factor to 0.101
ElecMinimize: Iter:  31  F: -2112.449866582957384  |grad|_K:  1.079e-05  alpha:  4.147e-01  linmin: -2.710e-04  t[s]:   3137.82
	FillingsUpdate:  mu: +0.096651783  nElectrons: 353.000000  magneticMoment: [ Abs: 31.29992  Tot: +0.00000 ]
	SubspaceRotationAdjust: set factor to 0.105
ElecMinimize: Iter:  32  F: -2112.458458005090506  |grad|_K:  1.147e-05  alpha:  4.167e-01  linmin: -4.137e-05  t[s]:   3215.60
	FillingsUpdate:  mu: +0.095071651  nElectrons: 353.000000  magneticMoment: [ Abs: 31.76113  Tot: -0.00000 ]
	SubspaceRotationAdjust: set factor to 0.107
ElecMinimize: Iter:  33  F: -2112.468582908531971  |grad|_K:  1.092e-05  alpha:  4.396e-01  linmin: -1.908e-04  t[s]:   3291.93
	FillingsUpdate:  mu: +0.093118814  nElectrons: 353.000000  magneticMoment: [ Abs: 32.14381  Tot: +0.00000 ]
	SubspaceRotationAdjust: set factor to 0.107
ElecMinimize: Iter:  34  F: -2112.476457786772698  |grad|_K:  9.737e-06  alpha:  3.721e-01  linmin:  6.667e-05  t[s]:   3369.85
	FillingsUpdate:  mu: +0.096642150  nElectrons: 353.000000  magneticMoment: [ Abs: 32.42948  Tot: -0.00000 ]
	SubspaceRotationAdjust: set factor to 0.105
ElecMinimize: Iter:  35  F: -2112.482570262037825  |grad|_K:  8.882e-06  alpha:  3.721e-01  linmin: -3.060e-05  t[s]:   3446.50
	FillingsUpdate:  mu: +0.094724589  nElectrons: 353.000000  magneticMoment: [ Abs: 32.68749  Tot: -0.00000 ]
	SubspaceRotationAdjust: set factor to 0.102
ElecMinimize: Iter:  36  F: -2112.488142809820147  |grad|_K:  8.460e-06  alpha:  4.042e-01  linmin: -1.359e-04  t[s]:   3523.05
	FillingsUpdate:  mu: +0.098238051  nElectrons: 353.000000  magneticMoment: [ Abs: 32.92171  Tot: +0.00000 ]
	SubspaceRotationAdjust: set factor to 0.0976
ElecMinimize: Iter:  37  F: -2112.492902593060535  |grad|_K:  8.627e-06  alpha:  3.766e-01  linmin:  3.401e-04  t[s]:   3599.10
	FillingsUpdate:  mu: +0.095689170  nElectrons: 353.000000  magneticMoment: [ Abs: 33.22537  Tot: -0.00000 ]
	SubspaceRotationAdjust: set factor to 0.11
ElecMinimize: Iter:  38  F: -2112.498085823728161  |grad|_K:  8.363e-06  alpha:  4.095e-01  linmin: -2.058e-04  t[s]:   3677.33
	FillingsUpdate:  mu: +0.096421061  nElectrons: 353.000000  magneticMoment: [ Abs: 33.51869  Tot: +0.00000 ]
	SubspaceRotationAdjust: set factor to 0.127
ElecMinimize: Iter:  39  F: -2112.503539694288520  |grad|_K:  8.241e-06  alpha:  4.410e-01  linmin:  1.466e-04  t[s]:   3748.46
	FillingsUpdate:  mu: +0.096523495  nElectrons: 353.000000  magneticMoment: [ Abs: 33.74643  Tot: +0.00000 ]
	SubspaceRotationAdjust: set factor to 0.15
ElecMinimize: Iter:  40  F: -2112.508010738034045  |grad|_K:  7.883e-06  alpha:  3.824e-01  linmin:  2.024e-05  t[s]:   3826.21
	FillingsUpdate:  mu: +0.097745016  nElectrons: 353.000000  magneticMoment: [ Abs: 33.92108  Tot: -0.00000 ]
	SubspaceRotationAdjust: set factor to 0.158
ElecMinimize: Iter:  41  F: -2112.511382588889774  |grad|_K:  7.999e-06  alpha:  3.130e-01  linmin: -7.566e-05  t[s]:   3905.13
	FillingsUpdate:  mu: +0.097735326  nElectrons: 353.000000  magneticMoment: [ Abs: 34.05401  Tot: +0.00000 ]
	SubspaceRotationAdjust: set factor to 0.139
ElecMinimize: Iter:  42  F: -2112.513853215154541  |grad|_K:  7.831e-06  alpha:  2.237e-01  linmin: -6.378e-05  t[s]:   3980.27
	FillingsUpdate:  mu: +0.097540049  nElectrons: 353.000000  magneticMoment: [ Abs: 34.20650  Tot: -0.00000 ]
	SubspaceRotationAdjust: set factor to 0.122
ElecMinimize: Iter:  43  F: -2112.516437888883502  |grad|_K:  6.856e-06  alpha:  2.406e-01  linmin: -1.839e-05  t[s]:   4056.98
	FillingsUpdate:  mu: +0.095113447  nElectrons: 353.000000  magneticMoment: [ Abs: 34.35639  Tot: +0.00000 ]
	SubspaceRotationAdjust: set factor to 0.12
ElecMinimize: Iter:  44  F: -2112.519213107646010  |grad|_K:  6.216e-06  alpha:  3.336e-01  linmin: -3.677e-04  t[s]:   4134.93
	FillingsUpdate:  mu: +0.096909249  nElectrons: 353.000000  magneticMoment: [ Abs: 34.47830  Tot: -0.00000 ]
	SubspaceRotationAdjust: set factor to 0.115
ElecMinimize: Iter:  45  F: -2112.521590106061467  |grad|_K:  6.107e-06  alpha:  3.396e-01  linmin:  7.761e-05  t[s]:   4213.14
	FillingsUpdate:  mu: +0.095540175  nElectrons: 353.000000  magneticMoment: [ Abs: 34.60680  Tot: +0.00000 ]
	SubspaceRotationAdjust: set factor to 0.102
ElecMinimize: Iter:  46  F: -2112.523541097658835  |grad|_K:  5.450e-06  alpha:  3.043e-01  linmin: -1.172e-04  t[s]:   4291.71
	FillingsUpdate:  mu: +0.096993357  nElectrons: 353.000000  magneticMoment: [ Abs: 34.69699  Tot: +0.00000 ]
	SubspaceRotationAdjust: set factor to 0.0941
ElecMinimize: Iter:  47  F: -2112.525105744471148  |grad|_K:  4.864e-06  alpha:  2.986e-01  linmin:  4.344e-05  t[s]:   4369.41
	FillingsUpdate:  mu: +0.095208830  nElectrons: 353.000000  magneticMoment: [ Abs: 34.80942  Tot: +0.00000 ]
	SubspaceRotationAdjust: set factor to 0.102
ElecMinimize: Iter:  48  F: -2112.526558118594039  |grad|_K:  4.329e-06  alpha:  3.535e-01  linmin: -7.462e-05  t[s]:   4445.86
	FillingsUpdate:  mu: +0.095567320  nElectrons: 353.000000  magneticMoment: [ Abs: 34.92359  Tot: -0.00000 ]
	SubspaceRotationAdjust: set factor to 0.117
ElecMinimize: Iter:  49  F: -2112.527941525063852  |grad|_K:  4.163e-06  alpha:  4.207e-01  linmin:  2.295e-05  t[s]:   4524.38
	FillingsUpdate:  mu: +0.097278362  nElectrons: 353.000000  magneticMoment: [ Abs: 35.03106  Tot: -0.00000 ]
	SubspaceRotationAdjust: set factor to 0.129
ElecMinimize: Iter:  50  F: -2112.529164789149490  |grad|_K:  4.253e-06  alpha:  4.062e-01  linmin:  4.589e-05  t[s]:   4604.91
	FillingsUpdate:  mu: +0.096231989  nElectrons: 353.000000  magneticMoment: [ Abs: 35.15971  Tot: +0.00000 ]
	SubspaceRotationAdjust: set factor to 0.138
ElecMinimize: Iter:  51  F: -2112.530330753373619  |grad|_K:  4.303e-06  alpha:  3.736e-01  linmin: -1.683e-04  t[s]:   4682.04
	FillingsUpdate:  mu: +0.098194187  nElectrons: 353.000000  magneticMoment: [ Abs: 35.26478  Tot: -0.00000 ]
	SubspaceRotationAdjust: set factor to 0.149
ElecMinimize: Iter:  52  F: -2112.531547609751215  |grad|_K:  4.355e-06  alpha:  3.704e-01  linmin:  1.344e-04  t[s]:   4757.45
	FillingsUpdate:  mu: +0.098759579  nElectrons: 353.000000  magneticMoment: [ Abs: 35.39897  Tot: -0.00000 ]
	SubspaceRotationAdjust: set factor to 0.185
ElecMinimize: Iter:  53  F: -2112.532762367123269  |grad|_K:  4.326e-06  alpha:  3.733e-01  linmin: -8.934e-05  t[s]:   4834.16
	FillingsUpdate:  mu: +0.098526386  nElectrons: 353.000000  magneticMoment: [ Abs: 35.53905  Tot: +0.00000 ]
	SubspaceRotationAdjust: set factor to 0.22
ElecMinimize: Iter:  54  F: -2112.534069347983859  |grad|_K:  4.510e-06  alpha:  3.965e-01  linmin: -9.989e-05  t[s]:   4914.19
	FillingsUpdate:  mu: +0.099621194  nElectrons: 353.000000  magneticMoment: [ Abs: 35.67212  Tot: +0.00000 ]
	SubspaceRotationAdjust: set factor to 0.257
ElecMinimize: Iter:  55  F: -2112.535452009559322  |grad|_K:  5.062e-06  alpha:  3.851e-01  linmin:  8.620e-05  t[s]:   4992.95
	FillingsUpdate:  mu: +0.097764700  nElectrons: 353.000000  magneticMoment: [ Abs: 35.81871  Tot: -0.00000 ]
	SubspaceRotationAdjust: set factor to 0.279
ElecMinimize: Iter:  56  F: -2112.536766130845081  |grad|_K:  5.145e-06  alpha:  2.953e-01  linmin: -6.111e-06  t[s]:   5070.39
	FillingsUpdate:  mu: +0.098063267  nElectrons: 353.000000  magneticMoment: [ Abs: 35.93782  Tot: -0.00000 ]
	SubspaceRotationAdjust: set factor to 0.352
ElecMinimize: Iter:  57  F: -2112.538087163005002  |grad|_K:  4.889e-06  alpha:  2.863e-01  linmin:  7.532e-06  t[s]:   5147.18
	FillingsUpdate:  mu: +0.099440606  nElectrons: 353.000000  magneticMoment: [ Abs: 36.05455  Tot: +0.00000 ]
	SubspaceRotationAdjust: set factor to 0.417
ElecMinimize: Iter:  58  F: -2112.539248730140116  |grad|_K:  4.958e-06  alpha:  2.795e-01  linmin: -2.507e-05  t[s]:   5223.26
	FillingsUpdate:  mu: +0.098150022  nElectrons: 353.000000  magneticMoment: [ Abs: 36.15817  Tot: -0.00000 ]
	SubspaceRotationAdjust: set factor to 0.377
ElecMinimize: Iter:  59  F: -2112.540101334374867  |grad|_K:  5.372e-06  alpha:  2.017e-01  linmin: -6.069e-05  t[s]:   5300.39
	FillingsUpdate:  mu: +0.101183460  nElectrons: 353.000000  magneticMoment: [ Abs: 36.22525  Tot: -0.00000 ]
	SubspaceRotationAdjust: set factor to 0.357
ElecMinimize: Iter:  60  F: -2112.540846788889212  |grad|_K:  4.877e-06  alpha:  1.465e-01  linmin:  1.106e-05  t[s]:   5378.28
	FillingsUpdate:  mu: +0.099617905  nElectrons: 353.000000  magneticMoment: [ Abs: 36.30436  Tot: +0.00000 ]
	SubspaceRotationAdjust: set factor to 0.375
ElecMinimize: Iter:  61  F: -2112.541675258440137  |grad|_K:  4.279e-06  alpha:  2.022e-01  linmin:  1.986e-04  t[s]:   5456.32
	FillingsUpdate:  mu: +0.101241913  nElectrons: 353.000000  magneticMoment: [ Abs: 36.38263  Tot: -0.00000 ]
	SubspaceRotationAdjust: set factor to 0.435
ElecMinimize: Iter:  62  F: -2112.542413657048201  |grad|_K:  3.851e-06  alpha:  2.383e-01  linmin: -7.140e-05  t[s]:   5531.31
	FillingsUpdate:  mu: +0.099797273  nElectrons: 353.000000  magneticMoment: [ Abs: 36.44522  Tot: +0.00000 ]
	SubspaceRotationAdjust: set factor to 0.399
ElecMinimize: Iter:  63  F: -2112.543010672495257  |grad|_K:  4.155e-06  alpha:  2.287e-01  linmin: -1.376e-06  t[s]:   5608.25
	FillingsUpdate:  mu: +0.101636867  nElectrons: 353.000000  magneticMoment: [ Abs: 36.47324  Tot: -0.00000 ]
	SubspaceRotationAdjust: set factor to 0.335
ElecMinimize: Iter:  64  F: -2112.543359949894239  |grad|_K:  3.914e-06  alpha:  1.160e-01  linmin: -3.967e-06  t[s]:   5683.97
	FillingsUpdate:  mu: +0.100568991  nElectrons: 353.000000  magneticMoment: [ Abs: 36.50807  Tot: +0.00000 ]
	SubspaceRotationAdjust: set factor to 0.35
ElecMinimize: Iter:  65  F: -2112.543826806382640  |grad|_K:  3.029e-06  alpha:  1.752e-01  linmin:  2.195e-05  t[s]:   5760.59
	FillingsUpdate:  mu: +0.101323061  nElectrons: 353.000000  magneticMoment: [ Abs: 36.54940  Tot: -0.00000 ]
	SubspaceRotationAdjust: set factor to 0.43
ElecMinimize: Iter:  66  F: -2112.544259843954933  |grad|_K:  2.703e-06  alpha:  2.712e-01  linmin: -4.991e-05  t[s]:   5835.34
	FillingsUpdate:  mu: +0.100868627  nElectrons: 353.000000  magneticMoment: [ Abs: 36.58462  Tot: +0.00000 ]
	SubspaceRotationAdjust: set factor to 0.473
ElecMinimize: Iter:  67  F: -2112.544634300006237  |grad|_K:  2.872e-06  alpha:  2.919e-01  linmin: -3.468e-05  t[s]:   5913.02
	FillingsUpdate:  mu: +0.101716471  nElectrons: 353.000000  magneticMoment: [ Abs: 36.59098  Tot: -0.00000 ]
	SubspaceRotationAdjust: set factor to 0.341
ElecMinimize: Iter:  68  F: -2112.544882444790346  |grad|_K:  3.807e-06  alpha:  1.667e-01  linmin: -8.630e-05  t[s]:   5991.61
	FillingsUpdate:  mu: +0.100143939  nElectrons: 353.000000  magneticMoment: [ Abs: 36.60075  Tot: +0.00000 ]
	SubspaceRotationAdjust: set factor to 0.363
ElecMinimize: Iter:  69  F: -2112.545180611100932  |grad|_K:  2.856e-06  alpha:  1.178e-01  linmin: -8.034e-06  t[s]:   6063.53
	FillingsUpdate:  mu: +0.100769064  nElectrons: 353.000000  magneticMoment: [ Abs: 36.61554  Tot: +0.00000 ]
	SubspaceRotationAdjust: set factor to 0.428
ElecMinimize: Iter:  70  F: -2112.545584194169351  |grad|_K:  3.243e-06  alpha:  2.953e-01  linmin:  6.414e-04  t[s]:   6138.80
	FillingsUpdate:  mu: +0.100984799  nElectrons: 353.000000  magneticMoment: [ Abs: 36.62064  Tot: +0.00000 ]
	SubspaceRotationAdjust: set factor to 0.443
ElecMinimize: Iter:  71  F: -2112.545706216554663  |grad|_K:  3.382e-06  alpha:  4.206e-02  linmin: -3.840e-03  t[s]:   6215.72
ElecMinimize: 	Predicted alpha/alphaT>3.000000, increasing alphaT to 1.261765e-01.
	FillingsUpdate:  mu: +0.107366144  nElectrons: 353.000000  magneticMoment: [ Abs: 36.71374  Tot: -0.00000 ]
	SubspaceRotationAdjust: set factor to 0.24
ElecMinimize: Iter:  72  F: -2112.545874533470851  |grad|_K:  1.219e-05  alpha:  2.102e-01  linmin:  1.264e-02  t[s]:   6324.91
ElecMinimize: 	Bad step direction: g.d > 0.
ElecMinimize: 	Undoing step.
ElecMinimize: 	Step failed: resetting search direction.
	FillingsUpdate:  mu: +0.107366144  nElectrons: 353.000000  magneticMoment: [ Abs: 36.71374  Tot: -0.00000 ]
	SubspaceRotationAdjust: set factor to 0.138
ElecMinimize: Iter:  73  F: -2112.545874533470396  |grad|_K:  9.257e-06  alpha:  0.000e+00
	FillingsUpdate:  mu: +0.100072304  nElectrons: 353.000000  magneticMoment: [ Abs: 36.70737  Tot: +0.00000 ]
	SubspaceRotationAdjust: set factor to 0.0609
ElecMinimize: Iter:  74  F: -2112.546763485889187  |grad|_K:  3.395e-06  alpha:  7.510e-02  linmin:  1.799e-02  t[s]:   6449.09
ElecMinimize: 	Predicted alpha/alphaT>3.000000, increasing alphaT to 2.253145e-01.
	FillingsUpdate:  mu: +0.100330306  nElectrons: 353.000000  magneticMoment: [ Abs: 36.68846  Tot: +0.00000 ]
	SubspaceRotationAdjust: set factor to 0.0547
ElecMinimize: Iter:  75  F: -2112.547294464871356  |grad|_K:  2.168e-06  alpha:  3.108e-01  linmin:  9.859e-04  t[s]:   6555.16
	FillingsUpdate:  mu: +0.100407330  nElectrons: 353.000000  magneticMoment: [ Abs: 36.68862  Tot: +0.00000 ]
	SubspaceRotationAdjust: set factor to 0.0652
ElecMinimize: Iter:  76  F: -2112.547676477789537  |grad|_K:  2.313e-06  alpha:  4.744e-01  linmin: -1.225e-05  t[s]:   6633.28
	FillingsUpdate:  mu: +0.100506324  nElectrons: 353.000000  magneticMoment: [ Abs: 36.69962  Tot: -0.00000 ]
	SubspaceRotationAdjust: set factor to 0.0735
ElecMinimize: Iter:  77  F: -2112.548049007385544  |grad|_K:  2.139e-06  alpha:  4.002e-01  linmin: -7.772e-05  t[s]:   6710.02
	FillingsUpdate:  mu: +0.100915672  nElectrons: 353.000000  magneticMoment: [ Abs: 36.71780  Tot: -0.00000 ]
	SubspaceRotationAdjust: set factor to 0.0856
ElecMinimize: Iter:  78  F: -2112.548406556932605  |grad|_K:  2.244e-06  alpha:  4.481e-01  linmin:  8.526e-05  t[s]:   6786.33
	FillingsUpdate:  mu: +0.101854509  nElectrons: 353.000000  magneticMoment: [ Abs: 36.75758  Tot: +0.00000 ]
	SubspaceRotationAdjust: set factor to 0.0936
ElecMinimize: Iter:  79  F: -2112.549015021526884  |grad|_K:  3.307e-06  alpha:  7.063e-01  linmin:  3.583e-04  t[s]:   6860.75
	FillingsUpdate:  mu: +0.101702657  nElectrons: 353.000000  magneticMoment: [ Abs: 36.83274  Tot: +0.00000 ]
	SubspaceRotationAdjust: set factor to 0.101
ElecMinimize: Iter:  80  F: -2112.550203804687953  |grad|_K:  4.384e-06  alpha:  6.386e-01  linmin:  2.523e-04  t[s]:   6938.93
	FillingsUpdate:  mu: +0.101915792  nElectrons: 353.000000  magneticMoment: [ Abs: 36.90135  Tot: -0.00000 ]
	SubspaceRotationAdjust: set factor to 0.108
ElecMinimize: Iter:  81  F: -2112.551478902368672  |grad|_K:  4.607e-06  alpha:  4.102e-01  linmin:  2.185e-04  t[s]:   7018.09
	FillingsUpdate:  mu: +0.105086879  nElectrons: 353.000000  magneticMoment: [ Abs: 36.95982  Tot: -0.00000 ]
	SubspaceRotationAdjust: set factor to 0.112
ElecMinimize: Iter:  82  F: -2112.552928879296360  |grad|_K:  5.011e-06  alpha:  3.131e-01  linmin:  2.413e-04  t[s]:   7096.47
	FillingsUpdate:  mu: +0.105915411  nElectrons: 353.000000  magneticMoment: [ Abs: 36.98302  Tot: -0.00000 ]
	SubspaceRotationAdjust: set factor to 0.121
ElecMinimize: Iter:  83  F: -2112.553279645210750  |grad|_K:  5.402e-06  alpha:  5.058e-02  linmin: -5.019e-03  t[s]:   7173.67
	FillingsUpdate:  mu: +0.109601373  nElectrons: 353.000000  magneticMoment: [ Abs: 37.07276  Tot: +0.00000 ]
	SubspaceRotationAdjust: set factor to 0.0829
ElecMinimize: Iter:  84  F: -2112.554128233263782  |grad|_K:  8.484e-06  alpha:  1.450e-01  linmin:  5.911e-03  t[s]:   7252.12
	FillingsUpdate:  mu: +0.109731396  nElectrons: 353.000000  magneticMoment: [ Abs: 37.07580  Tot: -0.00000 ]
	SubspaceRotationAdjust: set factor to 0.0639
ElecMinimize: Iter:  85  F: -2112.554132203568770  |grad|_K:  7.571e-06  alpha:  1.877e-03  linmin: -2.256e-04  t[s]:   7330.29
ElecMinimize: 	Predicted alpha/alphaT>3.000000, increasing alphaT to 5.629682e-03.
ElecMinimize: 	Predicted alpha/alphaT>3.000000, increasing alphaT to 1.688905e-02.
	FillingsUpdate:  mu: +0.110781983  nElectrons: 353.000000  magneticMoment: [ Abs: 37.12074  Tot: -0.00000 ]
	SubspaceRotationAdjust: set factor to 0.0531
ElecMinimize: Iter:  86  F: -2112.554469798768878  |grad|_K:  7.792e-06  alpha:  3.393e-02  linmin:  4.560e-04  t[s]:   7474.94
	FillingsUpdate:  mu: +0.110918805  nElectrons: 353.000000  magneticMoment: [ Abs: 37.15905  Tot: -0.00000 ]
	SubspaceRotationAdjust: set factor to 0.0466
ElecMinimize: Iter:  87  F: -2112.554734564698265  |grad|_K:  7.809e-06  alpha:  2.694e-02  linmin:  4.186e-05  t[s]:   7549.88
	FillingsUpdate:  mu: +0.111208308  nElectrons: 353.000000  magneticMoment: [ Abs: 37.20128  Tot: +0.00000 ]
	SubspaceRotationAdjust: set factor to 0.0423
ElecMinimize: Iter:  88  F: -2112.555042916966613  |grad|_K:  7.693e-06  alpha:  2.929e-02  linmin:  2.788e-05  t[s]:   7622.67
	FillingsUpdate:  mu: +0.111492924  nElectrons: 353.000000  magneticMoment: [ Abs: 37.24454  Tot: +0.00000 ]
	SubspaceRotationAdjust: set factor to 0.0401
ElecMinimize: Iter:  89  F: -2112.555355200112444  |grad|_K:  7.441e-06  alpha:  3.045e-02  linmin: -4.403e-05  t[s]:   7698.52
	FillingsUpdate:  mu: +0.111582336  nElectrons: 353.000000  magneticMoment: [ Abs: 37.29007  Tot: -0.00000 ]
	SubspaceRotationAdjust: set factor to 0.0414
ElecMinimize: Iter:  90  F: -2112.555681090077996  |grad|_K:  7.157e-06  alpha:  3.344e-02  linmin: -8.750e-05  t[s]:   7776.85
	FillingsUpdate:  mu: +0.110884053  nElectrons: 353.000000  magneticMoment: [ Abs: 37.33732  Tot: +0.00000 ]
	SubspaceRotationAdjust: set factor to 0.048
ElecMinimize: Iter:  91  F: -2112.556009029220604  |grad|_K:  6.972e-06  alpha:  3.616e-02  linmin: -2.773e-05  t[s]:   7852.46
	FillingsUpdate:  mu: +0.110117702  nElectrons: 353.000000  magneticMoment: [ Abs: 37.38132  Tot: +0.00000 ]
	SubspaceRotationAdjust: set factor to 0.0596
ElecMinimize: Iter:  92  F: -2112.556300273778561  |grad|_K:  6.960e-06  alpha:  3.419e-02  linmin:  7.616e-05  t[s]:   7927.43
	FillingsUpdate:  mu: +0.108022750  nElectrons: 353.000000  magneticMoment: [ Abs: 37.41781  Tot: +0.00000 ]
	SubspaceRotationAdjust: set factor to 0.0704
ElecMinimize: Iter:  93  F: -2112.556536367990248  |grad|_K:  7.109e-06  alpha:  2.812e-02  linmin:  6.801e-05  t[s]:   8002.74
	FillingsUpdate:  mu: +0.106562508  nElectrons: 353.000000  magneticMoment: [ Abs: 37.44843  Tot: -0.00000 ]
	SubspaceRotationAdjust: set factor to 0.0752
ElecMinimize: Iter:  94  F: -2112.556740196889223  |grad|_K:  7.326e-06  alpha:  2.329e-02  linmin:  5.655e-05  t[s]:   8076.82
	FillingsUpdate:  mu: +0.105822698  nElectrons: 353.000000  magneticMoment: [ Abs: 37.47534  Tot: -0.00000 ]
	SubspaceRotationAdjust: set factor to 0.0735
ElecMinimize: Iter:  95  F: -2112.556930021663447  |grad|_K:  7.506e-06  alpha:  2.046e-02  linmin:  4.277e-05  t[s]:   8153.79
	FillingsUpdate:  mu: +0.105380940  nElectrons: 353.000000  magneticMoment: [ Abs: 37.50007  Tot: +0.00000 ]
	SubspaceRotationAdjust: set factor to 0.0688
ElecMinimize: Iter:  96  F: -2112.557118756075397  |grad|_K:  7.568e-06  alpha:  1.937e-02  linmin:  2.223e-05  t[s]:   8228.02
	FillingsUpdate:  mu: +0.105012839  nElectrons: 353.000000  magneticMoment: [ Abs: 37.52325  Tot: +0.00000 ]
	SubspaceRotationAdjust: set factor to 0.0645
ElecMinimize: Iter:  97  F: -2112.557312836917845  |grad|_K:  7.491e-06  alpha:  1.953e-02  linmin:  1.491e-07  t[s]:   8305.04
	FillingsUpdate:  mu: +0.104463963  nElectrons: 353.000000  magneticMoment: [ Abs: 37.54478  Tot: +0.00000 ]
	SubspaceRotationAdjust: set factor to 0.0636
ElecMinimize: Iter:  98  F: -2112.557512046727425  |grad|_K:  7.312e-06  alpha:  2.039e-02  linmin: -1.440e-05  t[s]:   8382.90
	FillingsUpdate:  mu: +0.103758304  nElectrons: 353.000000  magneticMoment: [ Abs: 37.56408  Tot: +0.00000 ]
	SubspaceRotationAdjust: set factor to 0.0685
ElecMinimize: Iter:  99  F: -2112.557710454870630  |grad|_K:  7.097e-06  alpha:  2.125e-02  linmin: -1.827e-05  t[s]:   8458.83
	FillingsUpdate:  mu: +0.103553814  nElectrons: 353.000000  magneticMoment: [ Abs: 37.58062  Tot: +0.00000 ]
	SubspaceRotationAdjust: set factor to 0.0826
ElecMinimize: Iter: 100  F: -2112.557899749721855  |grad|_K:  6.898e-06  alpha:  2.152e-02  linmin: -1.634e-05  t[s]:   8531.90
	FillingsUpdate:  mu: +0.103296343  nElectrons: 353.000000  magneticMoment: [ Abs: 37.59437  Tot: -0.00000 ]
	SubspaceRotationAdjust: set factor to 0.112
ElecMinimize: Iter: 101  F: -2112.558073499796137  |grad|_K:  6.748e-06  alpha:  2.092e-02  linmin: -1.396e-05  t[s]:   8607.77
	FillingsUpdate:  mu: +0.104076911  nElectrons: 353.000000  magneticMoment: [ Abs: 37.60589  Tot: +0.00000 ]
	SubspaceRotationAdjust: set factor to 0.149
ElecMinimize: Iter: 102  F: -2112.558229317478890  |grad|_K:  6.678e-06  alpha:  1.961e-02  linmin: -1.257e-05  t[s]:   8685.65
	FillingsUpdate:  mu: +0.104242952  nElectrons: 353.000000  magneticMoment: [ Abs: 37.61636  Tot: -0.00000 ]
	SubspaceRotationAdjust: set factor to 0.191
ElecMinimize: Iter: 103  F: -2112.558368859031361  |grad|_K:  6.613e-06  alpha:  1.794e-02  linmin: -1.178e-05  t[s]:   8762.56
	FillingsUpdate:  mu: +0.105053313  nElectrons: 353.000000  magneticMoment: [ Abs: 37.62768  Tot: -0.00000 ]
	SubspaceRotationAdjust: set factor to 0.237
ElecMinimize: Iter: 104  F: -2112.558499479528109  |grad|_K:  6.708e-06  alpha:  1.712e-02  linmin: -1.317e-05  t[s]:   8839.67
	FillingsUpdate:  mu: +0.106531666  nElectrons: 353.000000  magneticMoment: [ Abs: 37.64250  Tot: -0.00000 ]
	SubspaceRotationAdjust: set factor to 0.294
ElecMinimize: Iter: 105  F: -2112.558632630384636  |grad|_K:  7.083e-06  alpha:  1.695e-02  linmin: -1.352e-05  t[s]:   8916.62
	FillingsUpdate:  mu: +0.106842999  nElectrons: 353.000000  magneticMoment: [ Abs: 37.66384  Tot: -0.00000 ]
	SubspaceRotationAdjust: set factor to 0.38
ElecMinimize: Iter: 106  F: -2112.558778976972462  |grad|_K:  7.703e-06  alpha:  1.671e-02  linmin: -9.926e-06  t[s]:   8994.48
	FillingsUpdate:  mu: +0.107688454  nElectrons: 353.000000  magneticMoment: [ Abs: 37.69307  Tot: +0.00000 ]
	SubspaceRotationAdjust: set factor to 0.44
ElecMinimize: Iter: 107  F: -2112.558938702030900  |grad|_K:  8.302e-06  alpha:  1.543e-02  linmin: -3.592e-06  t[s]:   9076.08
	FillingsUpdate:  mu: +0.108330156  nElectrons: 353.000000  magneticMoment: [ Abs: 37.72698  Tot: +0.00000 ]
	SubspaceRotationAdjust: set factor to 0.553
ElecMinimize: Iter: 108  F: -2112.559096573751503  |grad|_K:  8.309e-06  alpha:  1.315e-02  linmin: -1.942e-06  t[s]:   9154.67
	FillingsUpdate:  mu: +0.108761161  nElectrons: 353.000000  magneticMoment: [ Abs: 37.76001  Tot: +0.00000 ]
	SubspaceRotationAdjust: set factor to 0.74
ElecMinimize: Iter: 109  F: -2112.559241867439141  |grad|_K:  8.325e-06  alpha:  1.209e-02  linmin: -6.901e-06  t[s]:   9233.46
	FillingsUpdate:  mu: +0.109202273  nElectrons: 353.000000  magneticMoment: [ Abs: 37.78917  Tot: +0.00000 ]
	SubspaceRotationAdjust: set factor to 0.848
ElecMinimize: Iter: 110  F: -2112.559383507832536  |grad|_K:  8.948e-06  alpha:  1.171e-02  linmin: -1.111e-05  t[s]:   9311.37
	FillingsUpdate:  mu: +0.108478252  nElectrons: 353.000000  magneticMoment: [ Abs: 37.81230  Tot: +0.00000 ]
	SubspaceRotationAdjust: set factor to 0.778
ElecMinimize: Iter: 111  F: -2112.559547372661200  |grad|_K:  1.013e-05  alpha:  1.170e-02  linmin: -9.701e-06  t[s]:   9389.98
	FillingsUpdate:  mu: +0.107421754  nElectrons: 353.000000  magneticMoment: [ Abs: 37.82386  Tot: +0.00000 ]
	SubspaceRotationAdjust: set factor to 0.703
ElecMinimize: Iter: 112  F: -2112.559748127619059  |grad|_K:  1.048e-05  alpha:  1.119e-02  linmin: -6.111e-06  t[s]:   9467.63
	FillingsUpdate:  mu: +0.106736004  nElectrons: 353.000000  magneticMoment: [ Abs: 37.82018  Tot: +0.00000 ]
	SubspaceRotationAdjust: set factor to 0.811
ElecMinimize: Iter: 113  F: -2112.559952291637273  |grad|_K:  9.597e-06  alpha:  1.065e-02  linmin: -5.053e-06  t[s]:   9544.38
	FillingsUpdate:  mu: +0.107022350  nElectrons: 353.000000  magneticMoment: [ Abs: 37.80692  Tot: -0.00000 ]
	SubspaceRotationAdjust: set factor to 1.11
	SubspaceRotationAdjust: resetting CG because factor has changed by 9.10427
ElecMinimize: 	State modified externally: resetting search direction.
ElecMinimize: Iter: 114  F: -2112.560120477641249  |grad|_K:  9.031e-06  alpha:  1.046e-02
ElecMinimize: 	Predicted alpha/alphaT>3.000000, increasing alphaT to 3.137091e-02.
	FillingsUpdate:  mu: +0.106632768  nElectrons: 353.000000  magneticMoment: [ Abs: 37.76301  Tot: -0.00000 ]
	SubspaceRotationAdjust: set factor to 0.654
ElecMinimize: Iter: 115  F: -2112.561313125885135  |grad|_K:  1.614e-05  alpha:  8.531e-02  linmin:  4.600e-04  t[s]:   9743.80
	FillingsUpdate:  mu: +0.110078865  nElectrons: 353.000000  magneticMoment: [ Abs: 37.85013  Tot: +0.00000 ]
	SubspaceRotationAdjust: set factor to 0.911
ElecMinimize: Iter: 116  F: -2112.565419586413100  |grad|_K:  7.162e-06  alpha:  9.292e-02  linmin: -9.139e-06  t[s]:   9821.82
	FillingsUpdate:  mu: +0.103243630  nElectrons: 353.000000  magneticMoment: [ Abs: 37.83260  Tot: -0.00000 ]
	SubspaceRotationAdjust: set factor to 0.5
ElecMinimize: Iter: 117  F: -2112.566978666541218  |grad|_K:  1.207e-05  alpha:  1.782e-01  linmin:  7.204e-04  t[s]:   9900.54
	FillingsUpdate:  mu: +0.104264587  nElectrons: 353.000000  magneticMoment: [ Abs: 37.77581  Tot: +0.00000 ]
	SubspaceRotationAdjust: set factor to 0.409
ElecMinimize: Iter: 118  F: -2112.568092938000973  |grad|_K:  7.107e-06  alpha:  4.957e-02  linmin:  9.131e-04  t[s]:   9976.38
	FillingsUpdate:  mu: +0.109463915  nElectrons: 353.000000  magneticMoment: [ Abs: 37.85579  Tot: +0.00000 ]
	SubspaceRotationAdjust: set factor to 0.279
ElecMinimize: Iter: 119  F: -2112.569153415075107  |grad|_K:  4.882e-06  alpha:  1.371e-01  linmin:  1.360e-03  t[s]:  10050.18
	FillingsUpdate:  mu: +0.108826127  nElectrons: 353.000000  magneticMoment: [ Abs: 37.85370  Tot: +0.00000 ]
	SubspaceRotationAdjust: set factor to 0.237
ElecMinimize: Iter: 120  F: -2112.569893385063551  |grad|_K:  4.264e-06  alpha:  1.969e-01  linmin:  5.456e-05  t[s]:  10126.18
	FillingsUpdate:  mu: +0.108458896  nElectrons: 353.000000  magneticMoment: [ Abs: 37.79951  Tot: -0.00000 ]
	SubspaceRotationAdjust: set factor to 0.164
ElecMinimize: Iter: 121  F: -2112.570306835438259  |grad|_K:  2.845e-06  alpha:  1.306e-01  linmin:  1.937e-05  t[s]:  10200.89
	FillingsUpdate:  mu: +0.108383282  nElectrons: 353.000000  magneticMoment: [ Abs: 37.78829  Tot: -0.00000 ]
	SubspaceRotationAdjust: set factor to 0.236
ElecMinimize: Iter: 122  F: -2112.570631009778481  |grad|_K:  2.227e-06  alpha:  2.302e-01  linmin:  9.352e-06  t[s]:  10277.06
	FillingsUpdate:  mu: +0.108733260  nElectrons: 353.000000  magneticMoment: [ Abs: 37.80190  Tot: -0.00000 ]
	SubspaceRotationAdjust: set factor to 0.198
ElecMinimize: Iter: 123  F: -2112.570824886408900  |grad|_K:  1.788e-06  alpha:  2.247e-01  linmin:  1.027e-04  t[s]:  10352.85
	FillingsUpdate:  mu: +0.108860758  nElectrons: 353.000000  magneticMoment: [ Abs: 37.78649  Tot: -0.00000 ]
	SubspaceRotationAdjust: set factor to 0.184
ElecMinimize: Iter: 124  F: -2112.570933361722837  |grad|_K:  1.351e-06  alpha:  1.956e-01  linmin: -4.271e-05  t[s]:  10429.57
	FillingsUpdate:  mu: +0.108085299  nElectrons: 353.000000  magneticMoment: [ Abs: 37.77438  Tot: +0.00000 ]
	SubspaceRotationAdjust: set factor to 0.235
ElecMinimize: Iter: 125  F: -2112.571029387099770  |grad|_K:  1.159e-06  alpha:  3.022e-01  linmin:  1.267e-04  t[s]:  10504.17
	FillingsUpdate:  mu: +0.108001103  nElectrons: 353.000000  magneticMoment: [ Abs: 37.77500  Tot: +0.00000 ]
	SubspaceRotationAdjust: set factor to 0.205
ElecMinimize: Iter: 126  F: -2112.571107076223598  |grad|_K:  1.375e-06  alpha:  3.341e-01  linmin:  2.978e-05  t[s]:  10581.88
	FillingsUpdate:  mu: +0.108862388  nElectrons: 353.000000  magneticMoment: [ Abs: 37.75809  Tot: -0.00000 ]
	SubspaceRotationAdjust: set factor to 0.174
ElecMinimize: Iter: 127  F: -2112.571178827575295  |grad|_K:  1.188e-06  alpha:  2.202e-01  linmin:  2.843e-06  t[s]:  10661.82
	FillingsUpdate:  mu: +0.108976437  nElectrons: 353.000000  magneticMoment: [ Abs: 37.74272  Tot: -0.00000 ]
	SubspaceRotationAdjust: set factor to 0.207
ElecMinimize: Iter: 128  F: -2112.571265584207140  |grad|_K:  1.110e-06  alpha:  3.534e-01  linmin:  1.077e-05  t[s]:  10738.13
	FillingsUpdate:  mu: +0.108318481  nElectrons: 353.000000  magneticMoment: [ Abs: 37.72933  Tot: -0.00000 ]
	SubspaceRotationAdjust: set factor to 0.201
ElecMinimize: Iter: 129  F: -2112.571337838447107  |grad|_K:  1.206e-06  alpha:  3.370e-01  linmin:  6.538e-05  t[s]:  10812.45
	FillingsUpdate:  mu: +0.108344084  nElectrons: 353.000000  magneticMoment: [ Abs: 37.70367  Tot: -0.00000 ]
	SubspaceRotationAdjust: set factor to 0.168
ElecMinimize: Iter: 130  F: -2112.571399900916276  |grad|_K:  1.086e-06  alpha:  2.481e-01  linmin: -1.452e-05  t[s]:  10888.28
	FillingsUpdate:  mu: +0.108635057  nElectrons: 353.000000  magneticMoment: [ Abs: 37.69166  Tot: +0.00000 ]
	SubspaceRotationAdjust: set factor to 0.182
ElecMinimize: Iter: 131  F: -2112.571463867006969  |grad|_K:  9.449e-07  alpha:  3.109e-01  linmin:  6.698e-07  t[s]:  10964.82
	FillingsUpdate:  mu: +0.108447755  nElectrons: 353.000000  magneticMoment: [ Abs: 37.67821  Tot: -0.00000 ]
	SubspaceRotationAdjust: set factor to 0.194
ElecMinimize: Iter: 132  F: -2112.571516307516049  |grad|_K:  9.400e-07  alpha:  3.376e-01  linmin:  3.698e-05  t[s]:  11040.36
	FillingsUpdate:  mu: +0.108408356  nElectrons: 353.000000  magneticMoment: [ Abs: 37.65601  Tot: +0.00000 ]
	SubspaceRotationAdjust: set factor to 0.174
ElecMinimize: Iter: 133  F: -2112.571560825621418  |grad|_K:  8.786e-07  alpha:  2.907e-01  linmin:  1.915e-07  t[s]:  11116.16
	FillingsUpdate:  mu: +0.108668373  nElectrons: 353.000000  magneticMoment: [ Abs: 37.64876  Tot: -0.00000 ]
	SubspaceRotationAdjust: set factor to 0.171
ElecMinimize: Iter: 134  F: -2112.571598821890802  |grad|_K:  7.804e-07  alpha:  2.827e-01  linmin: -1.335e-06  t[s]:  11192.08
	FillingsUpdate:  mu: +0.108802541  nElectrons: 353.000000  magneticMoment: [ Abs: 37.63616  Tot: -0.00000 ]
	SubspaceRotationAdjust: set factor to 0.202
ElecMinimize: Iter: 135  F: -2112.571633578466390  |grad|_K:  7.055e-07  alpha:  3.276e-01  linmin: -2.375e-05  t[s]:  11268.04
	FillingsUpdate:  mu: +0.108500542  nElectrons: 353.000000  magneticMoment: [ Abs: 37.61805  Tot: -0.00000 ]
	SubspaceRotationAdjust: set factor to 0.202
ElecMinimize: Iter: 136  F: -2112.571663458576495  |grad|_K:  7.430e-07  alpha:  3.443e-01  linmin:  7.912e-05  t[s]:  11345.96
	FillingsUpdate:  mu: +0.108360304  nElectrons: 353.000000  magneticMoment: [ Abs: 37.61306  Tot: +0.00000 ]
	SubspaceRotationAdjust: set factor to 0.183
ElecMinimize: Iter: 137  F: -2112.571688591925522  |grad|_K:  7.107e-07  alpha:  2.628e-01  linmin:  6.300e-06  t[s]:  11421.51
	FillingsUpdate:  mu: +0.108644422  nElectrons: 353.000000  magneticMoment: [ Abs: 37.60015  Tot: +0.00000 ]
	SubspaceRotationAdjust: set factor to 0.202
ElecMinimize: Iter: 138  F: -2112.571720278996963  |grad|_K:  7.062e-07  alpha:  3.598e-01  linmin: -5.784e-05  t[s]:  11496.96
	FillingsUpdate:  mu: +0.108666045  nElectrons: 353.000000  magneticMoment: [ Abs: 37.58676  Tot: -0.00000 ]
	SubspaceRotationAdjust: set factor to 0.225
ElecMinimize: Iter: 139  F: -2112.571752913169348  |grad|_K:  7.637e-07  alpha:  3.740e-01  linmin:  3.909e-05  t[s]:  11573.72
	FillingsUpdate:  mu: +0.108372266  nElectrons: 353.000000  magneticMoment: [ Abs: 37.58044  Tot: +0.00000 ]
	SubspaceRotationAdjust: set factor to 0.201
ElecMinimize: Iter: 140  F: -2112.571785637682751  |grad|_K:  8.484e-07  alpha:  3.239e-01  linmin: -2.789e-05  t[s]:  11645.57
	FillingsUpdate:  mu: +0.108341870  nElectrons: 353.000000  magneticMoment: [ Abs: 37.56387  Tot: -0.00000 ]
	SubspaceRotationAdjust: set factor to 0.183
ElecMinimize: Iter: 141  F: -2112.571818873036136  |grad|_K:  8.212e-07  alpha:  2.622e-01  linmin:  7.088e-05  t[s]:  11720.28
	FillingsUpdate:  mu: +0.108657709  nElectrons: 353.000000  magneticMoment: [ Abs: 37.55638  Tot: +0.00000 ]
	SubspaceRotationAdjust: set factor to 0.214
ElecMinimize: Iter: 142  F: -2112.571860545426716  |grad|_K:  8.094e-07  alpha:  3.561e-01  linmin: -1.048e-04  t[s]:  11795.37
	FillingsUpdate:  mu: +0.108638310  nElectrons: 353.000000  magneticMoment: [ Abs: 37.55140  Tot: -0.00000 ]
	SubspaceRotationAdjust: set factor to 0.225
ElecMinimize: Iter: 143  F: -2112.571901249788425  |grad|_K:  8.572e-07  alpha:  3.517e-01  linmin: -8.219e-05  t[s]:  11873.53
	FillingsUpdate:  mu: +0.108393864  nElectrons: 353.000000  magneticMoment: [ Abs: 37.53690  Tot: +0.00000 ]
	SubspaceRotationAdjust: set factor to 0.204
ElecMinimize: Iter: 144  F: -2112.571935991289592  |grad|_K:  9.153e-07  alpha:  2.626e-01  linmin:  7.520e-05  t[s]:  11948.71
	FillingsUpdate:  mu: +0.108408318  nElectrons: 353.000000  magneticMoment: [ Abs: 37.53585  Tot: -0.00000 ]
	SubspaceRotationAdjust: set factor to 0.249
ElecMinimize: Iter: 145  F: -2112.571976733761858  |grad|_K:  8.531e-07  alpha:  2.816e-01  linmin: -1.171e-04  t[s]:  12025.60
	FillingsUpdate:  mu: +0.108628712  nElectrons: 353.000000  magneticMoment: [ Abs: 37.53775  Tot: +0.00000 ]
	SubspaceRotationAdjust: set factor to 0.286
ElecMinimize: Iter: 146  F: -2112.572018609889710  |grad|_K:  8.937e-07  alpha:  3.232e-01  linmin: -1.599e-04  t[s]:  12104.29
	FillingsUpdate:  mu: +0.108567087  nElectrons: 353.000000  magneticMoment: [ Abs: 37.52932  Tot: +0.00000 ]
	SubspaceRotationAdjust: set factor to 0.241
ElecMinimize: Iter: 147  F: -2112.572054189415212  |grad|_K:  1.083e-06  alpha:  2.452e-01  linmin:  9.340e-05  t[s]:  12179.38
	FillingsUpdate:  mu: +0.108590752  nElectrons: 353.000000  magneticMoment: [ Abs: 37.53415  Tot: -0.00000 ]
	SubspaceRotationAdjust: set factor to 0.296
ElecMinimize: Iter: 148  F: -2112.572098868496141  |grad|_K:  9.842e-07  alpha:  2.225e-01  linmin: -1.122e-04  t[s]:  12255.22
	FillingsUpdate:  mu: +0.108394457  nElectrons: 353.000000  magneticMoment: [ Abs: 37.53842  Tot: -0.00000 ]
	SubspaceRotationAdjust: set factor to 0.329
ElecMinimize: Iter: 149  F: -2112.572155576215209  |grad|_K:  1.109e-06  alpha:  3.278e-01  linmin: -1.383e-04  t[s]:  12329.18
	FillingsUpdate:  mu: +0.108419785  nElectrons: 353.000000  magneticMoment: [ Abs: 37.53237  Tot: -0.00000 ]
	SubspaceRotationAdjust: set factor to 0.288
ElecMinimize: Iter: 150  F: -2112.572195457199996  |grad|_K:  1.261e-06  alpha:  1.717e-01  linmin: -2.312e-04  t[s]:  12407.88
	FillingsUpdate:  mu: +0.108878640  nElectrons: 353.000000  magneticMoment: [ Abs: 37.54310  Tot: -0.00000 ]
	SubspaceRotationAdjust: set factor to 0.427
ElecMinimize: Iter: 151  F: -2112.572261689288098  |grad|_K:  1.218e-06  alpha:  2.286e-01  linmin: -2.420e-04  t[s]:  12484.78
	FillingsUpdate:  mu: +0.108750215  nElectrons: 353.000000  magneticMoment: [ Abs: 37.55673  Tot: +0.00000 ]
	SubspaceRotationAdjust: set factor to 0.36
ElecMinimize: Iter: 152  F: -2112.572324791544361  |grad|_K:  1.521e-06  alpha:  2.344e-01  linmin: -3.123e-04  t[s]:  12563.78
	FillingsUpdate:  mu: +0.108393617  nElectrons: 353.000000  magneticMoment: [ Abs: 37.54934  Tot: -0.00000 ]
	SubspaceRotationAdjust: set factor to 0.347
ElecMinimize: Iter: 153  F: -2112.572377662233976  |grad|_K:  1.340e-06  alpha:  1.134e-01  linmin: -4.157e-04  t[s]:  12642.47
	FillingsUpdate:  mu: +0.108405457  nElectrons: 353.000000  magneticMoment: [ Abs: 37.55893  Tot: +0.00000 ]
	SubspaceRotationAdjust: set factor to 0.311
ElecMinimize: Iter: 154  F: -2112.572460924398911  |grad|_K:  1.709e-06  alpha:  2.539e-01  linmin:  1.840e-04  t[s]:  12719.90
	FillingsUpdate:  mu: +0.108859521  nElectrons: 353.000000  magneticMoment: [ Abs: 37.58321  Tot: +0.00000 ]
	SubspaceRotationAdjust: set factor to 0.317
ElecMinimize: Iter: 155  F: -2112.572527225974227  |grad|_K:  1.601e-06  alpha:  1.492e-01  linmin:  7.781e-05  t[s]:  12797.04
	FillingsUpdate:  mu: +0.108681506  nElectrons: 353.000000  magneticMoment: [ Abs: 37.59496  Tot: +0.00000 ]
	SubspaceRotationAdjust: set factor to 0.393
ElecMinimize: Iter: 156  F: -2112.572627711853329  |grad|_K:  1.467e-06  alpha:  2.360e-01  linmin:  4.294e-04  t[s]:  12870.21
	FillingsUpdate:  mu: +0.108721184  nElectrons: 353.000000  magneticMoment: [ Abs: 37.60851  Tot: +0.00000 ]
	SubspaceRotationAdjust: set factor to 0.336
ElecMinimize: Iter: 157  F: -2112.572712006560778  |grad|_K:  1.846e-06  alpha:  2.441e-01  linmin:  2.180e-04  t[s]:  12944.71
	FillingsUpdate:  mu: +0.109393728  nElectrons: 353.000000  magneticMoment: [ Abs: 37.64110  Tot: +0.00000 ]
	SubspaceRotationAdjust: set factor to 0.438
ElecMinimize: Iter: 158  F: -2112.572799006999048  |grad|_K:  1.626e-06  alpha:  1.626e-01  linmin: -4.796e-05  t[s]:  13020.34
	FillingsUpdate:  mu: +0.109287335  nElectrons: 353.000000  magneticMoment: [ Abs: 37.66707  Tot: -0.00000 ]
	SubspaceRotationAdjust: set factor to 0.54
ElecMinimize: Iter: 159  F: -2112.572923656434796  |grad|_K:  1.802e-06  alpha:  2.729e-01  linmin:  2.427e-04  t[s]:  13098.21
	FillingsUpdate:  mu: +0.108756718  nElectrons: 353.000000  magneticMoment: [ Abs: 37.68950  Tot: -0.00000 ]
	SubspaceRotationAdjust: set factor to 0.512
ElecMinimize: Iter: 160  F: -2112.573054680852692  |grad|_K:  2.186e-06  alpha:  2.402e-01  linmin:  1.095e-04  t[s]:  13173.96
	FillingsUpdate:  mu: +0.108848798  nElectrons: 353.000000  magneticMoment: [ Abs: 37.71936  Tot: +0.00000 ]
	SubspaceRotationAdjust: set factor to 0.61
ElecMinimize: Iter: 161  F: -2112.573188557411868  |grad|_K:  2.160e-06  alpha:  1.694e-01  linmin: -6.881e-05  t[s]:  13252.31
	FillingsUpdate:  mu: +0.108664879  nElectrons: 353.000000  magneticMoment: [ Abs: 37.72944  Tot: +0.00000 ]
	SubspaceRotationAdjust: set factor to 0.596
ElecMinimize: Iter: 162  F: -2112.573342684998806  |grad|_K:  2.370e-06  alpha:  1.880e-01  linmin:  1.512e-04  t[s]:  13330.35
	FillingsUpdate:  mu: +0.108236416  nElectrons: 353.000000  magneticMoment: [ Abs: 37.74583  Tot: +0.00000 ]
	SubspaceRotationAdjust: set factor to 0.734
ElecMinimize: Iter: 163  F: -2112.573484368643221  |grad|_K:  2.170e-06  alpha:  1.502e-01  linmin: -4.768e-05  t[s]:  13407.99
	FillingsUpdate:  mu: +0.107654100  nElectrons: 353.000000  magneticMoment: [ Abs: 37.75497  Tot: -0.00000 ]
	SubspaceRotationAdjust: set factor to 0.714
ElecMinimize: Iter: 164  F: -2112.573637465984575  |grad|_K:  2.335e-06  alpha:  1.862e-01  linmin:  1.380e-04  t[s]:  13484.61
	FillingsUpdate:  mu: +0.108269402  nElectrons: 353.000000  magneticMoment: [ Abs: 37.76381  Tot: +0.00000 ]
	SubspaceRotationAdjust: set factor to 0.65
ElecMinimize: Iter: 165  F: -2112.573779460172773  |grad|_K:  2.570e-06  alpha:  1.523e-01  linmin:  4.408e-05  t[s]:  13560.31
	FillingsUpdate:  mu: +0.109152812  nElectrons: 353.000000  magneticMoment: [ Abs: 37.77694  Tot: -0.00000 ]
	SubspaceRotationAdjust: set factor to 0.772
ElecMinimize: Iter: 166  F: -2112.573919327899603  |grad|_K:  2.345e-06  alpha:  1.223e-01  linmin:  1.096e-05  t[s]:  13636.68
	FillingsUpdate:  mu: +0.109455810  nElectrons: 353.000000  magneticMoment: [ Abs: 37.77661  Tot: -0.00000 ]
	SubspaceRotationAdjust: set factor to 0.796
ElecMinimize: Iter: 167  F: -2112.574048382615274  |grad|_K:  2.429e-06  alpha:  1.362e-01  linmin:  1.956e-04  t[s]:  13716.90
	FillingsUpdate:  mu: +0.109015867  nElectrons: 353.000000  magneticMoment: [ Abs: 37.76736  Tot: +0.00000 ]
	SubspaceRotationAdjust: set factor to 0.704
ElecMinimize: Iter: 168  F: -2112.574162873148907  |grad|_K:  2.653e-06  alpha:  1.165e-01  linmin:  2.252e-05  t[s]:  13791.77
	FillingsUpdate:  mu: +0.108397760  nElectrons: 353.000000  magneticMoment: [ Abs: 37.75789  Tot: +0.00000 ]
	SubspaceRotationAdjust: set factor to 0.845
ElecMinimize: Iter: 169  F: -2112.574267718074680  |grad|_K:  2.271e-06  alpha:  8.408e-02  linmin:  4.632e-06  t[s]:  13869.34
	FillingsUpdate:  mu: +0.107499129  nElectrons: 353.000000  magneticMoment: [ Abs: 37.74803  Tot: -0.00000 ]
	SubspaceRotationAdjust: set factor to 0.731
ElecMinimize: Iter: 170  F: -2112.574351497018597  |grad|_K:  2.431e-06  alpha:  9.375e-02  linmin:  7.966e-05  t[s]:  13945.90
	FillingsUpdate:  mu: +0.107597872  nElectrons: 353.000000  magneticMoment: [ Abs: 37.73448  Tot: -0.00000 ]
	SubspaceRotationAdjust: set factor to 0.656
ElecMinimize: Iter: 171  F: -2112.574426598123864  |grad|_K:  2.279e-06  alpha:  7.418e-02  linmin:  8.179e-06  t[s]:  14024.16
	FillingsUpdate:  mu: +0.108126850  nElectrons: 353.000000  magneticMoment: [ Abs: 37.71960  Tot: +0.00000 ]
	SubspaceRotationAdjust: set factor to 0.604
ElecMinimize: Iter: 172  F: -2112.574503322383862  |grad|_K:  2.210e-06  alpha:  8.493e-02  linmin: -1.296e-05  t[s]:  14101.02
	FillingsUpdate:  mu: +0.108434934  nElectrons: 353.000000  magneticMoment: [ Abs: 37.70864  Tot: -0.00000 ]
	SubspaceRotationAdjust: set factor to 0.724
ElecMinimize: Iter: 173  F: -2112.574572878498657  |grad|_K:  1.874e-06  alpha:  8.170e-02  linmin: -7.790e-05  t[s]:  14179.33
	FillingsUpdate:  mu: +0.108608205  nElectrons: 353.000000  magneticMoment: [ Abs: 37.70011  Tot: -0.00000 ]
	SubspaceRotationAdjust: set factor to 0.705
ElecMinimize: Iter: 174  F: -2112.574633074927988  |grad|_K:  1.817e-06  alpha:  9.622e-02  linmin: -8.258e-05  t[s]:  14257.88
	FillingsUpdate:  mu: +0.108540966  nElectrons: 353.000000  magneticMoment: [ Abs: 37.68810  Tot: -0.00000 ]
	SubspaceRotationAdjust: set factor to 0.707
ElecMinimize: Iter: 175  F: -2112.574689353152735  |grad|_K:  1.693e-06  alpha:  9.617e-02  linmin:  1.987e-05  t[s]:  14335.54
	FillingsUpdate:  mu: +0.108512749  nElectrons: 353.000000  magneticMoment: [ Abs: 37.67955  Tot: +0.00000 ]
	SubspaceRotationAdjust: set factor to 0.689
ElecMinimize: Iter: 176  F: -2112.574738467677889  |grad|_K:  1.659e-06  alpha:  9.884e-02  linmin: -1.806e-05  t[s]:  14413.69
	FillingsUpdate:  mu: +0.108511482  nElectrons: 353.000000  magneticMoment: [ Abs: 37.67575  Tot: +0.00000 ]
	SubspaceRotationAdjust: set factor to 0.729
ElecMinimize: Iter: 177  F: -2112.574784427355553  |grad|_K:  1.538e-06  alpha:  9.557e-02  linmin: -5.131e-05  t[s]:  14491.90
	FillingsUpdate:  mu: +0.108326733  nElectrons: 353.000000  magneticMoment: [ Abs: 37.66562  Tot: -0.00000 ]
	SubspaceRotationAdjust: set factor to 0.774
ElecMinimize: Iter: 178  F: -2112.574830988076428  |grad|_K:  1.531e-06  alpha:  1.118e-01  linmin:  1.896e-05  t[s]:  14569.56
	FillingsUpdate:  mu: +0.108246501  nElectrons: 353.000000  magneticMoment: [ Abs: 37.65173  Tot: -0.00000 ]
	SubspaceRotationAdjust: set factor to 0.776
ElecMinimize: Iter: 179  F: -2112.574869910091820  |grad|_K:  1.542e-06  alpha:  9.521e-02  linmin:  4.983e-05  t[s]:  14644.89
	FillingsUpdate:  mu: +0.108561245  nElectrons: 353.000000  magneticMoment: [ Abs: 37.64650  Tot: +0.00000 ]
	SubspaceRotationAdjust: set factor to 0.763
ElecMinimize: Iter: 180  F: -2112.574906822343564  |grad|_K:  1.470e-06  alpha:  9.017e-02  linmin: -1.597e-05  t[s]:  14720.26
	FillingsUpdate:  mu: +0.108944290  nElectrons: 353.000000  magneticMoment: [ Abs: 37.64878  Tot: +0.00000 ]
	SubspaceRotationAdjust: set factor to 0.763
ElecMinimize: Iter: 181  F: -2112.574941723779830  |grad|_K:  1.431e-06  alpha:  9.234e-02  linmin: -7.724e-05  t[s]:  14797.26
	FillingsUpdate:  mu: +0.108821450  nElectrons: 353.000000  magneticMoment: [ Abs: 37.64660  Tot: +0.00000 ]
	SubspaceRotationAdjust: set factor to 0.88
ElecMinimize: Iter: 182  F: -2112.574976830827836  |grad|_K:  1.359e-06  alpha:  9.688e-02  linmin:  4.296e-05  t[s]:  14874.77
	FillingsUpdate:  mu: +0.108442488  nElectrons: 353.000000  magneticMoment: [ Abs: 37.64670  Tot: -0.00000 ]
	SubspaceRotationAdjust: set factor to 0.865
ElecMinimize: Iter: 183  F: -2112.575009288253113  |grad|_K:  1.403e-06  alpha:  1.020e-01  linmin:  2.701e-05  t[s]:  14952.70
	FillingsUpdate:  mu: +0.108128982  nElectrons: 353.000000  magneticMoment: [ Abs: 37.65154  Tot: -0.00000 ]
	SubspaceRotationAdjust: set factor to 0.854
ElecMinimize: Iter: 184  F: -2112.575037802634142  |grad|_K:  1.380e-06  alpha:  8.420e-02  linmin: -3.316e-05  t[s]:  15028.87
	FillingsUpdate:  mu: +0.108042026  nElectrons: 353.000000  magneticMoment: [ Abs: 37.65130  Tot: +0.00000 ]
	SubspaceRotationAdjust: set factor to 0.94
ElecMinimize: Iter: 185  F: -2112.575069960060773  |grad|_K:  1.362e-06  alpha:  9.678e-02  linmin:  9.812e-05  t[s]:  15103.90
	FillingsUpdate:  mu: +0.108483350  nElectrons: 353.000000  magneticMoment: [ Abs: 37.65621  Tot: -0.00000 ]
	SubspaceRotationAdjust: set factor to 0.942
ElecMinimize: Iter: 186  F: -2112.575099592382685  |grad|_K:  1.442e-06  alpha:  9.388e-02  linmin:  1.550e-05  t[s]:  15182.03
	FillingsUpdate:  mu: +0.109021571  nElectrons: 353.000000  magneticMoment: [ Abs: 37.66981  Tot: +0.00000 ]
	SubspaceRotationAdjust: set factor to 0.985
ElecMinimize: Iter: 187  F: -2112.575128060801035  |grad|_K:  1.381e-06  alpha:  7.973e-02  linmin: -7.882e-05  t[s]:  15260.08
	FillingsUpdate:  mu: +0.108990607  nElectrons: 353.000000  magneticMoment: [ Abs: 37.67887  Tot: -0.00000 ]
	SubspaceRotationAdjust: set factor to 0.981
ElecMinimize: Iter: 188  F: -2112.575162228952195  |grad|_K:  1.407e-06  alpha:  1.017e-01  linmin:  9.786e-05  t[s]:  15336.67
	FillingsUpdate:  mu: +0.108544835  nElectrons: 353.000000  magneticMoment: [ Abs: 37.68869  Tot: +0.00000 ]
	SubspaceRotationAdjust: set factor to 1.01
ElecMinimize: Iter: 189  F: -2112.575194472571638  |grad|_K:  1.476e-06  alpha:  9.570e-02  linmin:  4.149e-05  t[s]:  15416.43
	FillingsUpdate:  mu: +0.108048212  nElectrons: 353.000000  magneticMoment: [ Abs: 37.70200  Tot: +0.00000 ]
	SubspaceRotationAdjust: set factor to 0.999
[...]
force O   0.001452011425164  -0.005785864987228  -0.002758427627067 1
force O  -0.006313936965036  -0.001992369314591  -0.010134016653562 1
force O  -0.057869799965585   0.050626619337580   0.731404189702848 0
force O  -0.053514445807016  -0.066604091091512   0.162855318344096 0
force O   0.042909109761618   0.043896142766852  -0.011387534558563 0
force O   0.047615046917414  -0.041172719102702   0.340654277729730 0
force O  -0.006469595424401   0.005325622098788   0.201056721928721 0
force O   0.008008738307010   0.007725059263935  -0.025258841033733 0
force O  -0.001750754775583  -0.003138801334677   0.291108988730191 0
force O   0.005296307978056  -0.007826628877931   0.118228264834151 0
force O   0.010651683291815  -0.000835117661753  -0.027565264865569 1

# Energy components:
   Eewald =     5287.5778377789774822
       EH =     7188.6697218899626023
     Eloc =   -14738.7563578752433386
      Enl =     -566.1522401410159091
   Epulay =       -0.0004868641557714
      Exc =     -253.4830715195364803
       KE =      968.1450689391642754
        U =        1.3624192371909236
-------------------------------------
     Etot =    -2112.6371085546561517
       TS =        0.0010590907536641
-------------------------------------
        F =    -2112.6381676454097942

IonicMinimize: Iter:  39  F: -2112.638167645409794  |grad|_K:  4.120e-04  alpha:  1.000e+00  linmin: -1.824e-02  t[s]: 150630.62

#--- Lowdin population analysis ---
# oxidation-state Ni +3.394 +3.411 +3.430 +3.412 +3.852 +3.864
# magnetic-moments Ni -0.573 +0.790 +0.167 +0.785 +1.002 -1.018
# oxidation-state V +1.323 +1.151 +1.262 +1.045 +1.066 +1.063
# magnetic-moments V -2.126 +2.963 +2.108 +2.803 -2.760 -2.834
# oxidation-state Cr +2.876
# magnetic-moments Cr -3.965
# oxidation-state Co +1.208 +1.257 +1.255
# magnetic-moments Co +2.643 -2.725 +2.724
# oxidation-state O -0.849 -0.866 -0.847 -0.845 -0.834 -0.904 -0.869 -0.865 -0.799 -0.744 -0.751 -0.803 -0.834 -0.907 -0.807 -0.836 -0.442
# magnetic-moments O -0.058 -0.065 +0.083 +0.086 +0.081 +0.023 +0.021 +0.065 +0.042 +0.137 +0.043 +0.156 +0.108 +0.052 +0.201 +0.107 -1.177


-------- Electronic minimization -----------
	FillingsUpdate:  mu: +0.138833495  nElectrons: 353.000000  magneticMoment: [ Abs: 37.02693  Tot: +0.00000 ]
ElecMinimize: Iter:   0  F: -2112.232634443804727  |grad|_K:  1.087e-04  alpha:  1.000e+00
	FillingsUpdate:  mu: +0.088756680  nElectrons: 353.000000  magneticMoment: [ Abs: 36.92420  Tot: +0.00000 ]
	SubspaceRotationAdjust: set factor to 0.377
ElecMinimize: Iter:   1  F: -2112.607976164984393  |grad|_K:  2.240e-05  alpha:  2.021e-01  linmin:  1.645e-02  t[s]: 150732.78
	FillingsUpdate:  mu: +0.104792309  nElectrons: 353.000000  magneticMoment: [ Abs: 36.98163  Tot: -0.00000 ]
	SubspaceRotationAdjust: set factor to 0.265
ElecMinimize: Iter:   2  F: -2112.626723087874325  |grad|_K:  1.057e-05  alpha:  2.374e-01  linmin:  3.187e-03  t[s]: 150811.23
	FillingsUpdate:  mu: +0.100134557  nElectrons: 353.000000  magneticMoment: [ Abs: 37.00213  Tot: +0.00000 ]
	SubspaceRotationAdjust: set factor to 0.278
ElecMinimize: Iter:   3  F: -2112.631030751364051  |grad|_K:  5.973e-06  alpha:  2.349e-01  linmin: -2.271e-03  t[s]: 150886.14
	FillingsUpdate:  mu: +0.099205588  nElectrons: 353.000000  magneticMoment: [ Abs: 36.98774  Tot: -0.00000 ]
	SubspaceRotationAdjust: set factor to 0.334
ElecMinimize: Iter:   4  F: -2112.633825095793782  |grad|_K:  5.333e-06  alpha:  4.206e-01  linmin:  4.628e-04  t[s]: 150961.58
	FillingsUpdate:  mu: +0.100563625  nElectrons: 353.000000  magneticMoment: [ Abs: 37.00794  Tot: +0.00000 ]
	SubspaceRotationAdjust: set factor to 0.39
ElecMinimize: Iter:   5  F: -2112.635848205895400  |grad|_K:  4.935e-06  alpha:  4.298e-01  linmin:  1.623e-04  t[s]: 151039.69
	FillingsUpdate:  mu: +0.102237729  nElectrons: 353.000000  magneticMoment: [ Abs: 37.02238  Tot: -0.00000 ]
	SubspaceRotationAdjust: set factor to 0.319
ElecMinimize: Iter:   6  F: -2112.636944497164222  |grad|_K:  3.968e-06  alpha:  2.793e-01  linmin: -6.433e-06  t[s]: 151113.27
	FillingsUpdate:  mu: +0.101565533  nElectrons: 353.000000  magneticMoment: [ Abs: 37.01975  Tot: -0.00000 ]
	SubspaceRotationAdjust: set factor to 0.236
ElecMinimize: Iter:   7  F: -2112.637625884724457  |grad|_K:  2.474e-06  alpha:  2.452e-01  linmin:  2.320e-04  t[s]: 151189.64
	FillingsUpdate:  mu: +0.101935345  nElectrons: 353.000000  magneticMoment: [ Abs: 37.01668  Tot: +0.00000 ]
	SubspaceRotationAdjust: set factor to 0.26
ElecMinimize: Iter:   8  F: -2112.637965737893865  |grad|_K:  1.415e-06  alpha:  3.289e-01  linmin: -3.734e-05  t[s]: 151269.04
	FillingsUpdate:  mu: +0.102879686  nElectrons: 353.000000  magneticMoment: [ Abs: 37.01855  Tot: +0.00000 ]
	SubspaceRotationAdjust: set factor to 0.272
ElecMinimize: Iter:   9  F: -2112.638074781845262  |grad|_K:  8.611e-07  alpha:  3.117e-01  linmin: -1.086e-05  t[s]: 151347.05
	FillingsUpdate:  mu: +0.102345855  nElectrons: 353.000000  magneticMoment: [ Abs: 37.01794  Tot: +0.00000 ]
	SubspaceRotationAdjust: set factor to 0.26
ElecMinimize: Iter:  10  F: -2112.638115512394961  |grad|_K:  6.107e-07  alpha:  3.152e-01  linmin:  3.405e-05  t[s]: 151421.85
	FillingsUpdate:  mu: +0.102595445  nElectrons: 353.000000  magneticMoment: [ Abs: 37.01720  Tot: +0.00000 ]
	SubspaceRotationAdjust: set factor to 0.252
ElecMinimize: Iter:  11  F: -2112.638135017571130  |grad|_K:  3.859e-07  alpha:  3.012e-01  linmin: -3.882e-05  t[s]: 151498.93
	FillingsUpdate:  mu: +0.102523959  nElectrons: 353.000000  magneticMoment: [ Abs: 37.01745  Tot: -0.00000 ]
	SubspaceRotationAdjust: set factor to 0.295
ElecMinimize: Iter:  12  F: -2112.638144586672752  |grad|_K:  2.899e-07  alpha:  3.682e-01  linmin:  8.101e-06  t[s]: 151576.83
	FillingsUpdate:  mu: +0.102566222  nElectrons: 353.000000  magneticMoment: [ Abs: 37.01769  Tot: -0.00000 ]
	SubspaceRotationAdjust: set factor to 0.364
ElecMinimize: Iter:  13  F: -2112.638149948588307  |grad|_K:  2.301e-07  alpha:  3.667e-01  linmin:  4.269e-08  t[s]: 151653.05
	FillingsUpdate:  mu: +0.102615965  nElectrons: 353.000000  magneticMoment: [ Abs: 37.01779  Tot: +0.00000 ]
	SubspaceRotationAdjust: set factor to 0.409
ElecMinimize: Iter:  14  F: -2112.638153360292108  |grad|_K:  1.897e-07  alpha:  3.702e-01  linmin: -2.031e-06  t[s]: 151729.17
	FillingsUpdate:  mu: +0.102495349  nElectrons: 353.000000  magneticMoment: [ Abs: 37.01810  Tot: -0.00000 ]
	SubspaceRotationAdjust: set factor to 0.361
ElecMinimize: Iter:  15  F: -2112.638155243854271  |grad|_K:  1.626e-07  alpha:  3.002e-01  linmin:  7.457e-06  t[s]: 151805.13
	FillingsUpdate:  mu: +0.102641962  nElectrons: 353.000000  magneticMoment: [ Abs: 37.01844  Tot: +0.00000 ]
	SubspaceRotationAdjust: set factor to 0.273
ElecMinimize: Iter:  16  F: -2112.638156319756490  |grad|_K:  1.194e-07  alpha:  2.342e-01  linmin: -4.315e-06  t[s]: 151882.77
	FillingsUpdate:  mu: +0.102566628  nElectrons: 353.000000  magneticMoment: [ Abs: 37.01861  Tot: +0.00000 ]
	SubspaceRotationAdjust: set factor to 0.28
ElecMinimize: Iter:  17  F: -2112.638157026877252  |grad|_K:  8.156e-08  alpha:  2.849e-01  linmin:  2.097e-06  t[s]: 151956.01
	FillingsUpdate:  mu: +0.102560299  nElectrons: 353.000000  magneticMoment: [ Abs: 37.01884  Tot: +0.00000 ]
	SubspaceRotationAdjust: set factor to 0.331
ElecMinimize: Iter:  18  F: -2112.638157423792109  |grad|_K:  6.219e-08  alpha:  3.428e-01  linmin:  7.942e-06  t[s]: 152033.61
	FillingsUpdate:  mu: +0.102616352  nElectrons: 353.000000  magneticMoment: [ Abs: 37.01914  Tot: +0.00000 ]
	SubspaceRotationAdjust: set factor to 0.35
ElecMinimize: Iter:  19  F: -2112.638157654145743  |grad|_K:  5.534e-08  alpha:  3.420e-01  linmin: -1.786e-05  t[s]: 152110.79
	FillingsUpdate:  mu: +0.102573237  nElectrons: 353.000000  magneticMoment: [ Abs: 37.01934  Tot: +0.00000 ]
	SubspaceRotationAdjust: set factor to 0.351
ElecMinimize: Iter:  20  F: -2112.638157826617771  |grad|_K:  5.216e-08  alpha:  3.230e-01  linmin:  3.148e-06  t[s]: 152193.07
	FillingsUpdate:  mu: +0.102593027  nElectrons: 353.000000  magneticMoment: [ Abs: 37.01956  Tot: +0.00000 ]
	SubspaceRotationAdjust: set factor to 0.375
ElecMinimize: Iter:  21  F: -2112.638158013896827  |grad|_K:  5.166e-08  alpha:  3.953e-01  linmin: -5.520e-07  t[s]: 152269.01
ElecMinimize: Converged (|Delta F|<1.000000e-06 for 5 iters).
Setting wave functions to eigenvectors of Hamiltonian
IonicMinimize: 	Wolfe criterion not satisfied: alpha: 1  (E-E0)/|gdotd0|: 0.115584  gdotd/gdotd0: -1.33406 (taking cubic step)

-------- Electronic minimization -----------
	FillingsUpdate:  mu: +0.101182547  nElectrons: 353.000000  magneticMoment: [ Abs: 37.01939  Tot: +0.00000 ]
ElecMinimize: Iter:   0  F: -2112.618006512022475  |grad|_K:  2.464e-05  alpha:  1.000e+00
	FillingsUpdate:  mu: +0.102738790  nElectrons: 353.000000  magneticMoment: [ Abs: 37.03442  Tot: +0.00000 ]
	SubspaceRotationAdjust: set factor to 0.317
ElecMinimize: Iter:   1  F: -2112.637194233184346  |grad|_K:  4.424e-06  alpha:  1.811e-01  linmin: -4.977e-04  t[s]: 152406.87
	FillingsUpdate:  mu: +0.103258716  nElectrons: 353.000000  magneticMoment: [ Abs: 37.02689  Tot: +0.00000 ]
	SubspaceRotationAdjust: set factor to 0.204
ElecMinimize: Iter:   2  F: -2112.637746337548833  |grad|_K:  2.430e-06  alpha:  1.632e-01  linmin: -1.482e-03  t[s]: 152484.56
	FillingsUpdate:  mu: +0.101943015  nElectrons: 353.000000  magneticMoment: [ Abs: 37.02368  Tot: +0.00000 ]
	SubspaceRotationAdjust: set factor to 0.148
ElecMinimize: Iter:   3  F: -2112.638003861058223  |grad|_K:  1.310e-06  alpha:  2.451e-01  linmin:  7.531e-04  t[s]: 152561.87
	FillingsUpdate:  mu: +0.102394528  nElectrons: 353.000000  magneticMoment: [ Abs: 37.02454  Tot: +0.00000 ]
	SubspaceRotationAdjust: set factor to 0.172
ElecMinimize: Iter:   4  F: -2112.638082062734611  |grad|_K:  9.308e-07  alpha:  2.682e-01  linmin: -2.426e-06  t[s]: 152639.98
	FillingsUpdate:  mu: +0.102968130  nElectrons: 353.000000  magneticMoment: [ Abs: 37.02544  Tot: -0.00000 ]
	SubspaceRotationAdjust: set factor to 0.177
ElecMinimize: Iter:   5  F: -2112.638122107163781  |grad|_K:  5.980e-07  alpha:  2.654e-01  linmin: -1.643e-05  t[s]: 152715.95
	FillingsUpdate:  mu: +0.102848767  nElectrons: 353.000000  magneticMoment: [ Abs: 37.02575  Tot: +0.00000 ]
	SubspaceRotationAdjust: set factor to 0.207
ElecMinimize: Iter:   6  F: -2112.638142163376870  |grad|_K:  4.331e-07  alpha:  3.219e-01  linmin:  1.218e-06  t[s]: 152792.12
	FillingsUpdate:  mu: +0.102687519  nElectrons: 353.000000  magneticMoment: [ Abs: 37.02565  Tot: +0.00000 ]
	SubspaceRotationAdjust: set factor to 0.245
ElecMinimize: Iter:   7  F: -2112.638153304432763  |grad|_K:  3.503e-07  alpha:  3.412e-01  linmin:  1.250e-06  t[s]: 152868.71
	FillingsUpdate:  mu: +0.102795770  nElectrons: 353.000000  magneticMoment: [ Abs: 37.02545  Tot: -0.00000 ]
	SubspaceRotationAdjust: set factor to 0.287
ElecMinimize: Iter:   8  F: -2112.638160768415673  |grad|_K:  3.166e-07  alpha:  3.495e-01  linmin: -1.553e-06  t[s]: 152945.14
	FillingsUpdate:  mu: +0.102781298  nElectrons: 353.000000  magneticMoment: [ Abs: 37.02530  Tot: -0.00000 ]
	SubspaceRotationAdjust: set factor to 0.343
ElecMinimize: Iter:   9  F: -2112.638167071296721  |grad|_K:  2.811e-07  alpha:  3.610e-01  linmin:  1.749e-07  t[s]: 153021.79
	FillingsUpdate:  mu: +0.102714966  nElectrons: 353.000000  magneticMoment: [ Abs: 37.02515  Tot: +0.00000 ]
	SubspaceRotationAdjust: set factor to 0.385
ElecMinimize: Iter:  10  F: -2112.638171878506000  |grad|_K:  2.427e-07  alpha:  3.495e-01  linmin:  1.042e-06  t[s]: 153099.28
	FillingsUpdate:  mu: +0.102833073  nElectrons: 353.000000  magneticMoment: [ Abs: 37.02500  Tot: +0.00000 ]
	SubspaceRotationAdjust: set factor to 0.369
ElecMinimize: Iter:  11  F: -2112.638174948064261  |grad|_K:  1.961e-07  alpha:  2.995e-01  linmin: -2.035e-06  t[s]: 153175.81
	FillingsUpdate:  mu: +0.102717260  nElectrons: 353.000000  magneticMoment: [ Abs: 37.02502  Tot: -0.00000 ]
	SubspaceRotationAdjust: set factor to 0.295
ElecMinimize: Iter:  12  F: -2112.638176537072013  |grad|_K:  1.486e-07  alpha:  2.369e-01  linmin:  2.482e-06  t[s]: 153253.33
	FillingsUpdate:  mu: +0.102782018  nElectrons: 353.000000  magneticMoment: [ Abs: 37.02491  Tot: -0.00000 ]
	SubspaceRotationAdjust: set factor to 0.258
ElecMinimize: Iter:  13  F: -2112.638177516055748  |grad|_K:  1.052e-07  alpha:  2.548e-01  linmin: -2.129e-06  t[s]: 153327.84
	FillingsUpdate:  mu: +0.102763337  nElectrons: 353.000000  magneticMoment: [ Abs: 37.02490  Tot: -0.00000 ]
	SubspaceRotationAdjust: set factor to 0.281
ElecMinimize: Iter:  14  F: -2112.638178091546251  |grad|_K:  7.717e-08  alpha:  2.985e-01  linmin:  3.077e-06  t[s]: 153404.37
	FillingsUpdate:  mu: +0.102743335  nElectrons: 353.000000  magneticMoment: [ Abs: 37.02494  Tot: -0.00000 ]
	SubspaceRotationAdjust: set factor to 0.288
ElecMinimize: Iter:  15  F: -2112.638178393128328  |grad|_K:  6.109e-08  alpha:  2.910e-01  linmin: -4.750e-06  t[s]: 153482.40
	FillingsUpdate:  mu: +0.102773861  nElectrons: 353.000000  magneticMoment: [ Abs: 37.02495  Tot: +0.00000 ]
	SubspaceRotationAdjust: set factor to 0.301
ElecMinimize: Iter:  16  F: -2112.638178584660182  |grad|_K:  4.745e-08  alpha:  2.947e-01  linmin: -6.052e-06  t[s]: 153558.65
	FillingsUpdate:  mu: +0.102760166  nElectrons: 353.000000  magneticMoment: [ Abs: 37.02497  Tot: -0.00000 ]
	SubspaceRotationAdjust: set factor to 0.357
ElecMinimize: Iter:  17  F: -2112.638178713540583  |grad|_K:  4.024e-08  alpha:  3.286e-01  linmin:  3.829e-05  t[s]: 153634.78
ElecMinimize: Converged (|Delta F|<1.000000e-06 for 5 iters).
Setting wave functions to eigenvectors of Hamiltonian

# Ionic positions in lattice coordinates:
ion Ni   0.097134668484783   0.012416556450728   0.200331229276691 1
ion Ni   0.000000000000000   0.000000000000000  -0.050000000000000 0
ion Ni   0.000000000000000   0.500000000000000  -0.050000000000000 0
ion Ni   0.500000000000000   0.500000000000000  -0.050000000000000 0
ion Ni   0.250000000000000   0.750000000000000  -0.150000000000000 0
ion Ni  -0.250000000000000   0.250000000000000  -0.150000000000000 0
ion V   0.525135382420386  -0.000273610879905   0.157314179785535 1
ion V  -0.012965310281545   0.501715546652548   0.162053792184316 1
ion V   0.246357814084513   0.246521112437295   0.051291990514569 1
ion V   0.247832227641551   0.755422037889922   0.052225856917665 1
ion V  -0.247477560267380   0.254861199080004   0.051426361645936 1
ion V  -0.245112665762139   0.748404302555147   0.050762092011977 1
ion Cr   0.483117180442667   0.503591419830232   0.164059676934785 1
ion Co   0.500000000000000   0.000000000000000  -0.050000000000000 0
ion Co   0.250000000000000   0.250000000000000  -0.150000000000000 0
ion Co  -0.250000000000000   0.750000000000000  -0.150000000000000 0
ion O   0.258222759774301   0.243667360647652   0.150008681890861 1
ion O   0.259579384402844   0.765625464601158   0.155047080774573 1
ion O  -0.285383758642088   0.260799077407349   0.150727863987729 1
ion O  -0.281660105186633   0.743568900301399   0.150368514712368 1
ion O   0.006962823185083   0.013109935332719   0.045809147894163 1
ion O   0.497679716436674   0.008419737063905   0.056982999698441 1
ion O   0.010050004441817   0.494331012690052   0.059253604727032 1
ion O   0.488464336498542   0.490829313410659   0.046131170096807 1
ion O   0.250000000000000   0.250000000000000  -0.050000000000000 0
ion O   0.250000000000000   0.750000000000000  -0.050000000000000 0
ion O  -0.250000000000000   0.250000000000000  -0.050000000000000 0
ion O  -0.250000000000000   0.750000000000000  -0.050000000000000 0
ion O   0.000000000000000   0.000000000000000  -0.150000000000000 0
ion O   0.500000000000000   0.000000000000000  -0.150000000000000 0
ion O   0.000000000000000   0.500000000000000  -0.150000000000000 0
ion O   0.500000000000000   0.500000000000000  -0.150000000000000 0
ion O  -0.078990545410873   0.008011371393352   0.260956717667506 1

# Forces in Lattice coordinates:
force Ni  -0.004698976614588  -0.003666297377274  -0.016197605146406 1
force Ni   0.005256937410726  -0.000931463179091  -0.710697268861002 0
force Ni   0.004704035372862   0.011828887263739  -0.852442166809069 0
force Ni  -0.009852719864628   0.003357934681926  -0.668232504096353 0
force Ni  -0.015296642673174  -0.016760449585616   0.571363643102834 0
force Ni   0.018243148644042   0.015063499632564   0.611062820679630 0
force V   0.005864238497924   0.001333448673371   0.011844194547396 1
force V  -0.003658988684589  -0.003617875332917  -0.007881244642187 1
force V  -0.001966818963201  -0.007694037276045   0.001047543674613 1
force V  -0.001821412801102   0.002254179860547   0.002861186793110 1
force V  -0.002151899017888   0.000416357774582  -0.011857087737445 1
force V  -0.001230704493854  -0.001832155244509  -0.021171112252827 1
force Cr   0.001317331040948  -0.000038554719231   0.005926767768003 1
force Co   0.022950123614259  -0.003740116503653  -0.719149751169866 0
force Co   0.008561180851694   0.017479678242737  -0.116167795112924 0
force Co  -0.003749999957204  -0.013837210220528  -0.068886471192511 0
force O  -0.001050862529703  -0.003302827096443   0.018634306931341 1
force O  -0.004572008078361  -0.001167465990977   0.010644884854751 1
force O  -0.002534315416637  -0.002754279724419  -0.008198753254692 1
force O  -0.002824003629282  -0.003706517366424  -0.003702800715388 1
force O  -0.003711611182738  -0.001037616716746   0.007552024873330 1
force O  -0.005658832323741   0.002677927038595   0.020860006136223 1
force O   0.003915036685952  -0.004593472832617   0.005173195327944 1
force O  -0.003972871134684  -0.001344660931269  -0.005733818366732 1
force O  -0.058818693382172   0.052156507825798   0.727723856002024 0
force O  -0.054839232225434  -0.067517238757700   0.163553804719172 0
force O   0.044085897155317   0.044894840059346  -0.012238218144663 0
force O   0.048863443938247  -0.042610597333600   0.343449383224785 0
force O  -0.007078820558996   0.005748461125628   0.200045151962660 0
force O   0.008646912376396   0.008137057511680  -0.025175394122392 0
force O  -0.002420591854968  -0.003573105713764   0.290683277696358 0
force O   0.005959954462127  -0.008300172768271   0.118336708806559 0
force O   0.010239149152450  -0.001033021915063  -0.019340349085802 1

# Energy components:
   Eewald =     5282.3575815400399733
       EH =     7183.4279022706123214
     Eloc =   -14728.2897317801471218
      Enl =     -566.1487498351132217
   Epulay =       -0.0004868641557714
      Exc =     -253.4800046651807861
       KE =      968.1339140264940397
        U =        1.3624426398960467
-------------------------------------
     Etot =    -2112.6371326675548517
       TS =        0.0010460459856453
-------------------------------------
        F =    -2112.6381787135405830

IonicMinimize: Iter:  40  F: -2112.638178713540583  |grad|_K:  3.149e-04  alpha:  4.613e-01  linmin:  8.018e-03  t[s]: 153645.90
IonicMinimize: Converged (|Delta F|<1.000000e-04 for 3 iters).

#--- Lowdin population analysis ---
# oxidation-state Ni +3.392 +3.412 +3.432 +3.413 +3.852 +3.865
# magnetic-moments Ni -0.571 +0.790 +0.161 +0.785 +1.002 -1.018
# oxidation-state V +1.323 +1.152 +1.263 +1.045 +1.066 +1.063
# magnetic-moments V -2.127 +2.964 +2.108 +2.804 -2.759 -2.834
# oxidation-state Cr +2.876
# magnetic-moments Cr -3.965
# oxidation-state Co +1.209 +1.257 +1.255
# magnetic-moments Co +2.644 -2.725 +2.724
# oxidation-state O -0.850 -0.866 -0.847 -0.845 -0.834 -0.904 -0.869 -0.865 -0.799 -0.744 -0.750 -0.802 -0.834 -0.907 -0.807 -0.836 -0.443
# magnetic-moments O -0.057 -0.064 +0.083 +0.086 +0.082 +0.023 +0.022 +0.066 +0.042 +0.137 +0.042 +0.156 +0.108 +0.052 +0.202 +0.107 -1.174


Dumping 'run.ionpos' ... done
Dumping 'run.lattice' ... done
Dumping 'run.Ecomponents' ... done
End date and time: Tue May 20 00:10:46 2025  (Duration: 1-18:40:49.10)
Done!
