
*************** JDFTx 1.7.0  ***************

Start date and time: Fri May  2 01:55:20 2025
Executable /data2/jt577/jdftx_eat_withLibXC/build/jdftx with command-line: -i /data2/jt577/March_2025/pure_RSO/ionic_relax_noMagnetism/pure_CrO/runs/calc_20250501-224536/OH/OH.in
Running on hosts (process indices):  node3213 (0-8)
Divided in process groups (process indices):  0 (0)  1 (1)  2 (2)  3 (3)  4 (4)  5 (5)  6 (6)  7 (7)  8 (8)
Resource initialization completed at t[s]:      0.00
Run totals: 9 processes, 36 threads, 0 GPUs


Input parsed successfully to the following command list (including defaults):

add-mix 
basis kpoint-dependent
coords-type Lattice
core-overlap-check vector
coulomb-interaction Periodic
davidson-band-ratio 1.1
dump End IonicPositions Lattice Ecomponents
dump-name OH.$VAR
elec-cutoff 30
elec-eigen-algo Davidson
elec-ex-corr gga-x-rpbe gga-c-pbe
elec-smearing Fermi 0.001
electronic-minimize  \
	dirUpdateScheme      FletcherReeves \
	linminMethod         DirUpdateRecommended \
	nIterations          1000 \
	history              15 \
	knormThreshold       0 \
	energyDiffThreshold  1e-06 \
	nEnergyDiff          5 \
	alphaTstart          1 \
	alphaTmin            1e-10 \
	updateTestStepSize   yes \
	alphaTreduceFactor   0.1 \
	alphaTincreaseFactor 3 \
	nAlphaAdjustMax      3 \
	wolfeEnergy          0.0001 \
	wolfeGradient        0.9 \
	fdTest               no
exchange-regularization WignerSeitzTruncated
fluid None
fluid-ex-corr (null) lda-PZ
fluid-gummel-loop 10 1.000000e-05
fluid-minimize  \
	dirUpdateScheme      PolakRibiere \
	linminMethod         DirUpdateRecommended \
	nIterations          100 \
	history              15 \
	knormThreshold       0 \
	energyDiffThreshold  0 \
	nEnergyDiff          2 \
	alphaTstart          1 \
	alphaTmin            1e-10 \
	updateTestStepSize   yes \
	alphaTreduceFactor   0.1 \
	alphaTincreaseFactor 3 \
	nAlphaAdjustMax      3 \
	wolfeEnergy          0.0001 \
	wolfeGradient        0.9 \
	fdTest               no
fluid-solvent H2O 55.338 ScalarEOS \
	epsBulk 78.4 \
	pMol 0.92466 \
	epsInf 1.77 \
	Pvap 1.06736e-10 \
	sigmaBulk 4.62e-05 \
	Rvdw 2.61727 \
	Res 1.42 \
	tauNuc 343133 \
	poleEl 15 7 1
forces-output-coords Positions
initial-state OH.$VAR
ion Cr  0.000000000000000   0.000000000000000   0.150000000000000 0
ion Cr  0.500000000000000   0.000000000000000   0.150000000000000 0
ion Cr  0.000000000000000   0.500000000000000   0.150000000000000 0
ion Cr  0.500000000000000   0.500000000000000   0.150000000000000 0
ion Cr  0.250000000000000   0.250000000000000   0.050000000000000 0
ion Cr  0.250000000000000   0.750000000000000   0.050000000000000 0
ion Cr -0.250000000000000   0.250000000000000   0.050000000000000 0
ion Cr -0.250000000000000   0.750000000000000   0.050000000000000 0
ion Cr  0.000000000000000   0.000000000000000  -0.050000000000000 0
ion Cr  0.500000000000000   0.000000000000000  -0.050000000000000 0
ion Cr  0.000000000000000   0.500000000000000  -0.050000000000000 0
ion Cr  0.500000000000000   0.500000000000000  -0.050000000000000 0
ion Cr  0.250000000000000   0.250000000000000  -0.150000000000000 0
ion Cr  0.250000000000000   0.750000000000000  -0.150000000000000 0
ion Cr -0.250000000000000   0.250000000000000  -0.150000000000000 0
ion Cr -0.250000000000000   0.750000000000000  -0.150000000000000 0
ion O  0.250000000000000   0.250000000000000   0.150000000000000 0
ion O  0.250000000000000   0.750000000000000   0.150000000000000 0
ion O -0.250000000000000   0.250000000000000   0.150000000000000 0
ion O -0.250000000000000   0.750000000000000   0.150000000000000 0
ion O  0.000000000000000   0.000000000000000   0.050000000000000 0
ion O  0.500000000000000   0.000000000000000   0.050000000000000 0
ion O  0.000000000000000   0.500000000000000   0.050000000000000 0
ion O  0.500000000000000   0.500000000000000   0.050000000000000 0
ion O  0.250000000000000   0.250000000000000  -0.050000000000000 0
ion O  0.250000000000000   0.750000000000000  -0.050000000000000 0
ion O -0.250000000000000   0.250000000000000  -0.050000000000000 0
ion O -0.250000000000000   0.750000000000000  -0.050000000000000 0
ion O  0.000000000000000   0.000000000000000  -0.150000000000000 0
ion O  0.500000000000000   0.000000000000000  -0.150000000000000 0
ion O  0.000000000000000   0.500000000000000  -0.150000000000000 0
ion O  0.500000000000000   0.500000000000000  -0.150000000000000 0
ion O  0.000000000000000   0.000000000000000   0.230000000000000 1
ion H  0.100000000000000   0.100000000000000   0.250000000000000 1
ion-species SG15/$ID_ONCV_PBE.upf
ion-width 0
ionic-minimize  \
	dirUpdateScheme      L-BFGS \
	linminMethod         DirUpdateRecommended \
	nIterations          1000 \
	history              15 \
	knormThreshold       0.0001 \
	energyDiffThreshold  0.0001 \
	nEnergyDiff          3 \
	alphaTstart          1 \
	alphaTmin            1e-10 \
	updateTestStepSize   yes \
	alphaTreduceFactor   0.1 \
	alphaTincreaseFactor 3 \
	nAlphaAdjustMax      3 \
	wolfeEnergy          0.0001 \
	wolfeGradient        0.9 \
	fdTest               no
kpoint   0.500000000000   0.500000000000   0.500000000000  1.00000000000000
kpoint-folding 3 3 1 
latt-move-scale 1 1 1
latt-scale 1 1 1 
lattice  \
	   8.410000000000000    8.410000000000000    0.000000000000000  \
	   8.410000000000000   -8.410000000000000    0.000000000000000  \
	   0.000000000000000    0.000000000000000   42.049999999999997 
lattice-minimize  \
	dirUpdateScheme      L-BFGS \
	linminMethod         DirUpdateRecommended \
	nIterations          0 \
	history              15 \
	knormThreshold       0 \
	energyDiffThreshold  1e-06 \
	nEnergyDiff          2 \
	alphaTstart          1 \
	alphaTmin            1e-10 \
	updateTestStepSize   yes \
	alphaTreduceFactor   0.1 \
	alphaTincreaseFactor 3 \
	nAlphaAdjustMax      3 \
	wolfeEnergy          0.0001 \
	wolfeGradient        0.9 \
	fdTest               no
lcao-params -1 1e-06 0.001
pcm-variant GLSSA13
spintype no-spin
subspace-rotation-factor 1 yes
symmetries none
symmetry-threshold 0.0001


Applied RMS atom displacement 0 bohrs to make symmetries exact.

---------- Initializing the Grid ----------
R = 
[         8.41         8.41            0  ]
[         8.41        -8.41            0  ]
[            0            0        42.05  ]
unit cell volume = 5948.23
G =
[   0.373554   0.373554         -0  ]
[   0.373554  -0.373554         -0  ]
[         -0         -0   0.149422  ]
Minimum fftbox size, Smin = [  60  60  208  ]
Chosen fftbox size, S = [  60  60  210  ]

---------- Exchange Correlation functional ----------
Initialized LibXC exchange functional 'Hammer, Hansen, and Norskov'
Initialized LibXC correlation functional 'Perdew, Burke & Ernzerhof'

---------- Setting up pseudopotentials ----------
Width of ionic core gaussian charges (only for fluid interactions / plotting) set to 0

Reading pseudopotential file '/data2/jt577/jdftx_eat_withLibXC/build/pseudopotentials/SG15/Cr_ONCV_PBE.upf':
  'Cr' pseudopotential, 'PBE' functional
  Generated using ONCVPSP code by D. R. Hamann
  Author: Martin Schlipf and Francois Gygi  Date: 150915.
  14 valence electrons, 4 orbitals, 6 projectors, 1160 radial grid points, with lMax = 2
  Transforming local potential to a uniform radial grid of dG=0.02 with 1373 points.
  Transforming nonlocal projectors to a uniform radial grid of dG=0.02 with 528 points.
    3S    l: 0   occupation:  2.0   eigenvalue: -2.865131
    3P    l: 1   occupation:  6.0   eigenvalue: -1.810600
    4S    l: 0   occupation:  2.0   eigenvalue: -0.180525
    3D    l: 2   occupation:  4.0   eigenvalue: -0.220312
  Transforming atomic orbitals to a uniform radial grid of dG=0.02 with 528 points.
  WARNING: large normalization error in atomic orbital 1s (integral: 0.000001).
  Core radius for overlap checks: 2.10 bohrs.
  Reading pulay file /data2/jt577/jdftx_eat_withLibXC/build/pseudopotentials/SG15/Cr_ONCV_PBE.pulay ... using dE_dnG = -9.817895e-06 computed for Ecut = 30.

Reading pseudopotential file '/data2/jt577/jdftx_eat_withLibXC/build/pseudopotentials/SG15/O_ONCV_PBE.upf':
  'O' pseudopotential, 'PBE' functional
  Generated using ONCVPSP code by D. R. Hamann
  Author: Martin Schlipf and Francois Gygi  Date: 150915.
  6 valence electrons, 2 orbitals, 4 projectors, 936 radial grid points, with lMax = 1
  Transforming local potential to a uniform radial grid of dG=0.02 with 1373 points.
  Transforming nonlocal projectors to a uniform radial grid of dG=0.02 with 528 points.
    2S    l: 0   occupation:  2.0   eigenvalue: -0.880572
    2P    l: 1   occupation:  4.0   eigenvalue: -0.331869
  Transforming atomic orbitals to a uniform radial grid of dG=0.02 with 528 points.
  Core radius for overlap checks: 1.29 bohrs.
  Reading pulay file /data2/jt577/jdftx_eat_withLibXC/build/pseudopotentials/SG15/O_ONCV_PBE.pulay ... using dE_dnG = -8.209514e-03 computed for Ecut = 30.

Reading pseudopotential file '/data2/jt577/jdftx_eat_withLibXC/build/pseudopotentials/SG15/H_ONCV_PBE.upf':
  'H' pseudopotential, 'PBE' functional
  Generated using ONCVPSP code by D. R. Hamann
  Author: Martin Schlipf and Francois Gygi  Date: 150915.
  1 valence electrons, 1 orbitals, 2 projectors, 1166 radial grid points, with lMax = 0
  Transforming local potential to a uniform radial grid of dG=0.02 with 1373 points.
  Transforming nonlocal projectors to a uniform radial grid of dG=0.02 with 528 points.
    1S    l: 0   occupation:  1.0   eigenvalue: -0.238602
  Transforming atomic orbitals to a uniform radial grid of dG=0.02 with 528 points.
  Core radius for overlap checks: 1.01 bohrs.
  Reading pulay file /data2/jt577/jdftx_eat_withLibXC/build/pseudopotentials/SG15/H_ONCV_PBE.pulay ... using dE_dnG = -8.245991e-05 computed for Ecut = 30.

Initialized 3 species with 34 total atoms.

Folded 1 k-points by 3x3x1 to 9 k-points.

---------- Setting up k-points, bands, fillings ----------
No reducable k-points. 
Computing the number of bands and number of electrons
Calculating initial fillings.
nElectrons: 327.000000   nBands: 229   nStates: 9

----- Setting up reduced wavefunction bases (one per k-point) -----
average nbasis = 46667.556 , ideal nbasis = 46683.549

---------- Setting up ewald sum ----------
Optimum gaussian width for ewald sums = 4.015993 bohr.
Real space sum over 605 unit cells with max indices [  5  5  2  ]
Reciprocal space sum over 5915 terms with max indices [  6  6  17  ]

---------- Allocating electronic variables ----------
Initializing wave functions:  linear combination of atomic orbitals
Cr pseudo-atom occupations:   s ( 2 0 )  p ( 6 )  d ( 6 )
O pseudo-atom occupations:   s ( 2 )  p ( 4 )
H pseudo-atom occupations:   s ( 1 )
	FillingsUpdate:  mu: +0.722949347  nElectrons: 327.000000
LCAOMinimize: Iter:   0  F: -1481.5705013182914627  |grad|_K:  1.863e-02  alpha:  1.000e+00
LCAOMinimize: 	Step increased F by 7.782985e+01, reducing alpha to 2.559425e-02.
	FillingsUpdate:  mu: +0.547051024  nElectrons: 327.000000
LCAOMinimize: Iter:   1  F: -1485.4012681613507993  |grad|_K:  1.687e-02  alpha:  2.559e-02  linmin: -9.374e-02  cgtest:  8.001e-01  t[s]:     49.70
LCAOMinimize: 	Wrong curvature in test step, increasing alphaT to 7.678275e-02.
	FillingsUpdate:  mu: +0.463295902  nElectrons: 327.000000
LCAOMinimize: Iter:   2  F: -1489.5497084475655356  |grad|_K:  1.755e-02  alpha: -1.488e-01  linmin: -7.551e-02  cgtest:  8.296e-01  t[s]:     61.88
LCAOMinimize: 	Step increased F by 2.234600e+01, reducing alpha to 4.336771e-02.
	FillingsUpdate:  mu: +0.343170466  nElectrons: 327.000000
LCAOMinimize: Iter:   3  F: -1496.7157232197414487  |grad|_K:  1.604e-02  alpha:  4.337e-02  linmin: -1.598e-01  cgtest:  8.856e-01  t[s]:     84.85
LCAOMinimize: 	Wrong curvature in test step, increasing alphaT to 1.301031e-01.
	FillingsUpdate:  mu: +0.400072870  nElectrons: 327.000000
LCAOMinimize: Iter:   4  F: -1503.3671105548737614  |grad|_K:  1.726e-02  alpha: -1.045e-01  linmin: -1.631e-01  cgtest:  6.920e-01  t[s]:     96.97
LCAOMinimize: 	Step increased F by 3.415802e+01, reducing alpha to 4.131806e-02.
	FillingsUpdate:  mu: +0.118577061  nElectrons: 327.000000
LCAOMinimize: Iter:   5  F: -1513.4898451516673958  |grad|_K:  1.957e-02  alpha:  4.132e-02  linmin: -7.866e-02  cgtest:  3.876e-01  t[s]:    119.90
	FillingsUpdate:  mu: +0.254230475  nElectrons: 327.000000
LCAOMinimize: Iter:   6  F: -1516.6850934567148670  |grad|_K:  2.345e-02  alpha:  1.770e-02  linmin: -2.614e-04  cgtest: -5.847e-01  t[s]:    133.30
	FillingsUpdate:  mu: +0.265866658  nElectrons: 327.000000
LCAOMinimize: Iter:   7  F: -1517.2233113060356118  |grad|_K:  2.231e-02  alpha:  5.265e-03  linmin:  5.411e-03  cgtest:  9.487e-01  t[s]:    146.68
	FillingsUpdate:  mu: +0.009306075  nElectrons: 327.000000
LCAOMinimize: Iter:   8  F: -1517.8931750793933588  |grad|_K:  4.785e-03  alpha:  5.734e-03  linmin:  9.060e-02  cgtest: -3.543e-01  t[s]:    159.88
LCAOMinimize: 	Predicted alpha/alphaT>3.000000, increasing alphaT to 1.720179e-02.
	FillingsUpdate:  mu: +0.022922941  nElectrons: 327.000000
LCAOMinimize: Iter:   9  F: -1517.9947137114652378  |grad|_K:  3.170e-03  alpha:  2.466e-02  linmin: -1.326e-02  cgtest:  5.911e-01  t[s]:    177.06
	FillingsUpdate:  mu: +0.011576073  nElectrons: 327.000000
LCAOMinimize: Iter:  10  F: -1518.0115924781052854  |grad|_K:  1.829e-03  alpha:  7.211e-03  linmin:  8.532e-03  cgtest: -5.058e-02  t[s]:    190.62
LCAOMinimize: 	Predicted alpha/alphaT>3.000000, increasing alphaT to 2.163431e-02.
LCAOMinimize: 	Predicted alpha/alphaT>3.000000, increasing alphaT to 6.490292e-02.
	FillingsUpdate:  mu: -0.014411558  nElectrons: 327.000000
LCAOMinimize: Iter:  11  F: -1518.0772994635965460  |grad|_K:  2.762e-03  alpha:  8.909e-02  linmin:  8.742e-03  cgtest: -2.089e-01  t[s]:    211.73
	FillingsUpdate:  mu: +0.012595550  nElectrons: 327.000000
LCAOMinimize: Iter:  12  F: -1518.1208474832585580  |grad|_K:  3.106e-03  alpha:  3.517e-02  linmin:  4.038e-03  cgtest:  1.747e-01  t[s]:    224.90
	FillingsUpdate:  mu: -0.003855116  nElectrons: 327.000000
LCAOMinimize: Iter:  13  F: -1518.1510360066249632  |grad|_K:  3.222e-03  alpha:  1.518e-02  linmin:  1.747e-03  cgtest:  1.119e-02  t[s]:    238.14
	FillingsUpdate:  mu: -0.014855520  nElectrons: 327.000000
LCAOMinimize: Iter:  14  F: -1518.1998289074335844  |grad|_K:  2.166e-03  alpha:  2.052e-02  linmin: -6.114e-04  cgtest: -5.432e-03  t[s]:    251.26
	FillingsUpdate:  mu: -0.047303978  nElectrons: 327.000000
LCAOMinimize: Iter:  15  F: -1518.2537567141714590  |grad|_K:  3.537e-03  alpha:  4.863e-02  linmin:  8.222e-04  cgtest: -2.705e-02  t[s]:    264.47
	FillingsUpdate:  mu: -0.051542858  nElectrons: 327.000000
LCAOMinimize: Iter:  16  F: -1518.2858258591315916  |grad|_K:  1.624e-03  alpha:  1.761e-02  linmin:  1.428e-02  cgtest: -4.627e-01  t[s]:    277.71
	FillingsUpdate:  mu: -0.055008473  nElectrons: 327.000000
LCAOMinimize: Iter:  17  F: -1518.2881239438138437  |grad|_K:  8.959e-04  alpha:  6.537e-03  linmin: -3.041e-04  cgtest:  8.929e-01  t[s]:    290.98
LCAOMinimize: Encountered beta<0, resetting CG.
	FillingsUpdate:  mu: -0.048813640  nElectrons: 327.000000
LCAOMinimize: Iter:  18  F: -1518.2916131439781111  |grad|_K:  9.824e-04  alpha:  1.820e-02  linmin: -1.218e-03  cgtest:  5.400e-03  t[s]:    304.17
	FillingsUpdate:  mu: -0.043335456  nElectrons: 327.000000
LCAOMinimize: Iter:  19  F: -1518.2963408478374276  |grad|_K:  6.602e-04  alpha:  2.045e-02  linmin: -2.814e-04  cgtest: -3.221e-02  t[s]:    317.57
	FillingsUpdate:  mu: -0.053495473  nElectrons: 327.000000
LCAOMinimize: Iter:  20  F: -1518.2991670080530184  |grad|_K:  2.907e-04  alpha:  2.726e-02  linmin:  2.076e-03  cgtest: -2.865e-02  t[s]:    330.93
	FillingsUpdate:  mu: -0.051454153  nElectrons: 327.000000
LCAOMinimize: Iter:  21  F: -1518.3000486400230784  |grad|_K:  3.794e-04  alpha:  4.394e-02  linmin: -1.017e-03  cgtest:  1.077e-02  t[s]:    344.48
	FillingsUpdate:  mu: -0.050687647  nElectrons: 327.000000
LCAOMinimize: Iter:  22  F: -1518.3004657660103476  |grad|_K:  2.561e-04  alpha:  1.188e-02  linmin: -1.515e-03  cgtest:  4.562e-03  t[s]:    357.94
LCAOMinimize: 	Predicted alpha/alphaT>3.000000, increasing alphaT to 3.563003e-02.
	FillingsUpdate:  mu: -0.046238726  nElectrons: 327.000000
LCAOMinimize: Iter:  23  F: -1518.3015022243307612  |grad|_K:  2.319e-04  alpha:  6.574e-02  linmin:  3.904e-04  cgtest: -2.631e-02  t[s]:    374.97
	FillingsUpdate:  mu: -0.047385111  nElectrons: 327.000000
LCAOMinimize: Iter:  24  F: -1518.3019833372256926  |grad|_K:  3.010e-04  alpha:  3.785e-02  linmin:  5.051e-05  cgtest:  4.776e-03  t[s]:    388.24
	FillingsUpdate:  mu: -0.046734069  nElectrons: 327.000000
LCAOMinimize: Iter:  25  F: -1518.3023066306420787  |grad|_K:  2.357e-04  alpha:  1.513e-02  linmin:  3.757e-04  cgtest: -8.798e-03  t[s]:    401.61
	FillingsUpdate:  mu: -0.043981736  nElectrons: 327.000000
LCAOMinimize: Iter:  26  F: -1518.3026079387793743  |grad|_K:  1.119e-04  alpha:  2.289e-02  linmin: -3.758e-04  cgtest:  3.659e-03  t[s]:    415.03
	FillingsUpdate:  mu: -0.043643526  nElectrons: 327.000000
LCAOMinimize: Iter:  27  F: -1518.3027559979923353  |grad|_K:  1.171e-04  alpha:  4.945e-02  linmin: -1.415e-04  cgtest: -6.498e-03  t[s]:    428.22
	FillingsUpdate:  mu: -0.043855778  nElectrons: 327.000000
LCAOMinimize: Iter:  28  F: -1518.3027844548603298  |grad|_K:  4.293e-05  alpha:  8.689e-03  linmin: -1.659e-04  cgtest: -4.614e-03  t[s]:    441.37
LCAOMinimize: 	Predicted alpha/alphaT>3.000000, increasing alphaT to 2.606850e-02.
	FillingsUpdate:  mu: -0.044255501  nElectrons: 327.000000
LCAOMinimize: Iter:  29  F: -1518.3028010917471420  |grad|_K:  3.502e-05  alpha:  3.789e-02  linmin: -6.377e-06  cgtest:  4.713e-04  t[s]:    458.46
	FillingsUpdate:  mu: -0.043839092  nElectrons: 327.000000
LCAOMinimize: Iter:  30  F: -1518.3028095830561597  |grad|_K:  3.209e-05  alpha:  2.907e-02  linmin:  1.102e-05  cgtest:  2.496e-04  t[s]:    471.82
LCAOMinimize: None of the convergence criteria satisfied after 30 iterations.


---- Citations for features of the code used in this run ----

   Software package:
      R. Sundararaman, K. Letchworth-Weaver, K.A. Schwarz, D. Gunceler, Y. Ozhabes and T.A. Arias, 'JDFTx: software for joint density-functional theory', SoftwareX 6, 278 (2017)

   LibXC library of exchange-correlation functions:
      M. A. L. Marques, M. J. T. Oliveira and T. Burnus, Comput. Phys. Commun. 183, 2272 (2012)

   Hammer, Hansen, and Norskov exchange functional:
      B. Hammer, L. B. Hansen, and J. K. Nørskov, Phys. Rev. B 59, 7413 (1999)

   Perdew, Burke & Ernzerhof correlation functional:
      J. P. Perdew, K. Burke, and M. Ernzerhof, Phys. Rev. Lett. 77, 3865 (1996)

   Pseudopotentials:
      M Schlipf and F Gygi, Comput. Phys. Commun. 196, 36 (2015)

   Total energy minimization with Auxiliary Hamiltonian:
      C. Freysoldt, S. Boeck, and J. Neugebauer, Phys. Rev. B 79, 241103(R) (2009)

This list may not be complete. Please suggest additional citations or
report any other bugs at https://github.com/shankar1729/jdftx/issues

Initialization completed successfully at t[s]:    477.25


-------- Electronic minimization -----------
	FillingsUpdate:  mu: -0.043839092  nElectrons: 327.000000
ElecMinimize: Iter:   0  F: -1518.302809583054341  |grad|_K:  6.345e-04  alpha:  1.000e+00
	FillingsUpdate:  mu: +0.395314736  nElectrons: 327.000000
	SubspaceRotationAdjust: set factor to 1
ElecMinimize: Iter:   1  F: -1538.299696711840397  |grad|_K:  1.273e-03  alpha:  4.965e-01  linmin:  2.482e-02  t[s]:    526.41
	FillingsUpdate:  mu: +0.218030447  nElectrons: 327.000000
	SubspaceRotationAdjust: set factor to 0.641
ElecMinimize: Iter:   2  F: -1549.015877296021472  |grad|_K:  2.460e-03  alpha:  9.427e-02  linmin:  2.321e-03  t[s]:    560.85
	FillingsUpdate:  mu: +0.518987828  nElectrons: 327.000000
	SubspaceRotationAdjust: set factor to 0.467
ElecMinimize: Iter:   3  F: -1550.004312660790220  |grad|_K:  2.118e-03  alpha:  1.200e-02  linmin:  2.858e-03  t[s]:    595.14
	FillingsUpdate:  mu: +0.628527544  nElectrons: 327.000000
	SubspaceRotationAdjust: set factor to 0.38
ElecMinimize: Iter:   4  F: -1550.993183672431996  |grad|_K:  1.931e-03  alpha:  6.241e-03  linmin:  1.070e-04  t[s]:    629.38
	FillingsUpdate:  mu: +0.856744441  nElectrons: 327.000000
	SubspaceRotationAdjust: set factor to 0.28
ElecMinimize: Iter:   5  F: -1553.379888885083574  |grad|_K:  1.559e-03  alpha:  8.277e-03  linmin:  1.706e-03  t[s]:    664.01
	FillingsUpdate:  mu: +0.858108727  nElectrons: 327.000000
	SubspaceRotationAdjust: set factor to 0.241
ElecMinimize: Iter:   6  F: -1554.095942197989871  |grad|_K:  1.828e-03  alpha:  6.256e-03  linmin:  4.874e-05  t[s]:    697.98
ElecMinimize: 	Predicted alpha/alphaT>3.000000, increasing alphaT to 1.876835e-02.
	FillingsUpdate:  mu: +1.143189344  nElectrons: 327.000000
	SubspaceRotationAdjust: set factor to 0.145
ElecMinimize: Iter:   7  F: -1560.162964631192381  |grad|_K:  2.674e-03  alpha:  1.908e-02  linmin: -7.754e-05  t[s]:    741.54
	FillingsUpdate:  mu: +0.897807546  nElectrons: 327.000000
	SubspaceRotationAdjust: set factor to 0.139
ElecMinimize: Iter:   8  F: -1566.803127956612570  |grad|_K:  1.581e-03  alpha:  9.722e-03  linmin:  5.083e-04  t[s]:    775.78
	FillingsUpdate:  mu: +0.562355541  nElectrons: 327.000000
	SubspaceRotationAdjust: set factor to 0.172
ElecMinimize: Iter:   9  F: -1570.398473687836713  |grad|_K:  1.440e-03  alpha:  2.399e-02  linmin:  7.869e-04  t[s]:    809.90
	FillingsUpdate:  mu: +0.383732655  nElectrons: 327.000000
	SubspaceRotationAdjust: set factor to 0.223
ElecMinimize: Iter:  10  F: -1573.060964878501863  |grad|_K:  1.392e-03  alpha:  1.960e-02  linmin:  1.005e-05  t[s]:    844.24
	FillingsUpdate:  mu: -0.148420224  nElectrons: 327.000000
	SubspaceRotationAdjust: set factor to 0.249
ElecMinimize: Iter:  11  F: -1576.330592206488745  |grad|_K:  1.143e-03  alpha:  1.746e-02  linmin:  8.291e-05  t[s]:    878.26
	FillingsUpdate:  mu: -0.400524265  nElectrons: 327.000000
	SubspaceRotationAdjust: set factor to 0.27
ElecMinimize: Iter:  12  F: -1579.160036561761217  |grad|_K:  1.270e-03  alpha:  2.243e-02  linmin: -2.413e-04  t[s]:    913.25
	FillingsUpdate:  mu: -0.303031835  nElectrons: 327.000000
	SubspaceRotationAdjust: set factor to 0.33
ElecMinimize: Iter:  13  F: -1584.257371271688498  |grad|_K:  1.088e-03  alpha:  3.020e-02  linmin:  9.342e-05  t[s]:    947.71
	FillingsUpdate:  mu: -0.199882244  nElectrons: 327.000000
	SubspaceRotationAdjust: set factor to 0.382
ElecMinimize: Iter:  14  F: -1586.565055425631726  |grad|_K:  8.273e-04  alpha:  2.141e-02  linmin:  8.883e-06  t[s]:    981.88
	FillingsUpdate:  mu: +0.077166424  nElectrons: 327.000000
	SubspaceRotationAdjust: set factor to 0.382
ElecMinimize: Iter:  15  F: -1588.544650344253796  |grad|_K:  9.703e-04  alpha:  3.016e-02  linmin:  2.555e-05  t[s]:   1016.53
	FillingsUpdate:  mu: +0.103732610  nElectrons: 327.000000
	SubspaceRotationAdjust: set factor to 0.486
ElecMinimize: Iter:  16  F: -1591.309553767528541  |grad|_K:  8.704e-04  alpha:  3.083e-02  linmin:  2.476e-05  t[s]:   1050.46
	FillingsUpdate:  mu: +0.014353456  nElectrons: 327.000000
	SubspaceRotationAdjust: set factor to 0.524
ElecMinimize: Iter:  17  F: -1593.020786847610452  |grad|_K:  7.841e-04  alpha:  2.421e-02  linmin: -1.162e-05  t[s]:   1084.79
	FillingsUpdate:  mu: -0.172713748  nElectrons: 327.000000
	SubspaceRotationAdjust: set factor to 0.566
ElecMinimize: Iter:  18  F: -1594.947200813475774  |grad|_K:  7.350e-04  alpha:  3.186e-02  linmin: -4.395e-05  t[s]:   1119.62
	FillingsUpdate:  mu: -0.189059477  nElectrons: 327.000000
	SubspaceRotationAdjust: set factor to 0.579
ElecMinimize: Iter:  19  F: -1596.851961127552386  |grad|_K:  8.062e-04  alpha:  3.558e-02  linmin:  2.283e-05  t[s]:   1154.02
	FillingsUpdate:  mu: -0.020763146  nElectrons: 327.000000
	SubspaceRotationAdjust: set factor to 0.778
ElecMinimize: Iter:  20  F: -1598.696989127874986  |grad|_K:  5.856e-04  alpha:  2.991e-02  linmin:  2.469e-05  t[s]:   1188.33
	FillingsUpdate:  mu: +0.136264519  nElectrons: 327.000000
	SubspaceRotationAdjust: set factor to 0.707
ElecMinimize: Iter:  21  F: -1599.574235990726265  |grad|_K:  7.378e-04  alpha:  2.664e-02  linmin:  7.063e-05  t[s]:   1222.57
	FillingsUpdate:  mu: +0.136059648  nElectrons: 327.000000
	SubspaceRotationAdjust: set factor to 0.844
ElecMinimize: Iter:  22  F: -1600.852246758211777  |grad|_K:  6.049e-04  alpha:  2.554e-02  linmin:  2.489e-05  t[s]:   1257.25
	FillingsUpdate:  mu: +0.064772212  nElectrons: 327.000000
	SubspaceRotationAdjust: set factor to 0.833
ElecMinimize: Iter:  23  F: -1601.851362628146717  |grad|_K:  5.646e-04  alpha:  2.906e-02  linmin:  5.034e-05  t[s]:   1291.45
	FillingsUpdate:  mu: +0.072138673  nElectrons: 327.000000
	SubspaceRotationAdjust: set factor to 0.686
ElecMinimize: Iter:  24  F: -1602.763665033468897  |grad|_K:  7.135e-04  alpha:  3.115e-02  linmin:  4.637e-05  t[s]:   1326.16
	FillingsUpdate:  mu: +0.221911734  nElectrons: 327.000000
	SubspaceRotationAdjust: set factor to 0.566
ElecMinimize: Iter:  25  F: -1603.431974040572186  |grad|_K:  5.963e-04  alpha:  1.237e-02  linmin: -1.991e-05  t[s]:   1360.48
	FillingsUpdate:  mu: +0.302639097  nElectrons: 327.000000
	SubspaceRotationAdjust: set factor to 0.473
ElecMinimize: Iter:  26  F: -1604.593765485335780  |grad|_K:  7.089e-04  alpha:  3.457e-02  linmin:  6.210e-05  t[s]:   1394.90
	FillingsUpdate:  mu: +0.339510088  nElectrons: 327.000000
	SubspaceRotationAdjust: set factor to 0.714
ElecMinimize: Iter:  27  F: -1605.131187472219608  |grad|_K:  5.511e-04  alpha:  8.668e-03  linmin: -3.065e-04  t[s]:   1429.75
	FillingsUpdate:  mu: +0.211445960  nElectrons: 327.000000
	SubspaceRotationAdjust: set factor to 0.734
ElecMinimize: Iter:  28  F: -1605.753514720574458  |grad|_K:  5.367e-04  alpha:  1.553e-02  linmin: -1.268e-04  t[s]:   1464.56
	FillingsUpdate:  mu: +0.135516327  nElectrons: 327.000000
	SubspaceRotationAdjust: set factor to 0.739
ElecMinimize: Iter:  29  F: -1606.263422534563688  |grad|_K:  6.164e-04  alpha:  1.655e-02  linmin:  1.619e-04  t[s]:   1498.63
	FillingsUpdate:  mu: +0.150556302  nElectrons: 327.000000
	SubspaceRotationAdjust: set factor to 0.718
ElecMinimize: Iter:  30  F: -1606.377413458101728  |grad|_K:  6.275e-04  alpha:  4.607e-03  linmin:  1.488e-04  t[s]:   1533.12
	FillingsUpdate:  mu: +0.227422987  nElectrons: 327.000000
	SubspaceRotationAdjust: set factor to 0.818
ElecMinimize: Iter:  31  F: -1606.523976860733683  |grad|_K:  5.123e-04  alpha:  4.556e-03  linmin:  2.860e-04  t[s]:   1568.66
	FillingsUpdate:  mu: +0.239841120  nElectrons: 327.000000
	SubspaceRotationAdjust: set factor to 0.944
ElecMinimize: Iter:  32  F: -1606.596207003627569  |grad|_K:  5.697e-04  alpha:  4.103e-03  linmin:  3.030e-05  t[s]:   1602.89
	FillingsUpdate:  mu: +0.272610560  nElectrons: 327.000000
	SubspaceRotationAdjust: set factor to 0.735
ElecMinimize: Iter:  33  F: -1606.793191785685394  |grad|_K:  6.759e-04  alpha:  7.558e-03  linmin:  2.482e-04  t[s]:   1637.05
	FillingsUpdate:  mu: +0.174101939  nElectrons: 327.000000
	SubspaceRotationAdjust: set factor to 0.689
ElecMinimize: Iter:  34  F: -1606.935915625897451  |grad|_K:  5.650e-04  alpha:  2.935e-03  linmin: -4.068e-04  t[s]:   1671.79
	FillingsUpdate:  mu: +0.165651150  nElectrons: 327.000000
	SubspaceRotationAdjust: set factor to 0.952
ElecMinimize: Iter:  35  F: -1607.065177493782585  |grad|_K:  4.591e-04  alpha:  3.281e-03  linmin:  5.164e-04  t[s]:   1705.81
	FillingsUpdate:  mu: +0.090672631  nElectrons: 327.000000
	SubspaceRotationAdjust: set factor to 1.14
ElecMinimize: Iter:  36  F: -1607.105386399543704  |grad|_K:  4.297e-04  alpha:  4.894e-03  linmin:  4.740e-04  t[s]:   1740.18
	FillingsUpdate:  mu: +0.059634337  nElectrons: 327.000000
	SubspaceRotationAdjust: set factor to 1.3
ElecMinimize: Iter:  37  F: -1607.126829913129995  |grad|_K:  4.464e-04  alpha:  1.688e-03  linmin: -8.039e-05  t[s]:   1774.39
	FillingsUpdate:  mu: +0.014813186  nElectrons: 327.000000
	SubspaceRotationAdjust: set factor to 1.25
ElecMinimize: Iter:  38  F: -1607.175767504682881  |grad|_K:  4.596e-04  alpha:  2.439e-03  linmin:  3.771e-05  t[s]:   1808.58
	FillingsUpdate:  mu: +0.005948952  nElectrons: 327.000000
	SubspaceRotationAdjust: set factor to 1.2
ElecMinimize: Iter:  39  F: -1607.219010219923803  |grad|_K:  4.360e-04  alpha:  2.185e-03  linmin: -3.397e-05  t[s]:   1842.76
	FillingsUpdate:  mu: +0.000427625  nElectrons: 327.000000
	SubspaceRotationAdjust: set factor to 1.19
ElecMinimize: Iter:  40  F: -1607.260705136663546  |grad|_K:  4.019e-04  alpha:  2.236e-03  linmin:  5.767e-05  t[s]:   1876.85
	FillingsUpdate:  mu: -0.002226494  nElectrons: 327.000000
	SubspaceRotationAdjust: set factor to 1.17
ElecMinimize: Iter:  41  F: -1607.290703280308435  |grad|_K:  3.864e-04  alpha:  1.979e-03  linmin:  5.591e-06  t[s]:   1911.61
	FillingsUpdate:  mu: -0.001081477  nElectrons: 327.000000
	SubspaceRotationAdjust: set factor to 1.05
ElecMinimize: Iter:  42  F: -1607.319964678136557  |grad|_K:  3.839e-04  alpha:  2.039e-03  linmin:  1.463e-05  t[s]:   1945.96
	FillingsUpdate:  mu: -0.006718476  nElectrons: 327.000000
	SubspaceRotationAdjust: set factor to 0.882
ElecMinimize: Iter:  43  F: -1607.351100431050781  |grad|_K:  3.801e-04  alpha:  2.189e-03  linmin: -1.744e-04  t[s]:   1980.12
	FillingsUpdate:  mu: -0.017384766  nElectrons: 327.000000
	SubspaceRotationAdjust: set factor to 0.708
ElecMinimize: Iter:  44  F: -1607.400547551753561  |grad|_K:  3.600e-04  alpha:  3.389e-03  linmin:  1.424e-04  t[s]:   2014.21
	FillingsUpdate:  mu: -0.022930366  nElectrons: 327.000000
	SubspaceRotationAdjust: set factor to 0.597
ElecMinimize: Iter:  45  F: -1607.430518927400271  |grad|_K:  3.296e-04  alpha:  2.464e-03  linmin: -7.276e-07  t[s]:   2049.01
	FillingsUpdate:  mu: -0.031230901  nElectrons: 327.000000
	SubspaceRotationAdjust: set factor to 0.537
ElecMinimize: Iter:  46  F: -1607.457797172304026  |grad|_K:  3.032e-04  alpha:  2.610e-03  linmin:  4.914e-05  t[s]:   2083.28
	FillingsUpdate:  mu: -0.042308212  nElectrons: 327.000000
	SubspaceRotationAdjust: set factor to 0.506
ElecMinimize: Iter:  47  F: -1607.480772429531271  |grad|_K:  2.870e-04  alpha:  2.634e-03  linmin:  1.725e-05  t[s]:   2117.73
	FillingsUpdate:  mu: -0.056280775  nElectrons: 327.000000
	SubspaceRotationAdjust: set factor to 0.482
ElecMinimize: Iter:  48  F: -1607.502790853208580  |grad|_K:  2.794e-04  alpha:  2.790e-03  linmin: -2.568e-06  t[s]:   2151.99
	FillingsUpdate:  mu: -0.066352554  nElectrons: 327.000000
	SubspaceRotationAdjust: set factor to 0.451
ElecMinimize: Iter:  49  F: -1607.525125047457550  |grad|_K:  2.781e-04  alpha:  2.965e-03  linmin: -9.671e-06  t[s]:   2186.14
	FillingsUpdate:  mu: -0.071659210  nElectrons: 327.000000
	SubspaceRotationAdjust: set factor to 0.413
ElecMinimize: Iter:  50  F: -1607.548468400279944  |grad|_K:  2.801e-04  alpha:  3.120e-03  linmin: -1.064e-05  t[s]:   2220.18
	FillingsUpdate:  mu: -0.074709912  nElectrons: 327.000000
	SubspaceRotationAdjust: set factor to 0.375
ElecMinimize: Iter:  51  F: -1607.573207064242979  |grad|_K:  2.823e-04  alpha:  3.257e-03  linmin: -1.136e-05  t[s]:   2254.45
	FillingsUpdate:  mu: -0.078284717  nElectrons: 327.000000
	SubspaceRotationAdjust: set factor to 0.347
ElecMinimize: Iter:  52  F: -1607.599443893072475  |grad|_K:  2.833e-04  alpha:  3.397e-03  linmin: -1.270e-05  t[s]:   2288.66
	FillingsUpdate:  mu: -0.077228286  nElectrons: 327.000000
	SubspaceRotationAdjust: set factor to 0.335
ElecMinimize: Iter:  53  F: -1607.626987989122654  |grad|_K:  2.836e-04  alpha:  3.535e-03  linmin: -1.432e-05  t[s]:   2323.38
	FillingsUpdate:  mu: -0.069942299  nElectrons: 327.000000
	SubspaceRotationAdjust: set factor to 0.344
ElecMinimize: Iter:  54  F: -1607.655424255671960  |grad|_K:  2.841e-04  alpha:  3.637e-03  linmin: -1.559e-05  t[s]:   2357.50
	FillingsUpdate:  mu: -0.056098873  nElectrons: 327.000000
	SubspaceRotationAdjust: set factor to 0.381
ElecMinimize: Iter:  55  F: -1607.684153173305731  |grad|_K:  2.856e-04  alpha:  3.656e-03  linmin: -1.618e-05  t[s]:   2391.79
	FillingsUpdate:  mu: -0.036062254  nElectrons: 327.000000
	SubspaceRotationAdjust: set factor to 0.456
ElecMinimize: Iter:  56  F: -1607.712494943677939  |grad|_K:  2.884e-04  alpha:  3.566e-03  linmin: -1.633e-05  t[s]:   2426.18
	FillingsUpdate:  mu: -0.007587588  nElectrons: 327.000000
	SubspaceRotationAdjust: set factor to 0.58
ElecMinimize: Iter:  57  F: -1607.739939950829466  |grad|_K:  2.933e-04  alpha:  3.384e-03  linmin: -1.660e-05  t[s]:   2460.18
	FillingsUpdate:  mu: +0.019962486  nElectrons: 327.000000
	SubspaceRotationAdjust: set factor to 0.743
ElecMinimize: Iter:  58  F: -1607.766530345279307  |grad|_K:  3.024e-04  alpha:  3.169e-03  linmin: -1.798e-05  t[s]:   2494.26
	FillingsUpdate:  mu: +0.039735597  nElectrons: 327.000000
	SubspaceRotationAdjust: set factor to 0.887
ElecMinimize: Iter:  59  F: -1607.793370985381216  |grad|_K:  3.193e-04  alpha:  3.006e-03  linmin: -2.209e-05  t[s]:   2528.71
	FillingsUpdate:  mu: +0.065751073  nElectrons: 327.000000
	SubspaceRotationAdjust: set factor to 0.943
ElecMinimize: Iter:  60  F: -1607.823208986468444  |grad|_K:  3.448e-04  alpha:  2.984e-03  linmin: -3.087e-05  t[s]:   2562.74
	FillingsUpdate:  mu: +0.099589726  nElectrons: 327.000000
	SubspaceRotationAdjust: set factor to 0.929
ElecMinimize: Iter:  61  F: -1607.860614600372855  |grad|_K:  3.708e-04  alpha:  3.178e-03  linmin: -4.378e-05  t[s]:   2596.92
	FillingsUpdate:  mu: +0.133675856  nElectrons: 327.000000
	SubspaceRotationAdjust: set factor to 0.92
ElecMinimize: Iter:  62  F: -1607.909343697443319  |grad|_K:  3.867e-04  alpha:  3.556e-03  linmin: -7.900e-06  t[s]:   2631.47
	FillingsUpdate:  mu: +0.148880685  nElectrons: 327.000000
	SubspaceRotationAdjust: set factor to 0.954
ElecMinimize: Iter:  63  F: -1607.948218679855700  |grad|_K:  3.908e-04  alpha:  2.497e-03  linmin:  6.638e-06  t[s]:   2665.44
	FillingsUpdate:  mu: +0.157270932  nElectrons: 327.000000
	SubspaceRotationAdjust: set factor to 0.987
ElecMinimize: Iter:  64  F: -1607.974065728091773  |grad|_K:  3.993e-04  alpha:  1.734e-03  linmin:  1.017e-06  t[s]:   2699.70
	FillingsUpdate:  mu: +0.163896873  nElectrons: 327.000000
	SubspaceRotationAdjust: set factor to 0.997
ElecMinimize: Iter:  65  F: -1607.998846437050588  |grad|_K:  4.107e-04  alpha:  1.614e-03  linmin: -1.307e-05  t[s]:   2734.12
	FillingsUpdate:  mu: +0.168450502  nElectrons: 327.000000
	SubspaceRotationAdjust: set factor to 0.992
ElecMinimize: Iter:  66  F: -1608.025852305987200  |grad|_K:  4.194e-04  alpha:  1.644e-03  linmin: -1.870e-05  t[s]:   2768.84
	FillingsUpdate:  mu: +0.176236789  nElectrons: 327.000000
	SubspaceRotationAdjust: set factor to 0.998
ElecMinimize: Iter:  67  F: -1608.054799747001198  |grad|_K:  4.224e-04  alpha:  1.684e-03  linmin: -2.028e-05  t[s]:   2803.09
	FillingsUpdate:  mu: +0.196701035  nElectrons: 327.000000
	SubspaceRotationAdjust: set factor to 1.02
ElecMinimize: Iter:  68  F: -1608.085121170026241  |grad|_K:  4.225e-04  alpha:  1.737e-03  linmin: -2.056e-05  t[s]:   2837.46
	FillingsUpdate:  mu: +0.223461132  nElectrons: 327.000000
	SubspaceRotationAdjust: set factor to 1.04
ElecMinimize: Iter:  69  F: -1608.116666787611166  |grad|_K:  4.262e-04  alpha:  1.806e-03  linmin: -2.234e-05  t[s]:   2871.60
	FillingsUpdate:  mu: +0.259531762  nElectrons: 327.000000
	SubspaceRotationAdjust: set factor to 0.996
ElecMinimize: Iter:  70  F: -1608.150607157670038  |grad|_K:  4.427e-04  alpha:  1.908e-03  linmin: -1.495e-05  t[s]:   2905.90
	FillingsUpdate:  mu: +0.294284956  nElectrons: 327.000000
	SubspaceRotationAdjust: set factor to 0.849
ElecMinimize: Iter:  71  F: -1608.187619999696153  |grad|_K:  4.765e-04  alpha:  1.941e-03  linmin:  3.176e-05  t[s]:   2940.13
	FillingsUpdate:  mu: +0.324068777  nElectrons: 327.000000
	SubspaceRotationAdjust: set factor to 0.666
ElecMinimize: Iter:  72  F: -1608.222590361515358  |grad|_K:  5.088e-04  alpha:  1.610e-03  linmin:  2.810e-05  t[s]:   2974.63
	FillingsUpdate:  mu: +0.336111693  nElectrons: 327.000000
	SubspaceRotationAdjust: set factor to 0.505
ElecMinimize: Iter:  73  F: -1608.265945293832829  |grad|_K:  5.253e-04  alpha:  1.754e-03  linmin: -9.810e-05  t[s]:   3008.75
	FillingsUpdate:  mu: +0.294495012  nElectrons: 327.000000
	SubspaceRotationAdjust: set factor to 0.387
ElecMinimize: Iter:  74  F: -1608.336555574447857  |grad|_K:  5.206e-04  alpha:  2.546e-03  linmin:  7.263e-05  t[s]:   3043.19
	FillingsUpdate:  mu: +0.299730669  nElectrons: 327.000000
	SubspaceRotationAdjust: set factor to 0.307
ElecMinimize: Iter:  75  F: -1608.394733199572784  |grad|_K:  5.066e-04  alpha:  2.323e-03  linmin:  4.411e-05  t[s]:   3077.47
	FillingsUpdate:  mu: +0.318444342  nElectrons: 327.000000
	SubspaceRotationAdjust: set factor to 0.262
ElecMinimize: Iter:  76  F: -1608.444072283723244  |grad|_K:  4.804e-04  alpha:  2.054e-03  linmin:  1.013e-05  t[s]:   3112.21
	FillingsUpdate:  mu: +0.307866355  nElectrons: 327.000000
	SubspaceRotationAdjust: set factor to 0.254
ElecMinimize: Iter:  77  F: -1608.501768040539446  |grad|_K:  4.441e-04  alpha:  2.583e-03  linmin: -4.292e-05  t[s]:   3146.33
	FillingsUpdate:  mu: +0.278158173  nElectrons: 327.000000
	SubspaceRotationAdjust: set factor to 0.28
ElecMinimize: Iter:  78  F: -1608.560572162283961  |grad|_K:  4.185e-04  alpha:  2.921e-03  linmin: -1.956e-04  t[s]:   3180.63
	FillingsUpdate:  mu: +0.237326791  nElectrons: 327.000000
	SubspaceRotationAdjust: set factor to 0.367
ElecMinimize: Iter:  79  F: -1608.657497576008382  |grad|_K:  3.929e-04  alpha:  5.801e-03  linmin:  3.801e-04  t[s]:   3214.79
	FillingsUpdate:  mu: +0.201410302  nElectrons: 327.000000
	SubspaceRotationAdjust: set factor to 0.442
ElecMinimize: Iter:  80  F: -1608.683957032952321  |grad|_K:  4.031e-04  alpha:  2.489e-03  linmin: -5.860e-07  t[s]:   3248.91
	FillingsUpdate:  mu: +0.161899978  nElectrons: 327.000000
	SubspaceRotationAdjust: set factor to 0.493
ElecMinimize: Iter:  81  F: -1608.730661782229390  |grad|_K:  4.116e-04  alpha:  2.974e-03  linmin: -1.131e-05  t[s]:   3283.17
	FillingsUpdate:  mu: +0.108378118  nElectrons: 327.000000
	SubspaceRotationAdjust: set factor to 0.474
ElecMinimize: Iter:  82  F: -1608.781797666119019  |grad|_K:  4.357e-04  alpha:  3.097e-03  linmin: -3.693e-05  t[s]:   3317.70
	FillingsUpdate:  mu: +0.086820669  nElectrons: 327.000000
	SubspaceRotationAdjust: set factor to 0.434
ElecMinimize: Iter:  83  F: -1608.848002246074202  |grad|_K:  4.388e-04  alpha:  3.497e-03  linmin: -4.759e-05  t[s]:   3352.44
	FillingsUpdate:  mu: +0.073120008  nElectrons: 327.000000
	SubspaceRotationAdjust: set factor to 0.435
ElecMinimize: Iter:  84  F: -1608.920799459485352  |grad|_K:  4.076e-04  alpha:  3.780e-03  linmin: -2.375e-05  t[s]:   3386.58
	FillingsUpdate:  mu: +0.081764109  nElectrons: 327.000000
	SubspaceRotationAdjust: set factor to 0.472
ElecMinimize: Iter:  85  F: -1608.985376279546244  |grad|_K:  3.820e-04  alpha:  3.963e-03  linmin: -1.105e-05  t[s]:   3420.72
	FillingsUpdate:  mu: +0.098891796  nElectrons: 327.000000
	SubspaceRotationAdjust: set factor to 0.512
ElecMinimize: Iter:  86  F: -1609.043223108199754  |grad|_K:  3.711e-04  alpha:  4.080e-03  linmin: -9.970e-06  t[s]:   3454.74
	FillingsUpdate:  mu: +0.124440276  nElectrons: 327.000000
	SubspaceRotationAdjust: set factor to 0.536
ElecMinimize: Iter:  87  F: -1609.097571114548145  |grad|_K:  3.642e-04  alpha:  4.066e-03  linmin: -1.002e-05  t[s]:   3489.10
	FillingsUpdate:  mu: +0.158780753  nElectrons: 327.000000
	SubspaceRotationAdjust: set factor to 0.512
ElecMinimize: Iter:  88  F: -1609.150102935736186  |grad|_K:  3.678e-04  alpha:  4.082e-03  linmin: -8.076e-07  t[s]:   3523.25
	FillingsUpdate:  mu: +0.158832541  nElectrons: 327.000000
	SubspaceRotationAdjust: set factor to 0.43
ElecMinimize: Iter:  89  F: -1609.204017038793609  |grad|_K:  3.827e-04  alpha:  4.133e-03  linmin:  1.515e-05  t[s]:   3557.37
	FillingsUpdate:  mu: +0.158014883  nElectrons: 327.000000
	SubspaceRotationAdjust: set factor to 0.351
ElecMinimize: Iter:  90  F: -1609.260089858363017  |grad|_K:  3.748e-04  alpha:  4.004e-03  linmin:  1.282e-05  t[s]:   3591.71
	FillingsUpdate:  mu: +0.144464709  nElectrons: 327.000000
	SubspaceRotationAdjust: set factor to 0.315
ElecMinimize: Iter:  91  F: -1609.315219713855640  |grad|_K:  3.364e-04  alpha:  4.096e-03  linmin: -2.147e-05  t[s]:   3626.19
	FillingsUpdate:  mu: +0.126372366  nElectrons: 327.000000
	SubspaceRotationAdjust: set factor to 0.338
ElecMinimize: Iter:  92  F: -1609.367295694622271  |grad|_K:  2.950e-04  alpha:  4.705e-03  linmin: -3.645e-05  t[s]:   3661.09
	FillingsUpdate:  mu: +0.101700583  nElectrons: 327.000000
	SubspaceRotationAdjust: set factor to 0.388
ElecMinimize: Iter:  93  F: -1609.412918074792515  |grad|_K:  2.773e-04  alpha:  5.334e-03  linmin: -1.525e-05  t[s]:   3695.25
	FillingsUpdate:  mu: +0.061079719  nElectrons: 327.000000
	SubspaceRotationAdjust: set factor to 0.398
ElecMinimize: Iter:  94  F: -1609.454034760244213  |grad|_K:  2.811e-04  alpha:  5.507e-03  linmin: -7.288e-06  t[s]:   3729.38
	FillingsUpdate:  mu: +0.030759999  nElectrons: 327.000000
	SubspaceRotationAdjust: set factor to 0.369
ElecMinimize: Iter:  95  F: -1609.495086595497696  |grad|_K:  2.865e-04  alpha:  5.370e-03  linmin: -9.903e-06  t[s]:   3763.80
	FillingsUpdate:  mu: +0.015990082  nElectrons: 327.000000
	SubspaceRotationAdjust: set factor to 0.323
ElecMinimize: Iter:  96  F: -1609.538247218630431  |grad|_K:  2.864e-04  alpha:  5.431e-03  linmin: -1.459e-05  t[s]:   3798.11
	FillingsUpdate:  mu: +0.011250722  nElectrons: 327.000000
	SubspaceRotationAdjust: set factor to 0.282
ElecMinimize: Iter:  97  F: -1609.583815120923191  |grad|_K:  2.779e-04  alpha:  5.726e-03  linmin: -1.211e-05  t[s]:   3832.33
	FillingsUpdate:  mu: +0.012656488  nElectrons: 327.000000
	SubspaceRotationAdjust: set factor to 0.271
ElecMinimize: Iter:  98  F: -1609.627919724576032  |grad|_K:  2.558e-04  alpha:  5.894e-03  linmin: -9.102e-06  t[s]:   3867.07
	FillingsUpdate:  mu: +0.009450633  nElectrons: 327.000000
	SubspaceRotationAdjust: set factor to 0.315
ElecMinimize: Iter:  99  F: -1609.665725326367237  |grad|_K:  2.307e-04  alpha:  5.973e-03  linmin: -7.716e-06  t[s]:   3901.64
	FillingsUpdate:  mu: +0.038467209  nElectrons: 327.000000
	SubspaceRotationAdjust: set factor to 0.401
ElecMinimize: Iter: 100  F: -1609.696634115198094  |grad|_K:  2.195e-04  alpha:  6.009e-03  linmin: -2.086e-06  t[s]:   3936.00
	FillingsUpdate:  mu: +0.064278509  nElectrons: 327.000000
	SubspaceRotationAdjust: set factor to 0.423
ElecMinimize: Iter: 101  F: -1609.724149612002066  |grad|_K:  2.318e-04  alpha:  5.916e-03  linmin:  1.635e-06  t[s]:   3970.26
	FillingsUpdate:  mu: +0.092436651  nElectrons: 327.000000
	SubspaceRotationAdjust: set factor to 0.369
ElecMinimize: Iter: 102  F: -1609.753607170331406  |grad|_K:  2.521e-04  alpha:  5.689e-03  linmin: -2.811e-06  t[s]:   4004.50
	FillingsUpdate:  mu: +0.095823500  nElectrons: 327.000000
	SubspaceRotationAdjust: set factor to 0.311
ElecMinimize: Iter: 103  F: -1609.787193681936742  |grad|_K:  2.550e-04  alpha:  5.477e-03  linmin: -1.328e-05  t[s]:   4040.31
	FillingsUpdate:  mu: +0.084435598  nElectrons: 327.000000
	SubspaceRotationAdjust: set factor to 0.277
ElecMinimize: Iter: 104  F: -1609.823081097368913  |grad|_K:  2.444e-04  alpha:  5.702e-03  linmin: -2.241e-05  t[s]:   4075.52
	FillingsUpdate:  mu: +0.100948685  nElectrons: 327.000000
	SubspaceRotationAdjust: set factor to 0.276
ElecMinimize: Iter: 105  F: -1609.858850745338941  |grad|_K:  2.302e-04  alpha:  6.171e-03  linmin: -2.780e-05  t[s]:   4111.66
	FillingsUpdate:  mu: +0.107868463  nElectrons: 327.000000
	SubspaceRotationAdjust: set factor to 0.329
ElecMinimize: Iter: 106  F: -1609.892129898555140  |grad|_K:  2.161e-04  alpha:  6.464e-03  linmin: -2.989e-05  t[s]:   4147.86
	FillingsUpdate:  mu: +0.090136677  nElectrons: 327.000000
	SubspaceRotationAdjust: set factor to 0.437
ElecMinimize: Iter: 107  F: -1609.921785435301445  |grad|_K:  2.104e-04  alpha:  6.531e-03  linmin: -2.718e-05  t[s]:   4184.17
	FillingsUpdate:  mu: +0.058490235  nElectrons: 327.000000
	SubspaceRotationAdjust: set factor to 0.48
ElecMinimize: Iter: 108  F: -1609.950001539071991  |grad|_K:  2.263e-04  alpha:  6.561e-03  linmin: -2.425e-05  t[s]:   4219.87
	FillingsUpdate:  mu: +0.045897257  nElectrons: 327.000000
	SubspaceRotationAdjust: set factor to 0.426
ElecMinimize: Iter: 109  F: -1609.982670313265089  |grad|_K:  2.537e-04  alpha:  6.573e-03  linmin: -2.570e-05  t[s]:   4255.61
	FillingsUpdate:  mu: +0.030264296  nElectrons: 327.000000
	SubspaceRotationAdjust: set factor to 0.385
ElecMinimize: Iter: 110  F: -1610.021392993782911  |grad|_K:  2.522e-04  alpha:  6.197e-03  linmin: -2.357e-05  t[s]:   4290.12
	FillingsUpdate:  mu: +0.041693599  nElectrons: 327.000000
	SubspaceRotationAdjust: set factor to 0.407
ElecMinimize: Iter: 111  F: -1610.059246475135069  |grad|_K:  2.340e-04  alpha:  6.130e-03  linmin: -1.582e-05  t[s]:   4324.30
	FillingsUpdate:  mu: +0.069308015  nElectrons: 327.000000
	SubspaceRotationAdjust: set factor to 0.476
ElecMinimize: Iter: 112  F: -1610.093379578987879  |grad|_K:  2.256e-04  alpha:  6.437e-03  linmin: -4.242e-06  t[s]:   4358.83
	FillingsUpdate:  mu: +0.114971775  nElectrons: 327.000000
	SubspaceRotationAdjust: set factor to 0.556
ElecMinimize: Iter: 113  F: -1610.124325692715502  |grad|_K:  2.260e-04  alpha:  6.299e-03  linmin:  1.125e-05  t[s]:   4393.25
	FillingsUpdate:  mu: +0.138882607  nElectrons: 327.000000
	SubspaceRotationAdjust: set factor to 0.554
ElecMinimize: Iter: 114  F: -1610.153304871662840  |grad|_K:  2.416e-04  alpha:  5.901e-03  linmin:  1.629e-05  t[s]:   4428.51
	FillingsUpdate:  mu: +0.151771411  nElectrons: 327.000000
	SubspaceRotationAdjust: set factor to 0.461
ElecMinimize: Iter: 115  F: -1610.186044706319080  |grad|_K:  2.681e-04  alpha:  5.848e-03  linmin:  1.174e-05  t[s]:   4462.83
	FillingsUpdate:  mu: +0.138927126  nElectrons: 327.000000
	SubspaceRotationAdjust: set factor to 0.395
ElecMinimize: Iter: 116  F: -1610.224126784118653  |grad|_K:  2.617e-04  alpha:  5.519e-03  linmin:  5.617e-06  t[s]:   4497.27
	FillingsUpdate:  mu: +0.146838110  nElectrons: 327.000000
	SubspaceRotationAdjust: set factor to 0.398
ElecMinimize: Iter: 117  F: -1610.260445075819234  |grad|_K:  2.370e-04  alpha:  5.512e-03  linmin: -9.499e-06  t[s]:   4531.64
	FillingsUpdate:  mu: +0.151731004  nElectrons: 327.000000
	SubspaceRotationAdjust: set factor to 0.456
ElecMinimize: Iter: 118  F: -1610.293909663696240  |grad|_K:  2.228e-04  alpha:  6.139e-03  linmin: -2.894e-05  t[s]:   4566.21
	FillingsUpdate:  mu: +0.122388733  nElectrons: 327.000000
	SubspaceRotationAdjust: set factor to 0.553
ElecMinimize: Iter: 119  F: -1610.325809993523308  |grad|_K:  2.167e-04  alpha:  6.574e-03  linmin: -2.457e-05  t[s]:   4600.35
	FillingsUpdate:  mu: +0.097143708  nElectrons: 327.000000
	SubspaceRotationAdjust: set factor to 0.574
ElecMinimize: Iter: 120  F: -1610.356621455226104  |grad|_K:  2.282e-04  alpha:  6.732e-03  linmin: -1.107e-05  t[s]:   4634.96
	FillingsUpdate:  mu: +0.071786043  nElectrons: 327.000000
	SubspaceRotationAdjust: set factor to 0.486
ElecMinimize: Iter: 121  F: -1610.392571799572579  |grad|_K:  2.538e-04  alpha:  7.119e-03  linmin: -5.203e-06  t[s]:   4669.24
	FillingsUpdate:  mu: +0.076137289  nElectrons: 327.000000
	SubspaceRotationAdjust: set factor to 0.472
ElecMinimize: Iter: 122  F: -1610.433203432045502  |grad|_K:  2.324e-04  alpha:  6.528e-03  linmin:  3.221e-06  t[s]:   4703.47
	FillingsUpdate:  mu: +0.094328189  nElectrons: 327.000000
	SubspaceRotationAdjust: set factor to 0.628
ElecMinimize: Iter: 123  F: -1610.465423281995982  |grad|_K:  2.055e-04  alpha:  6.190e-03  linmin:  1.972e-05  t[s]:   4738.58
	FillingsUpdate:  mu: +0.129327513  nElectrons: 327.000000
	SubspaceRotationAdjust: set factor to 0.711
ElecMinimize: Iter: 124  F: -1610.491606439667521  |grad|_K:  2.172e-04  alpha:  6.500e-03  linmin:  2.584e-05  t[s]:   4773.16
	FillingsUpdate:  mu: +0.141593357  nElectrons: 327.000000
	SubspaceRotationAdjust: set factor to 0.653
ElecMinimize: Iter: 125  F: -1610.518472587905308  |grad|_K:  2.407e-04  alpha:  5.980e-03  linmin:  1.121e-05  t[s]:   4807.39
	FillingsUpdate:  mu: +0.144631534  nElectrons: 327.000000
	SubspaceRotationAdjust: set factor to 0.537
ElecMinimize: Iter: 126  F: -1610.551357177393584  |grad|_K:  2.610e-04  alpha:  5.923e-03  linmin: -4.735e-06  t[s]:   4841.72
	FillingsUpdate:  mu: +0.143119451  nElectrons: 327.000000
	SubspaceRotationAdjust: set factor to 0.506
ElecMinimize: Iter: 127  F: -1610.591729138010578  |grad|_K:  2.422e-04  alpha:  6.131e-03  linmin:  9.922e-07  t[s]:   4876.23
	FillingsUpdate:  mu: +0.128320672  nElectrons: 327.000000
	SubspaceRotationAdjust: set factor to 0.737
ElecMinimize: Iter: 128  F: -1610.623187161604619  |grad|_K:  2.049e-04  alpha:  5.544e-03  linmin:  2.590e-05  t[s]:   4910.51
	FillingsUpdate:  mu: +0.099453152  nElectrons: 327.000000
	SubspaceRotationAdjust: set factor to 0.858
ElecMinimize: Iter: 129  F: -1610.646120686205677  |grad|_K:  2.238e-04  alpha:  5.764e-03  linmin:  3.237e-05  t[s]:   4945.20
	FillingsUpdate:  mu: +0.068598663  nElectrons: 327.000000
	SubspaceRotationAdjust: set factor to 0.723
ElecMinimize: Iter: 130  F: -1610.672803317692569  |grad|_K:  2.704e-04  alpha:  5.641e-03  linmin:  1.723e-05  t[s]:   4979.57
	FillingsUpdate:  mu: +0.054449309  nElectrons: 327.000000
	SubspaceRotationAdjust: set factor to 0.622
ElecMinimize: Iter: 131  F: -1610.705742106778416  |grad|_K:  2.707e-04  alpha:  4.740e-03  linmin: -2.832e-06  t[s]:   5013.79
	FillingsUpdate:  mu: +0.052111263  nElectrons: 327.000000
	SubspaceRotationAdjust: set factor to 0.602
ElecMinimize: Iter: 132  F: -1610.741804108500219  |grad|_K:  2.567e-04  alpha:  5.095e-03  linmin:  7.643e-06  t[s]:   5048.35
	FillingsUpdate:  mu: +0.078178479  nElectrons: 327.000000
	SubspaceRotationAdjust: set factor to 0.796
ElecMinimize: Iter: 133  F: -1610.772910097758768  |grad|_K:  2.301e-04  alpha:  4.922e-03  linmin:  1.803e-06  t[s]:   5082.82
	FillingsUpdate:  mu: +0.102213498  nElectrons: 327.000000
	SubspaceRotationAdjust: set factor to 0.97
ElecMinimize: Iter: 134  F: -1610.798181687067427  |grad|_K:  2.211e-04  alpha:  4.957e-03  linmin: -1.354e-05  t[s]:   5117.50
	FillingsUpdate:  mu: +0.119406149  nElectrons: 327.000000
	SubspaceRotationAdjust: set factor to 0.986
ElecMinimize: Iter: 135  F: -1610.825698549298522  |grad|_K:  2.571e-04  alpha:  5.761e-03  linmin: -1.448e-05  t[s]:   5152.02
	FillingsUpdate:  mu: +0.122772443  nElectrons: 327.000000
	SubspaceRotationAdjust: set factor to 0.934
ElecMinimize: Iter: 136  F: -1610.862261241185934  |grad|_K:  2.675e-04  alpha:  5.668e-03  linmin:  1.715e-05  t[s]:   5186.51
	FillingsUpdate:  mu: +0.112053200  nElectrons: 327.000000
	SubspaceRotationAdjust: set factor to 1.32
ElecMinimize: Iter: 137  F: -1610.889123565101499  |grad|_K:  2.293e-04  alpha:  3.893e-03  linmin:  8.281e-07  t[s]:   5221.40
	FillingsUpdate:  mu: +0.102000147  nElectrons: 327.000000
	SubspaceRotationAdjust: set factor to 1.58
ElecMinimize: Iter: 138  F: -1610.909404339161256  |grad|_K:  2.294e-04  alpha:  4.005e-03  linmin:  1.581e-05  t[s]:   5255.84
	FillingsUpdate:  mu: +0.077852639  nElectrons: 327.000000
	SubspaceRotationAdjust: set factor to 1.9
ElecMinimize: Iter: 139  F: -1610.926945011272664  |grad|_K:  2.390e-04  alpha:  3.477e-03  linmin:  1.796e-05  t[s]:   5290.65
	FillingsUpdate:  mu: +0.067679757  nElectrons: 327.000000
	SubspaceRotationAdjust: set factor to 1.63
ElecMinimize: Iter: 140  F: -1610.942367025004160  |grad|_K:  2.797e-04  alpha:  2.641e-03  linmin:  3.026e-05  t[s]:   5325.20
	FillingsUpdate:  mu: +0.057343355  nElectrons: 327.000000
	SubspaceRotationAdjust: set factor to 1.27
ElecMinimize: Iter: 141  F: -1610.953392119688033  |grad|_K:  2.991e-04  alpha:  1.541e-03  linmin:  7.462e-05  t[s]:   5360.37
	FillingsUpdate:  mu: +0.072642447  nElectrons: 327.000000
	SubspaceRotationAdjust: set factor to 1.54
ElecMinimize: Iter: 142  F: -1610.970501116037212  |grad|_K:  2.288e-04  alpha:  2.041e-03  linmin: -6.887e-05  t[s]:   5395.12
	FillingsUpdate:  mu: +0.085218356  nElectrons: 327.000000
	SubspaceRotationAdjust: set factor to 1.81
ElecMinimize: Iter: 143  F: -1610.979581064674221  |grad|_K:  2.155e-04  alpha:  1.673e-03  linmin:  3.114e-05  t[s]:   5429.57
	FillingsUpdate:  mu: +0.091654689  nElectrons: 327.000000
	SubspaceRotationAdjust: set factor to 1.47
ElecMinimize: Iter: 144  F: -1610.987681460755084  |grad|_K:  2.754e-04  alpha:  1.858e-03  linmin: -3.908e-07  t[s]:   5463.91
	FillingsUpdate:  mu: +0.104251574  nElectrons: 327.000000
	SubspaceRotationAdjust: set factor to 1.11
ElecMinimize: Iter: 145  F: -1611.002084517921958  |grad|_K:  2.875e-04  alpha:  1.962e-03  linmin: -4.193e-05  t[s]:   5498.70
	FillingsUpdate:  mu: +0.089780407  nElectrons: 327.000000
	SubspaceRotationAdjust: set factor to 1.17
ElecMinimize: Iter: 146  F: -1611.016996945356141  |grad|_K:  2.219e-04  alpha:  1.803e-03  linmin:  1.831e-05  t[s]:   5533.10
	FillingsUpdate:  mu: +0.086313393  nElectrons: 327.000000
	SubspaceRotationAdjust: set factor to 1.29
ElecMinimize: Iter: 147  F: -1611.026269333157416  |grad|_K:  2.143e-04  alpha:  1.990e-03  linmin:  2.628e-05  t[s]:   5567.90
	FillingsUpdate:  mu: +0.071034778  nElectrons: 327.000000
	SubspaceRotationAdjust: set factor to 1.14
ElecMinimize: Iter: 148  F: -1611.035187870867048  |grad|_K:  2.337e-04  alpha:  2.059e-03  linmin:  1.240e-05  t[s]:   5602.40
	FillingsUpdate:  mu: +0.054725600  nElectrons: 327.000000
	SubspaceRotationAdjust: set factor to 0.998
ElecMinimize: Iter: 149  F: -1611.044913665701870  |grad|_K:  2.296e-04  alpha:  1.864e-03  linmin:  2.099e-06  t[s]:   5636.93
	FillingsUpdate:  mu: +0.044737697  nElectrons: 327.000000
	SubspaceRotationAdjust: set factor to 0.865
ElecMinimize: Iter: 150  F: -1611.054728056881231  |grad|_K:  2.243e-04  alpha:  1.934e-03  linmin: -7.983e-07  t[s]:   5671.35
	FillingsUpdate:  mu: +0.034684987  nElectrons: 327.000000
	SubspaceRotationAdjust: set factor to 0.693
ElecMinimize: Iter: 151  F: -1611.065619407178701  |grad|_K:  2.299e-04  alpha:  2.243e-03  linmin: -6.051e-06  t[s]:   5705.78
	FillingsUpdate:  mu: +0.042150809  nElectrons: 327.000000
	SubspaceRotationAdjust: set factor to 0.573
ElecMinimize: Iter: 152  F: -1611.078172685679419  |grad|_K:  2.150e-04  alpha:  2.450e-03  linmin: -1.007e-05  t[s]:   5740.20
	FillingsUpdate:  mu: +0.054472901  nElectrons: 327.000000
	SubspaceRotationAdjust: set factor to 0.605
ElecMinimize: Iter: 153  F: -1611.089336699679507  |grad|_K:  1.796e-04  alpha:  2.486e-03  linmin:  2.482e-06  t[s]:   5774.94
	FillingsUpdate:  mu: +0.063715968  nElectrons: 327.000000
	SubspaceRotationAdjust: set factor to 0.79
ElecMinimize: Iter: 154  F: -1611.097378641362184  |grad|_K:  1.612e-04  alpha:  2.591e-03  linmin:  3.832e-06  t[s]:   5809.31
	FillingsUpdate:  mu: +0.073574774  nElectrons: 327.000000
	SubspaceRotationAdjust: set factor to 0.802
ElecMinimize: Iter: 155  F: -1611.104275975687415  |grad|_K:  1.731e-04  alpha:  2.762e-03  linmin:  1.028e-06  t[s]:   5843.72
	FillingsUpdate:  mu: +0.084645457  nElectrons: 327.000000
	SubspaceRotationAdjust: set factor to 0.625
ElecMinimize: Iter: 156  F: -1611.112579488629308  |grad|_K:  1.993e-04  alpha:  2.877e-03  linmin:  5.518e-07  t[s]:   5878.19
	FillingsUpdate:  mu: +0.087929928  nElectrons: 327.000000
	SubspaceRotationAdjust: set factor to 0.478
ElecMinimize: Iter: 157  F: -1611.123085963724861  |grad|_K:  1.956e-04  alpha:  2.745e-03  linmin: -1.074e-06  t[s]:   5912.55
	FillingsUpdate:  mu: +0.081472009  nElectrons: 327.000000
	SubspaceRotationAdjust: set factor to 0.439
ElecMinimize: Iter: 158  F: -1611.133199530101137  |grad|_K:  1.664e-04  alpha:  2.739e-03  linmin: -2.695e-07  t[s]:   5947.08
	FillingsUpdate:  mu: +0.075599266  nElectrons: 327.000000
	SubspaceRotationAdjust: set factor to 0.521
ElecMinimize: Iter: 159  F: -1611.141153960476231  |grad|_K:  1.454e-04  alpha:  2.981e-03  linmin:  4.735e-06  t[s]:   5981.54
	FillingsUpdate:  mu: +0.073498135  nElectrons: 327.000000
	SubspaceRotationAdjust: set factor to 0.628
ElecMinimize: Iter: 160  F: -1611.147579431480381  |grad|_K:  1.430e-04  alpha:  3.163e-03  linmin:  6.295e-06  t[s]:   6015.69
	FillingsUpdate:  mu: +0.064182788  nElectrons: 327.000000
	SubspaceRotationAdjust: set factor to 0.628
ElecMinimize: Iter: 161  F: -1611.153653169413474  |grad|_K:  1.529e-04  alpha:  3.092e-03  linmin:  5.052e-06  t[s]:   6050.00
	FillingsUpdate:  mu: +0.053645327  nElectrons: 327.000000
	SubspaceRotationAdjust: set factor to 0.571
ElecMinimize: Iter: 162  F: -1611.160084805162342  |grad|_K:  1.595e-04  alpha:  2.860e-03  linmin:  2.623e-06  t[s]:   6084.35
	FillingsUpdate:  mu: +0.046594175  nElectrons: 327.000000
	SubspaceRotationAdjust: set factor to 0.514
ElecMinimize: Iter: 163  F: -1611.166804720973232  |grad|_K:  1.590e-04  alpha:  2.742e-03  linmin:  3.108e-07  t[s]:   6118.60
	FillingsUpdate:  mu: +0.047588915  nElectrons: 327.000000
	SubspaceRotationAdjust: set factor to 0.46
ElecMinimize: Iter: 164  F: -1611.173746707786222  |grad|_K:  1.584e-04  alpha:  2.850e-03  linmin: -2.202e-06  t[s]:   6153.42
	FillingsUpdate:  mu: +0.049912418  nElectrons: 327.000000
	SubspaceRotationAdjust: set factor to 0.41
ElecMinimize: Iter: 165  F: -1611.181143305292380  |grad|_K:  1.581e-04  alpha:  3.053e-03  linmin: -5.301e-06  t[s]:   6187.82
	FillingsUpdate:  mu: +0.049982256  nElectrons: 327.000000
	SubspaceRotationAdjust: set factor to 0.391
ElecMinimize: Iter: 166  F: -1611.188892922201831  |grad|_K:  1.521e-04  alpha:  3.201e-03  linmin: -6.700e-06  t[s]:   6223.16
	FillingsUpdate:  mu: +0.061519493  nElectrons: 327.000000
	SubspaceRotationAdjust: set factor to 0.44
ElecMinimize: Iter: 167  F: -1611.196190288132129  |grad|_K:  1.411e-04  alpha:  3.253e-03  linmin: -4.292e-06  t[s]:   6257.56
	FillingsUpdate:  mu: +0.075308985  nElectrons: 327.000000
	SubspaceRotationAdjust: set factor to 0.574
ElecMinimize: Iter: 168  F: -1611.202433572725568  |grad|_K:  1.346e-04  alpha:  3.240e-03  linmin: -1.439e-06  t[s]:   6291.85
	FillingsUpdate:  mu: +0.086801340  nElectrons: 327.000000
	SubspaceRotationAdjust: set factor to 0.649
ElecMinimize: Iter: 169  F: -1611.208023141010244  |grad|_K:  1.419e-04  alpha:  3.197e-03  linmin: -5.242e-07  t[s]:   6326.29
	FillingsUpdate:  mu: +0.094821149  nElectrons: 327.000000
	SubspaceRotationAdjust: set factor to 0.568
ElecMinimize: Iter: 170  F: -1611.214187449960036  |grad|_K:  1.620e-04  alpha:  3.174e-03  linmin: -1.479e-06  t[s]:   6360.74
	FillingsUpdate:  mu: +0.103130320  nElectrons: 327.000000
	SubspaceRotationAdjust: set factor to 0.467
ElecMinimize: Iter: 171  F: -1611.221981658302411  |grad|_K:  1.707e-04  alpha:  3.075e-03  linmin: -4.094e-06  t[s]:   6395.07
	FillingsUpdate:  mu: +0.107379529  nElectrons: 327.000000
	SubspaceRotationAdjust: set factor to 0.442
ElecMinimize: Iter: 172  F: -1611.230444187972807  |grad|_K:  1.571e-04  alpha:  2.999e-03  linmin: -2.880e-06  t[s]:   6429.45
	FillingsUpdate:  mu: +0.108797353  nElectrons: 327.000000
	SubspaceRotationAdjust: set factor to 0.547
ElecMinimize: Iter: 173  F: -1611.237708318652267  |grad|_K:  1.417e-04  alpha:  3.044e-03  linmin:  2.668e-06  t[s]:   6463.81
	FillingsUpdate:  mu: +0.115499897  nElectrons: 327.000000
	SubspaceRotationAdjust: set factor to 0.709
ElecMinimize: Iter: 174  F: -1611.243638585309554  |grad|_K:  1.408e-04  alpha:  3.073e-03  linmin:  5.193e-06  t[s]:   6498.51
	FillingsUpdate:  mu: +0.111010435  nElectrons: 327.000000
	SubspaceRotationAdjust: set factor to 0.724
ElecMinimize: Iter: 175  F: -1611.249255302827805  |grad|_K:  1.553e-04  alpha:  2.952e-03  linmin:  4.028e-06  t[s]:   6532.84
	FillingsUpdate:  mu: +0.104265609  nElectrons: 327.000000
	SubspaceRotationAdjust: set factor to 0.657
ElecMinimize: Iter: 176  F: -1611.255499384586756  |grad|_K:  1.667e-04  alpha:  2.694e-03  linmin:  5.587e-07  t[s]:   6567.17
	FillingsUpdate:  mu: +0.101967137  nElectrons: 327.000000
	SubspaceRotationAdjust: set factor to 0.608
ElecMinimize: Iter: 177  F: -1611.262276809299010  |grad|_K:  1.659e-04  alpha:  2.532e-03  linmin: -2.438e-06  t[s]:   6601.45
	FillingsUpdate:  mu: +0.098251384  nElectrons: 327.000000
	SubspaceRotationAdjust: set factor to 0.567
ElecMinimize: Iter: 178  F: -1611.269320354401088  |grad|_K:  1.664e-04  alpha:  2.647e-03  linmin: -5.010e-06  t[s]:   6635.88
	FillingsUpdate:  mu: +0.097299919  nElectrons: 327.000000
	SubspaceRotationAdjust: set factor to 0.51
ElecMinimize: Iter: 179  F: -1611.277112865047002  |grad|_K:  1.718e-04  alpha:  2.903e-03  linmin: -8.204e-06  t[s]:   6670.13
	FillingsUpdate:  mu: +0.106667458  nElectrons: 327.000000
	SubspaceRotationAdjust: set factor to 0.487
ElecMinimize: Iter: 180  F: -1611.285813192043406  |grad|_K:  1.682e-04  alpha:  3.035e-03  linmin: -8.765e-06  t[s]:   6705.01
	FillingsUpdate:  mu: +0.120601610  nElectrons: 327.000000
	SubspaceRotationAdjust: set factor to 0.59
ElecMinimize: Iter: 181  F: -1611.294094303083739  |grad|_K:  1.536e-04  alpha:  3.012e-03  linmin: -6.963e-06  t[s]:   6740.40
	FillingsUpdate:  mu: +0.133401455  nElectrons: 327.000000
	SubspaceRotationAdjust: set factor to 0.792
ElecMinimize: Iter: 182  F: -1611.301004266686959  |grad|_K:  1.448e-04  alpha:  3.018e-03  linmin: -5.251e-06  t[s]:   6775.06
	FillingsUpdate:  mu: +0.143510205  nElectrons: 327.000000
	SubspaceRotationAdjust: set factor to 0.978
ElecMinimize: Iter: 183  F: -1611.307231879752635  |grad|_K:  1.548e-04  alpha:  3.067e-03  linmin: -2.927e-06  t[s]:   6809.71
	FillingsUpdate:  mu: +0.150849261  nElectrons: 327.000000
	SubspaceRotationAdjust: set factor to 0.834
ElecMinimize: Iter: 184  F: -1611.314773601309298  |grad|_K:  1.876e-04  alpha:  3.255e-03  linmin: -6.680e-07  t[s]:   6844.50
	FillingsUpdate:  mu: +0.156115458  nElectrons: 327.000000
	SubspaceRotationAdjust: set factor to 0.738
ElecMinimize: Iter: 185  F: -1611.324192686148081  |grad|_K:  1.851e-04  alpha:  2.774e-03  linmin: -1.379e-06  t[s]:   6879.03
	FillingsUpdate:  mu: +0.156900293  nElectrons: 327.000000
	SubspaceRotationAdjust: set factor to 0.828
ElecMinimize: Iter: 186  F: -1611.332880693206789  |grad|_K:  1.660e-04  alpha:  2.626e-03  linmin: -9.920e-08  t[s]:   6913.79
	FillingsUpdate:  mu: +0.151306968  nElectrons: 327.000000
	SubspaceRotationAdjust: set factor to 0.888
ElecMinimize: Iter: 187  F: -1611.340568558501445  |grad|_K:  1.709e-04  alpha:  2.898e-03  linmin:  1.129e-05  t[s]:   6948.56
	FillingsUpdate:  mu: +0.142086297  nElectrons: 327.000000
	SubspaceRotationAdjust: set factor to 0.805
ElecMinimize: Iter: 188  F: -1611.348677257248710  |grad|_K:  1.885e-04  alpha:  2.900e-03  linmin:  2.106e-05  t[s]:   6983.26
	FillingsUpdate:  mu: +0.139340253  nElectrons: 327.000000
	SubspaceRotationAdjust: set factor to 0.792
ElecMinimize: Iter: 189  F: -1611.356861192474526  |grad|_K:  1.820e-04  alpha:  2.414e-03  linmin:  8.755e-06  t[s]:   7017.73
	FillingsUpdate:  mu: +0.137962615  nElectrons: 327.000000
	SubspaceRotationAdjust: set factor to 0.918
ElecMinimize: Iter: 190  F: -1611.364091832507256  |grad|_K:  1.707e-04  alpha:  2.277e-03  linmin:  6.845e-07  t[s]:   7052.30
	FillingsUpdate:  mu: +0.136075908  nElectrons: 327.000000
	SubspaceRotationAdjust: set factor to 0.941
ElecMinimize: Iter: 191  F: -1611.371032019972517  |grad|_K:  1.808e-04  alpha:  2.470e-03  linmin: -1.278e-05  t[s]:   7087.07
	FillingsUpdate:  mu: +0.139758994  nElectrons: 327.000000
	SubspaceRotationAdjust: set factor to 0.879
ElecMinimize: Iter: 192  F: -1611.379616138917072  |grad|_K:  1.908e-04  alpha:  2.691e-03  linmin: -3.857e-05  t[s]:   7121.81
	FillingsUpdate:  mu: +0.150327984  nElectrons: 327.000000
	SubspaceRotationAdjust: set factor to 1.14
ElecMinimize: Iter: 193  F: -1611.388484974098901  |grad|_K:  1.668e-04  alpha:  2.450e-03  linmin:  4.139e-05  t[s]:   7156.18
	FillingsUpdate:  mu: +0.157689410  nElectrons: 327.000000
	SubspaceRotationAdjust: set factor to 1.16
ElecMinimize: Iter: 194  F: -1611.393831638824167  |grad|_K:  1.835e-04  alpha:  2.006e-03  linmin:  4.196e-05  t[s]:   7191.26
	FillingsUpdate:  mu: +0.162620160  nElectrons: 327.000000
	SubspaceRotationAdjust: set factor to 0.853
ElecMinimize: Iter: 195  F: -1611.400098996059114  |grad|_K:  2.307e-04  alpha:  1.985e-03  linmin: -2.426e-05  t[s]:   7226.71
	FillingsUpdate:  mu: +0.167180782  nElectrons: 327.000000
	SubspaceRotationAdjust: set factor to 0.72
ElecMinimize: Iter: 196  F: -1611.412763170925700  |grad|_K:  2.052e-04  alpha:  2.449e-03  linmin:  5.810e-05  t[s]:   7261.30
	FillingsUpdate:  mu: +0.160585488  nElectrons: 327.000000
	SubspaceRotationAdjust: set factor to 0.783
ElecMinimize: Iter: 197  F: -1611.419115537181824  |grad|_K:  1.783e-04  alpha:  1.561e-03  linmin: -4.324e-06  t[s]:   7296.14
	FillingsUpdate:  mu: +0.157865880  nElectrons: 327.000000
	SubspaceRotationAdjust: set factor to 0.722
ElecMinimize: Iter: 198  F: -1611.424656132643349  |grad|_K:  1.936e-04  alpha:  1.812e-03  linmin:  3.512e-05  t[s]:   7330.63
	FillingsUpdate:  mu: +0.145440815  nElectrons: 327.000000
	SubspaceRotationAdjust: set factor to 0.604
ElecMinimize: Iter: 199  F: -1611.430539957308156  |grad|_K:  2.061e-04  alpha:  1.667e-03  linmin:  1.011e-05  t[s]:   7365.21
	FillingsUpdate:  mu: +0.131374675  nElectrons: 327.000000
	SubspaceRotationAdjust: set factor to 0.567
ElecMinimize: Iter: 200  F: -1611.436861547650551  |grad|_K:  1.910e-04  alpha:  1.554e-03  linmin:  8.451e-06  t[s]:   7400.00
	FillingsUpdate:  mu: +0.124632650  nElectrons: 327.000000
	SubspaceRotationAdjust: set factor to 0.644
ElecMinimize: Iter: 201  F: -1611.442146594509495  |grad|_K:  1.739e-04  alpha:  1.511e-03  linmin:  1.499e-05  t[s]:   7434.57
	FillingsUpdate:  mu: +0.119385165  nElectrons: 327.000000
	SubspaceRotationAdjust: set factor to 0.664
ElecMinimize: Iter: 202  F: -1611.446540989443974  |grad|_K:  1.806e-04  alpha:  1.525e-03  linmin:  1.803e-05  t[s]:   7468.98
	FillingsUpdate:  mu: +0.110283721  nElectrons: 327.000000
	SubspaceRotationAdjust: set factor to 0.532
ElecMinimize: Iter: 203  F: -1611.451261138653763  |grad|_K:  2.097e-04  alpha:  1.523e-03  linmin:  1.857e-05  t[s]:   7503.42
	FillingsUpdate:  mu: +0.103833337  nElectrons: 327.000000
	SubspaceRotationAdjust: set factor to 0.381
ElecMinimize: Iter: 204  F: -1611.457447699516479  |grad|_K:  2.319e-04  alpha:  1.480e-03  linmin:  1.446e-05  t[s]:   7539.18
	FillingsUpdate:  mu: +0.094292575  nElectrons: 327.000000
	SubspaceRotationAdjust: set factor to 0.275
ElecMinimize: Iter: 205  F: -1611.465286539345243  |grad|_K:  2.263e-04  alpha:  1.530e-03  linmin:  4.709e-07  t[s]:   7573.71
	FillingsUpdate:  mu: +0.092131431  nElectrons: 327.000000
	SubspaceRotationAdjust: set factor to 0.227
ElecMinimize: Iter: 206  F: -1611.474001594712945  |grad|_K:  1.979e-04  alpha:  1.762e-03  linmin: -1.496e-05  t[s]:   7608.66
	FillingsUpdate:  mu: +0.101029833  nElectrons: 327.000000
	SubspaceRotationAdjust: set factor to 0.249
ElecMinimize: Iter: 207  F: -1611.482004191994065  |grad|_K:  1.668e-04  alpha:  2.091e-03  linmin: -1.144e-05  t[s]:   7643.56
	FillingsUpdate:  mu: +0.107812218  nElectrons: 327.000000
	SubspaceRotationAdjust: set factor to 0.357
ElecMinimize: Iter: 208  F: -1611.488274738655491  |grad|_K:  1.488e-04  alpha:  2.315e-03  linmin: -3.476e-06  t[s]:   7678.68
	FillingsUpdate:  mu: +0.109552492  nElectrons: 327.000000
	SubspaceRotationAdjust: set factor to 0.444
ElecMinimize: Iter: 209  F: -1611.493264202469845  |grad|_K:  1.467e-04  alpha:  2.332e-03  linmin: -9.784e-07  t[s]:   7713.36
	FillingsUpdate:  mu: +0.108403438  nElectrons: 327.000000
	SubspaceRotationAdjust: set factor to 0.489
ElecMinimize: Iter: 210  F: -1611.498070679193916  |grad|_K:  1.611e-04  alpha:  2.316e-03  linmin:  1.498e-07  t[s]:   7748.16
	FillingsUpdate:  mu: +0.110368809  nElectrons: 327.000000
	SubspaceRotationAdjust: set factor to 0.404
ElecMinimize: Iter: 211  F: -1611.503945343796659  |grad|_K:  1.859e-04  alpha:  2.349e-03  linmin:  1.339e-06  t[s]:   7783.05
	FillingsUpdate:  mu: +0.117773802  nElectrons: 327.000000
	SubspaceRotationAdjust: set factor to 0.336
ElecMinimize: Iter: 212  F: -1611.510889979614149  |grad|_K:  1.811e-04  alpha:  2.086e-03  linmin: -1.044e-06  t[s]:   7817.82
	FillingsUpdate:  mu: +0.120540710  nElectrons: 327.000000
	SubspaceRotationAdjust: set factor to 0.331
ElecMinimize: Iter: 213  F: -1611.517547327275452  |grad|_K:  1.606e-04  alpha:  2.103e-03  linmin: -5.506e-06  t[s]:   7852.15
	FillingsUpdate:  mu: +0.114296448  nElectrons: 327.000000
	SubspaceRotationAdjust: set factor to 0.376
ElecMinimize: Iter: 214  F: -1611.523328136465580  |grad|_K:  1.483e-04  alpha:  2.314e-03  linmin: -7.266e-06  t[s]:   7886.61
	FillingsUpdate:  mu: +0.112012157  nElectrons: 327.000000
	SubspaceRotationAdjust: set factor to 0.39
ElecMinimize: Iter: 215  F: -1611.528724508047617  |grad|_K:  1.521e-04  alpha:  2.531e-03  linmin: -6.194e-06  t[s]:   7920.91
	FillingsUpdate:  mu: +0.110335629  nElectrons: 327.000000
	SubspaceRotationAdjust: set factor to 0.348
ElecMinimize: Iter: 216  F: -1611.534601346892259  |grad|_K:  1.625e-04  alpha:  2.624e-03  linmin: -3.122e-06  t[s]:   7955.80
	FillingsUpdate:  mu: +0.100379892  nElectrons: 327.000000
	SubspaceRotationAdjust: set factor to 0.313
ElecMinimize: Iter: 217  F: -1611.541042346905442  |grad|_K:  1.593e-04  alpha:  2.524e-03  linmin:  1.248e-06  t[s]:   7990.50
	FillingsUpdate:  mu: +0.086918992  nElectrons: 327.000000
	SubspaceRotationAdjust: set factor to 0.334
ElecMinimize: Iter: 218  F: -1611.546928243483308  |grad|_K:  1.437e-04  alpha:  2.406e-03  linmin:  1.923e-06  t[s]:   8025.07
	FillingsUpdate:  mu: +0.078403486  nElectrons: 327.000000
	SubspaceRotationAdjust: set factor to 0.441
ElecMinimize: Iter: 219  F: -1611.551709322355919  |grad|_K:  1.318e-04  alpha:  2.405e-03  linmin: -9.942e-07  t[s]:   8059.52
	FillingsUpdate:  mu: +0.072554289  nElectrons: 327.000000
	SubspaceRotationAdjust: set factor to 0.543
ElecMinimize: Iter: 220  F: -1611.555789876915469  |grad|_K:  1.335e-04  alpha:  2.434e-03  linmin: -4.053e-06  t[s]:   8093.98
	FillingsUpdate:  mu: +0.065255301  nElectrons: 327.000000
	SubspaceRotationAdjust: set factor to 0.492
ElecMinimize: Iter: 221  F: -1611.560080743912522  |grad|_K:  1.516e-04  alpha:  2.490e-03  linmin: -6.585e-06  t[s]:   8128.67
	FillingsUpdate:  mu: +0.055674421  nElectrons: 327.000000
	SubspaceRotationAdjust: set factor to 0.39
ElecMinimize: Iter: 222  F: -1611.565664002900803  |grad|_K:  1.648e-04  alpha:  2.508e-03  linmin: -7.882e-06  t[s]:   8164.02
	FillingsUpdate:  mu: +0.058701727  nElectrons: 327.000000
	SubspaceRotationAdjust: set factor to 0.33
ElecMinimize: Iter: 223  F: -1611.572187927885579  |grad|_K:  1.541e-04  alpha:  2.478e-03  linmin: -7.865e-06  t[s]:   8198.69
	FillingsUpdate:  mu: +0.060485254  nElectrons: 327.000000
	SubspaceRotationAdjust: set factor to 0.341
ElecMinimize: Iter: 224  F: -1611.578242818742183  |grad|_K:  1.358e-04  alpha:  2.628e-03  linmin: -1.207e-05  t[s]:   8233.44
	FillingsUpdate:  mu: +0.063151248  nElectrons: 327.000000
	SubspaceRotationAdjust: set factor to 0.399
ElecMinimize: Iter: 225  F: -1611.583570765678132  |grad|_K:  1.280e-04  alpha:  2.966e-03  linmin: -1.646e-05  t[s]:   8267.86
	FillingsUpdate:  mu: +0.067798354  nElectrons: 327.000000
	SubspaceRotationAdjust: set factor to 0.419
ElecMinimize: Iter: 226  F: -1611.588787602740922  |grad|_K:  1.330e-04  alpha:  3.263e-03  linmin: -1.657e-05  t[s]:   8302.22
	FillingsUpdate:  mu: +0.074412856  nElectrons: 327.000000
	SubspaceRotationAdjust: set factor to 0.398
ElecMinimize: Iter: 227  F: -1611.594543223130813  |grad|_K:  1.388e-04  alpha:  3.340e-03  linmin: -1.283e-05  t[s]:   8337.46
	FillingsUpdate:  mu: +0.080710618  nElectrons: 327.000000
	SubspaceRotationAdjust: set factor to 0.406
ElecMinimize: Iter: 228  F: -1611.600531751432982  |grad|_K:  1.330e-04  alpha:  3.198e-03  linmin: -8.799e-06  t[s]:   8372.21
	FillingsUpdate:  mu: +0.087584102  nElectrons: 327.000000
	SubspaceRotationAdjust: set factor to 0.48
ElecMinimize: Iter: 229  F: -1611.605964923867987  |grad|_K:  1.248e-04  alpha:  3.168e-03  linmin: -8.202e-06  t[s]:   8406.78
	FillingsUpdate:  mu: +0.088456679  nElectrons: 327.000000
	SubspaceRotationAdjust: set factor to 0.54
ElecMinimize: Iter: 230  F: -1611.610934588432428  |grad|_K:  1.268e-04  alpha:  3.294e-03  linmin: -6.752e-06  t[s]:   8441.32
	FillingsUpdate:  mu: +0.090813927  nElectrons: 327.000000
	SubspaceRotationAdjust: set factor to 0.51
ElecMinimize: Iter: 231  F: -1611.616180898279481  |grad|_K:  1.374e-04  alpha:  3.372e-03  linmin: -3.832e-06  t[s]:   8476.13
	FillingsUpdate:  mu: +0.086792470  nElectrons: 327.000000
	SubspaceRotationAdjust: set factor to 0.477
ElecMinimize: Iter: 232  F: -1611.622001335578489  |grad|_K:  1.378e-04  alpha:  3.191e-03  linmin: -3.165e-06  t[s]:   8510.98
	FillingsUpdate:  mu: +0.082582727  nElectrons: 327.000000
	SubspaceRotationAdjust: set factor to 0.518
ElecMinimize: Iter: 233  F: -1611.627576549706191  |grad|_K:  1.279e-04  alpha:  3.040e-03  linmin: -4.039e-06  t[s]:   8545.61
	FillingsUpdate:  mu: +0.077424103  nElectrons: 327.000000
	SubspaceRotationAdjust: set factor to 0.577
ElecMinimize: Iter: 234  F: -1611.632566391956743  |grad|_K:  1.264e-04  alpha:  3.158e-03  linmin: -2.880e-06  t[s]:   8580.11
	FillingsUpdate:  mu: +0.072030125  nElectrons: 327.000000
	SubspaceRotationAdjust: set factor to 0.521
ElecMinimize: Iter: 235  F: -1611.637786317042583  |grad|_K:  1.402e-04  alpha:  3.382e-03  linmin: -1.366e-06  t[s]:   8614.89
	FillingsUpdate:  mu: +0.067371454  nElectrons: 327.000000
	SubspaceRotationAdjust: set factor to 0.437
ElecMinimize: Iter: 236  F: -1611.644174859131226  |grad|_K:  1.470e-04  alpha:  3.370e-03  linmin: -2.932e-06  t[s]:   8649.19
	FillingsUpdate:  mu: +0.070091660  nElectrons: 327.000000
	SubspaceRotationAdjust: set factor to 0.435
ElecMinimize: Iter: 237  F: -1611.650841118362678  |grad|_K:  1.326e-04  alpha:  3.193e-03  linmin: -4.538e-06  t[s]:   8683.42
	FillingsUpdate:  mu: +0.081069810  nElectrons: 327.000000
	SubspaceRotationAdjust: set factor to 0.587
ElecMinimize: Iter: 238  F: -1611.656368393479852  |grad|_K:  1.180e-04  alpha:  3.255e-03  linmin: -3.137e-06  t[s]:   8718.65
	FillingsUpdate:  mu: +0.088949194  nElectrons: 327.000000
	SubspaceRotationAdjust: set factor to 0.749
ElecMinimize: Iter: 239  F: -1611.660980964893497  |grad|_K:  1.194e-04  alpha:  3.430e-03  linmin: -1.202e-06  t[s]:   8753.40
	FillingsUpdate:  mu: +0.098032298  nElectrons: 327.000000
	SubspaceRotationAdjust: set factor to 0.747
ElecMinimize: Iter: 240  F: -1611.665668596320756  |grad|_K:  1.317e-04  alpha:  3.407e-03  linmin: -4.805e-07  t[s]:   8788.20
	FillingsUpdate:  mu: +0.110402543  nElectrons: 327.000000
	SubspaceRotationAdjust: set factor to 0.74
ElecMinimize: Iter: 241  F: -1611.670678797502660  |grad|_K:  1.313e-04  alpha:  2.994e-03  linmin: -1.378e-06  t[s]:   8822.65
	FillingsUpdate:  mu: +0.114505650  nElectrons: 327.000000
	SubspaceRotationAdjust: set factor to 0.719
ElecMinimize: Iter: 242  F: -1611.675544380006841  |grad|_K:  1.316e-04  alpha:  2.926e-03  linmin: -3.571e-06  t[s]:   8857.17
	FillingsUpdate:  mu: +0.118257105  nElectrons: 327.000000
	SubspaceRotationAdjust: set factor to 0.594
ElecMinimize: Iter: 243  F: -1611.681124259590433  |grad|_K:  1.449e-04  alpha:  3.332e-03  linmin: -4.189e-06  t[s]:   8891.93
	FillingsUpdate:  mu: +0.125084734  nElectrons: 327.000000
	SubspaceRotationAdjust: set factor to 0.51
ElecMinimize: Iter: 244  F: -1611.687966553400429  |grad|_K:  1.400e-04  alpha:  3.371e-03  linmin: -2.018e-06  t[s]:   8926.29
	FillingsUpdate:  mu: +0.124411664  nElectrons: 327.000000
	SubspaceRotationAdjust: set factor to 0.638
ElecMinimize: Iter: 245  F: -1611.693932939292154  |grad|_K:  1.166e-04  alpha:  3.152e-03  linmin:  3.672e-06  t[s]:   8960.68
	FillingsUpdate:  mu: +0.122134278  nElectrons: 327.000000
	SubspaceRotationAdjust: set factor to 0.813
ElecMinimize: Iter: 246  F: -1611.698314783912792  |grad|_K:  1.107e-04  alpha:  3.348e-03  linmin:  9.375e-06  t[s]:   8995.51
	FillingsUpdate:  mu: +0.117945408  nElectrons: 327.000000
	SubspaceRotationAdjust: set factor to 0.788
ElecMinimize: Iter: 247  F: -1611.702602624671272  |grad|_K:  1.289e-04  alpha:  3.647e-03  linmin:  9.892e-06  t[s]:   9030.33
	FillingsUpdate:  mu: +0.112887362  nElectrons: 327.000000
	SubspaceRotationAdjust: set factor to 0.678
ElecMinimize: Iter: 248  F: -1611.708091636300878  |grad|_K:  1.375e-04  alpha:  3.445e-03  linmin:  2.790e-06  t[s]:   9064.66
	FillingsUpdate:  mu: +0.114678061  nElectrons: 327.000000
	SubspaceRotationAdjust: set factor to 0.679
ElecMinimize: Iter: 249  F: -1611.713521611322221  |grad|_K:  1.254e-04  alpha:  2.982e-03  linmin:  1.420e-06  t[s]:   9099.99
	FillingsUpdate:  mu: +0.114574769  nElectrons: 327.000000
	SubspaceRotationAdjust: set factor to 0.636
ElecMinimize: Iter: 250  F: -1611.718715548680620  |grad|_K:  1.296e-04  alpha:  3.427e-03  linmin:  4.476e-06  t[s]:   9134.66
	FillingsUpdate:  mu: +0.124789166  nElectrons: 327.000000
	SubspaceRotationAdjust: set factor to 0.591
ElecMinimize: Iter: 251  F: -1611.724493395912305  |grad|_K:  1.302e-04  alpha:  3.579e-03  linmin:  8.693e-06  t[s]:   9169.57
	FillingsUpdate:  mu: +0.135733869  nElectrons: 327.000000
	SubspaceRotationAdjust: set factor to 0.712
ElecMinimize: Iter: 252  F: -1611.729623293227860  |grad|_K:  1.162e-04  alpha:  3.147e-03  linmin:  7.784e-06  t[s]:   9204.35
	FillingsUpdate:  mu: +0.140391827  nElectrons: 327.000000
	SubspaceRotationAdjust: set factor to 0.787
ElecMinimize: Iter: 253  F: -1611.733891447239557  |grad|_K:  1.202e-04  alpha:  3.294e-03  linmin:  8.283e-06  t[s]:   9239.37
	FillingsUpdate:  mu: +0.143562834  nElectrons: 327.000000
	SubspaceRotationAdjust: set factor to 0.652
ElecMinimize: Iter: 254  F: -1611.738906272777967  |grad|_K:  1.418e-04  alpha:  3.615e-03  linmin:  6.061e-06  t[s]:   9274.12
	FillingsUpdate:  mu: +0.146932723  nElectrons: 327.000000
	SubspaceRotationAdjust: set factor to 0.608
ElecMinimize: Iter: 255  F: -1611.744922385800464  |grad|_K:  1.319e-04  alpha:  3.115e-03  linmin:  1.276e-06  t[s]:   9308.70
	FillingsUpdate:  mu: +0.143408633  nElectrons: 327.000000
	SubspaceRotationAdjust: set factor to 0.826
ElecMinimize: Iter: 256  F: -1611.749800101940991  |grad|_K:  1.139e-04  alpha:  2.909e-03  linmin:  4.660e-06  t[s]:   9343.18
	FillingsUpdate:  mu: +0.141118640  nElectrons: 327.000000
	SubspaceRotationAdjust: set factor to 0.912
ElecMinimize: Iter: 257  F: -1611.753883983729565  |grad|_K:  1.230e-04  alpha:  3.280e-03  linmin:  8.667e-06  t[s]:   9377.73
	FillingsUpdate:  mu: +0.133530055  nElectrons: 327.000000
	SubspaceRotationAdjust: set factor to 0.827
ElecMinimize: Iter: 258  F: -1611.758579680521962  |grad|_K:  1.365e-04  alpha:  3.239e-03  linmin:  6.424e-06  t[s]:   9412.26
	FillingsUpdate:  mu: +0.122912993  nElectrons: 327.000000
	SubspaceRotationAdjust: set factor to 0.834
ElecMinimize: Iter: 259  F: -1611.763352383833762  |grad|_K:  1.294e-04  alpha:  2.664e-03  linmin:  2.524e-06  t[s]:   9446.59
	FillingsUpdate:  mu: +0.120984239  nElectrons: 327.000000
	SubspaceRotationAdjust: set factor to 0.763
ElecMinimize: Iter: 260  F: -1611.768075765536651  |grad|_K:  1.375e-04  alpha:  2.929e-03  linmin:  1.563e-06  t[s]:   9481.49
	FillingsUpdate:  mu: +0.120234015  nElectrons: 327.000000
	SubspaceRotationAdjust: set factor to 0.68
ElecMinimize: Iter: 261  F: -1611.773758299619203  |grad|_K:  1.409e-04  alpha:  3.122e-03  linmin: -5.299e-07  t[s]:   9515.87
	FillingsUpdate:  mu: +0.128002590  nElectrons: 327.000000
	SubspaceRotationAdjust: set factor to 0.882
[...]
force O  -0.004805316296755  -0.004758891849844  -0.064954313611130 0
force O  -0.006292022884754   0.004606704235071  -0.065990960334447 0
force O   0.004882031805924  -0.006271049856650  -0.066326649337541 0
force O   0.001898702361382   0.002409598854110  -0.057645624658651 0
force O   0.001904830584880   0.001476258594463   0.468545431596564 0
force O  -0.000360586001662  -0.000195931641790   0.387149798868517 0
force O   0.000131285578649   0.000108700595415   0.387018833980417 0
force O  -0.000694071554922  -0.000330015110505   0.388803294759152 0
force O   0.006509103296752   0.004405653746687   0.011674867420380 1
force H  -0.008896908438556  -0.008910747225684  -0.019235675551438 1

# Energy components:
   Eewald =     4793.6005014255815695
       EH =     6226.4008459648939606
     Eloc =   -12759.2234143018122268
      Enl =     -390.5846955401112837
   Epulay =       -0.0003758999111746
      Exc =     -212.0357978286880893
       KE =      729.5164384576501106
-------------------------------------
     Etot =    -1612.3264977223957430
       TS =        0.0101307233746965
-------------------------------------
        F =    -1612.3366284457704296

IonicMinimize: Iter:   4  F: -1612.336628445770430  |grad|_K:  5.544e-04  alpha:  1.000e+00  linmin:  4.136e-03  t[s]:  39421.57

#--- Lowdin population analysis ---
# oxidation-state Cr +2.788 +2.740 +2.740 +2.708 +2.632 +2.629 +2.629 +2.632 +2.642 +2.639 +2.639 +2.638 +2.763 +2.764 +2.764 +2.764
# oxidation-state O -0.711 -0.699 -0.699 -0.699 -0.709 -0.680 -0.680 -0.680 -0.680 -0.680 -0.680 -0.680 -0.716 -0.713 -0.713 -0.712 -0.647
# oxidation-state H +0.377


-------- Electronic minimization -----------
	FillingsUpdate:  mu: +0.114826290  nElectrons: 327.000000
ElecMinimize: Iter:   0  F: -1612.326555539097853  |grad|_K:  2.622e-05  alpha:  1.000e+00
	FillingsUpdate:  mu: +0.132144015  nElectrons: 327.000000
	SubspaceRotationAdjust: set factor to 0.035
ElecMinimize: Iter:   1  F: -1612.336409533938422  |grad|_K:  2.238e-06  alpha:  1.498e-01  linmin:  2.546e-02  t[s]:  39482.23
	FillingsUpdate:  mu: +0.132181550  nElectrons: 327.000000
	SubspaceRotationAdjust: set factor to 0.04
ElecMinimize: Iter:   2  F: -1612.336565366515742  |grad|_K:  1.066e-06  alpha:  3.251e-01  linmin:  8.410e-06  t[s]:  39516.49
	FillingsUpdate:  mu: +0.132150094  nElectrons: 327.000000
	SubspaceRotationAdjust: set factor to 0.0291
ElecMinimize: Iter:   3  F: -1612.336589139160424  |grad|_K:  1.153e-06  alpha:  2.172e-01  linmin: -1.506e-06  t[s]:  39550.97
	FillingsUpdate:  mu: +0.132193613  nElectrons: 327.000000
	SubspaceRotationAdjust: set factor to 0.0172
ElecMinimize: Iter:   4  F: -1612.336607075470738  |grad|_K:  5.625e-07  alpha:  1.399e-01  linmin: -9.255e-07  t[s]:  39585.25
ElecMinimize: 	Predicted alpha/alphaT>3.000000, increasing alphaT to 4.196227e-01.
	FillingsUpdate:  mu: +0.132180442  nElectrons: 327.000000
	SubspaceRotationAdjust: set factor to 0.0201
ElecMinimize: Iter:   5  F: -1612.336620779082068  |grad|_K:  3.699e-07  alpha:  4.492e-01  linmin: -1.462e-05  t[s]:  39629.56
	FillingsUpdate:  mu: +0.132182023  nElectrons: 327.000000
	SubspaceRotationAdjust: set factor to 0.0186
ElecMinimize: Iter:   6  F: -1612.336626662195158  |grad|_K:  2.731e-07  alpha:  4.459e-01  linmin: -1.888e-05  t[s]:  39664.04
	FillingsUpdate:  mu: +0.132181094  nElectrons: 327.000000
	SubspaceRotationAdjust: set factor to 0.0133
ElecMinimize: Iter:   7  F: -1612.336628766961894  |grad|_K:  2.136e-07  alpha:  2.927e-01  linmin: -6.317e-07  t[s]:  39698.64
	FillingsUpdate:  mu: +0.132177464  nElectrons: 327.000000
	SubspaceRotationAdjust: set factor to 0.011
ElecMinimize: Iter:   8  F: -1612.336630119835490  |grad|_K:  1.402e-07  alpha:  3.077e-01  linmin: -3.623e-05  t[s]:  39732.94
	FillingsUpdate:  mu: +0.132173124  nElectrons: 327.000000
	SubspaceRotationAdjust: set factor to 0.0137
ElecMinimize: Iter:   9  F: -1612.336630933065408  |grad|_K:  1.084e-07  alpha:  4.288e-01  linmin: -3.612e-05  t[s]:  39767.55
	FillingsUpdate:  mu: +0.132171403  nElectrons: 327.000000
	SubspaceRotationAdjust: set factor to 0.0133
ElecMinimize: Iter:  10  F: -1612.336631395386121  |grad|_K:  8.681e-08  alpha:  4.081e-01  linmin:  4.092e-05  t[s]:  39802.25
	FillingsUpdate:  mu: +0.132168611  nElectrons: 327.000000
	SubspaceRotationAdjust: set factor to 0.0136
ElecMinimize: Iter:  11  F: -1612.336631746148214  |grad|_K:  7.890e-08  alpha:  4.825e-01  linmin:  6.647e-06  t[s]:  39836.89
	FillingsUpdate:  mu: +0.132164812  nElectrons: 327.000000
	SubspaceRotationAdjust: set factor to 0.0156
ElecMinimize: Iter:  12  F: -1612.336632080724257  |grad|_K:  7.817e-08  alpha:  5.576e-01  linmin: -5.772e-05  t[s]:  39871.35
	FillingsUpdate:  mu: +0.132161003  nElectrons: 327.000000
	SubspaceRotationAdjust: set factor to 0.0174
ElecMinimize: Iter:  13  F: -1612.336632387701002  |grad|_K:  7.649e-08  alpha:  5.209e-01  linmin:  3.281e-05  t[s]:  39906.08
ElecMinimize: Converged (|Delta F|<1.000000e-06 for 5 iters).
Setting wave functions to eigenvectors of Hamiltonian

# Ionic positions in lattice coordinates:
ion Cr   0.000000000000000   0.000000000000000   0.150000000000000 0
ion Cr   0.500000000000000   0.000000000000000   0.150000000000000 0
ion Cr   0.000000000000000   0.500000000000000   0.150000000000000 0
ion Cr   0.500000000000000   0.500000000000000   0.150000000000000 0
ion Cr   0.250000000000000   0.250000000000000   0.050000000000000 0
ion Cr   0.250000000000000   0.750000000000000   0.050000000000000 0
ion Cr  -0.250000000000000   0.250000000000000   0.050000000000000 0
ion Cr  -0.250000000000000   0.750000000000000   0.050000000000000 0
ion Cr   0.000000000000000   0.000000000000000  -0.050000000000000 0
ion Cr   0.500000000000000   0.000000000000000  -0.050000000000000 0
ion Cr   0.000000000000000   0.500000000000000  -0.050000000000000 0
ion Cr   0.500000000000000   0.500000000000000  -0.050000000000000 0
ion Cr   0.250000000000000   0.250000000000000  -0.150000000000000 0
ion Cr   0.250000000000000   0.750000000000000  -0.150000000000000 0
ion Cr  -0.250000000000000   0.250000000000000  -0.150000000000000 0
ion Cr  -0.250000000000000   0.750000000000000  -0.150000000000000 0
ion O   0.250000000000000   0.250000000000000   0.150000000000000 0
ion O   0.250000000000000   0.750000000000000   0.150000000000000 0
ion O  -0.250000000000000   0.250000000000000   0.150000000000000 0
ion O  -0.250000000000000   0.750000000000000   0.150000000000000 0
ion O   0.000000000000000   0.000000000000000   0.050000000000000 0
ion O   0.500000000000000   0.000000000000000   0.050000000000000 0
ion O   0.000000000000000   0.500000000000000   0.050000000000000 0
ion O   0.500000000000000   0.500000000000000   0.050000000000000 0
ion O   0.250000000000000   0.250000000000000  -0.050000000000000 0
ion O   0.250000000000000   0.750000000000000  -0.050000000000000 0
ion O  -0.250000000000000   0.250000000000000  -0.050000000000000 0
ion O  -0.250000000000000   0.750000000000000  -0.050000000000000 0
ion O   0.000000000000000   0.000000000000000  -0.150000000000000 0
ion O   0.500000000000000   0.000000000000000  -0.150000000000000 0
ion O   0.000000000000000   0.500000000000000  -0.150000000000000 0
ion O   0.500000000000000   0.500000000000000  -0.150000000000000 0
ion O  -0.000636301298229  -0.000904175274989   0.232290153429243 1
ion H   0.099404505724115   0.099407283222929   0.249579402359421 1

# Forces in Lattice coordinates:
force Cr   0.005903289169170   0.005800359925410  -0.288510328380458 0
force Cr   0.017432785876769  -0.009843235321720  -1.444242008014515 0
force Cr  -0.009757460319495   0.017533390382126  -1.444398588259195 0
force Cr   0.006930075023059   0.006995543920900  -1.347310192690980 0
force Cr   0.015104013455090   0.015096634747847   0.538324843066284 0
force Cr   0.015175705889972  -0.013194190098441   0.593730234531544 0
force Cr  -0.013117288398790   0.015102678882217   0.593718218160552 0
force Cr  -0.010399328989064  -0.010425197886465   0.567403840050698 0
force Cr  -0.001801223271914  -0.001841973284237  -0.494306667739792 0
force Cr   0.000525355123139   0.001726011002030  -0.569129280298109 0
force Cr   0.001686474219198   0.000512928579637  -0.569128297126159 0
force Cr   0.000454773418058   0.000402462915092  -0.556244653953866 0
force Cr   0.008323756973688   0.008369756308228   1.250695756544572 0
force Cr   0.007950470751019  -0.008736051900629   1.267134839258116 0
force Cr  -0.008703278601736   0.007899103056999   1.267069851354489 0
force Cr  -0.009164177840552  -0.009064014459934   1.238888490377669 0
force O   0.030935138240849   0.030875962587125  -0.478711743694824 0
force O   0.033133328933570  -0.030703901311752  -0.626379890931908 0
force O  -0.029989418012014   0.032815409044854  -0.623660839852452 0
force O  -0.041450893004914  -0.041534974087719  -0.574403437819987 0
force O  -0.002053317119209  -0.002034028154217  -0.306573067177490 0
force O  -0.001868477706251   0.000229201854213   0.221139990312145 0
force O   0.000002119838551  -0.001688576416787   0.220446082707366 0
force O  -0.000255395139251  -0.000152708658115   0.086896201556398 0
force O  -0.004066574518435  -0.004149951024868  -0.033843394405092 0
force O  -0.005867510666528   0.004786585286643  -0.034970396760980 0
force O   0.004387595715399  -0.005842892764826  -0.034183040528644 0
force O   0.002586422290208   0.001941310210722  -0.022712169656670 0
force O   0.001048228889860   0.001556281159946   0.486993185878411 0
force O   0.000767864351563  -0.000366667458752   0.432062592028785 0
force O  -0.000753406039776   0.000198148687309   0.432332536093238 0
force O   0.000540721485481   0.000110673514232   0.418575012878780 0
force O  -0.010173017110986  -0.009780889373607  -0.039800921044089 1
force H  -0.001908387803153  -0.001945449401431  -0.007603548104093 1

# Energy components:
   Eewald =     4793.5990605816159587
       EH =     6226.4128544188433807
     Eloc =   -12759.2348886984109413
      Enl =     -390.5856180587783228
   Epulay =       -0.0003758999111746
      Exc =     -212.0363883429910743
       KE =      729.5188557097119428
-------------------------------------
     Etot =    -1612.3265002899199771
       TS =        0.0101320977810853
-------------------------------------
        F =    -1612.3366323877010018

IonicMinimize: Iter:   5  F: -1612.336632387701002  |grad|_K:  6.310e-04  alpha:  1.000e+00  linmin:  5.109e-03  t[s]:  39915.18

#--- Lowdin population analysis ---
# oxidation-state Cr +2.821 +2.793 +2.793 +2.756 +2.640 +2.636 +2.636 +2.640 +2.636 +2.631 +2.631 +2.631 +2.717 +2.718 +2.718 +2.717
# oxidation-state O -0.709 -0.698 -0.698 -0.697 -0.708 -0.679 -0.679 -0.679 -0.681 -0.681 -0.681 -0.681 -0.718 -0.716 -0.716 -0.714 -0.646
# oxidation-state H +0.377


-------- Electronic minimization -----------
	FillingsUpdate:  mu: +0.128930785  nElectrons: 327.000000
ElecMinimize: Iter:   0  F: -1612.335449741660568  |grad|_K:  9.597e-06  alpha:  1.000e+00
	FillingsUpdate:  mu: +0.132091991  nElectrons: 327.000000
	SubspaceRotationAdjust: set factor to 0.0448
ElecMinimize: Iter:   1  F: -1612.336605229802444  |grad|_K:  6.984e-07  alpha:  1.298e-01  linmin: -7.209e-03  t[s]:  39974.85
	FillingsUpdate:  mu: +0.132088719  nElectrons: 327.000000
	SubspaceRotationAdjust: set factor to 0.051
ElecMinimize: Iter:   2  F: -1612.336620689337906  |grad|_K:  3.301e-07  alpha:  3.281e-01  linmin:  6.569e-05  t[s]:  40009.12
	FillingsUpdate:  mu: +0.132097710  nElectrons: 327.000000
	SubspaceRotationAdjust: set factor to 0.0601
ElecMinimize: Iter:   3  F: -1612.336625250017732  |grad|_K:  2.599e-07  alpha:  4.341e-01  linmin: -4.984e-05  t[s]:  40043.39
	FillingsUpdate:  mu: +0.132116911  nElectrons: 327.000000
	SubspaceRotationAdjust: set factor to 0.0725
ElecMinimize: Iter:   4  F: -1612.336628681360708  |grad|_K:  2.319e-07  alpha:  5.269e-01  linmin:  2.840e-05  t[s]:  40077.91
	FillingsUpdate:  mu: +0.132124736  nElectrons: 327.000000
	SubspaceRotationAdjust: set factor to 0.0822
ElecMinimize: Iter:   5  F: -1612.336631284147415  |grad|_K:  2.267e-07  alpha:  5.020e-01  linmin:  8.084e-06  t[s]:  40112.34
	FillingsUpdate:  mu: +0.132141604  nElectrons: 327.000000
	SubspaceRotationAdjust: set factor to 0.0524
ElecMinimize: Iter:   6  F: -1612.336632028303256  |grad|_K:  3.584e-07  alpha:  1.502e-01  linmin:  2.542e-05  t[s]:  40147.00
	FillingsUpdate:  mu: +0.132169737  nElectrons: 327.000000
	SubspaceRotationAdjust: set factor to 0.034
ElecMinimize: Iter:   7  F: -1612.336633272781000  |grad|_K:  1.601e-07  alpha:  1.005e-01  linmin: -5.976e-06  t[s]:  40181.57
ElecMinimize: 	Predicted alpha/alphaT>3.000000, increasing alphaT to 3.014273e-01.
	FillingsUpdate:  mu: +0.132121913  nElectrons: 327.000000
	SubspaceRotationAdjust: set factor to 0.0256
ElecMinimize: Iter:   8  F: -1612.336634082762657  |grad|_K:  1.227e-07  alpha:  3.277e-01  linmin:  1.425e-05  t[s]:  40225.53
	FillingsUpdate:  mu: +0.132160042  nElectrons: 327.000000
	SubspaceRotationAdjust: set factor to 0.0234
ElecMinimize: Iter:   9  F: -1612.336634557320622  |grad|_K:  9.437e-08  alpha:  3.268e-01  linmin:  1.204e-05  t[s]:  40260.07
	FillingsUpdate:  mu: +0.132170917  nElectrons: 327.000000
	SubspaceRotationAdjust: set factor to 0.0174
ElecMinimize: Iter:  10  F: -1612.336634781892599  |grad|_K:  8.045e-08  alpha:  2.619e-01  linmin: -1.051e-04  t[s]:  40294.70
	FillingsUpdate:  mu: +0.132159516  nElectrons: 327.000000
	SubspaceRotationAdjust: set factor to 0.0146
ElecMinimize: Iter:  11  F: -1612.336634944113030  |grad|_K:  5.437e-08  alpha:  2.595e-01  linmin:  2.248e-04  t[s]:  40329.47
	FillingsUpdate:  mu: +0.132147635  nElectrons: 327.000000
	SubspaceRotationAdjust: set factor to 0.0163
ElecMinimize: Iter:  12  F: -1612.336635045112871  |grad|_K:  4.105e-08  alpha:  3.553e-01  linmin: -1.280e-04  t[s]:  40364.05
ElecMinimize: Converged (|Delta F|<1.000000e-06 for 5 iters).
Setting wave functions to eigenvectors of Hamiltonian

# Ionic positions in lattice coordinates:
ion Cr   0.000000000000000   0.000000000000000   0.150000000000000 0
ion Cr   0.500000000000000   0.000000000000000   0.150000000000000 0
ion Cr   0.000000000000000   0.500000000000000   0.150000000000000 0
ion Cr   0.500000000000000   0.500000000000000   0.150000000000000 0
ion Cr   0.250000000000000   0.250000000000000   0.050000000000000 0
ion Cr   0.250000000000000   0.750000000000000   0.050000000000000 0
ion Cr  -0.250000000000000   0.250000000000000   0.050000000000000 0
ion Cr  -0.250000000000000   0.750000000000000   0.050000000000000 0
ion Cr   0.000000000000000   0.000000000000000  -0.050000000000000 0
ion Cr   0.500000000000000   0.000000000000000  -0.050000000000000 0
ion Cr   0.000000000000000   0.500000000000000  -0.050000000000000 0
ion Cr   0.500000000000000   0.500000000000000  -0.050000000000000 0
ion Cr   0.250000000000000   0.250000000000000  -0.150000000000000 0
ion Cr   0.250000000000000   0.750000000000000  -0.150000000000000 0
ion Cr  -0.250000000000000   0.250000000000000  -0.150000000000000 0
ion Cr  -0.250000000000000   0.750000000000000  -0.150000000000000 0
ion O   0.250000000000000   0.250000000000000   0.150000000000000 0
ion O   0.250000000000000   0.750000000000000   0.150000000000000 0
ion O  -0.250000000000000   0.250000000000000   0.150000000000000 0
ion O  -0.250000000000000   0.750000000000000   0.150000000000000 0
ion O   0.000000000000000   0.000000000000000   0.050000000000000 0
ion O   0.500000000000000   0.000000000000000   0.050000000000000 0
ion O   0.000000000000000   0.500000000000000   0.050000000000000 0
ion O   0.500000000000000   0.500000000000000   0.050000000000000 0
ion O   0.250000000000000   0.250000000000000  -0.050000000000000 0
ion O   0.250000000000000   0.750000000000000  -0.050000000000000 0
ion O  -0.250000000000000   0.250000000000000  -0.050000000000000 0
ion O  -0.250000000000000   0.750000000000000  -0.050000000000000 0
ion O   0.000000000000000   0.000000000000000  -0.150000000000000 0
ion O   0.500000000000000   0.000000000000000  -0.150000000000000 0
ion O   0.000000000000000   0.500000000000000  -0.150000000000000 0
ion O   0.500000000000000   0.500000000000000  -0.150000000000000 0
ion O  -0.000641270836937  -0.000930988154982   0.232264910718252 1
ion H   0.099325346637101   0.099327901698785   0.249565111319130 1

# Forces in Lattice coordinates:
force Cr   0.004979920835430   0.004770318572597  -0.286792209026112 0
force Cr   0.017534096523842  -0.010199338885216  -1.437669543043277 0
force Cr  -0.010068696635166   0.017708179243369  -1.437683672631636 0
force Cr   0.007096247718664   0.007236600795625  -1.339182950617979 0
force Cr   0.014964937225963   0.014936207309158   0.536293017386025 0
force Cr   0.014812468583329  -0.012912997477582   0.591759096549788 0
force Cr  -0.012835741226423   0.014723451088467   0.591734910675928 0
force Cr  -0.010200833210911  -0.010200071829716   0.566190624942920 0
force Cr  -0.001782841259244  -0.001817200031408  -0.503403995274530 0
force Cr   0.000467751507238   0.001774696065976  -0.582123687782144 0
force Cr   0.001756179674971   0.000446621181903  -0.582138889896886 0
force Cr   0.000396711972860   0.000376018872407  -0.566544616563567 0
force Cr   0.008564382861110   0.008587964244018   1.247145290761769 0
force Cr   0.008102360564245  -0.008954473613864   1.263004566233573 0
force Cr  -0.008963443542902   0.008108374749538   1.262980371707096 0
force Cr  -0.009291746076456  -0.009292420584114   1.235018187675522 0
force O   0.030278692651556   0.030361575656274  -0.475979386061649 0
force O   0.033935701237604  -0.031919471914885  -0.632612416135238 0
force O  -0.031475682146238   0.033637427767547  -0.630500970312191 0
force O  -0.042630132532232  -0.042694367044768  -0.573626270862482 0
force O  -0.001923427386962  -0.001906358787324  -0.313982694284218 0
force O  -0.001100369016071   0.001521099850822   0.217481733202328 0
force O   0.001525508956327  -0.001068025683030   0.217360195156311 0
force O   0.000020964274950   0.000004843434913   0.084533750278791 0
force O  -0.004493311775813  -0.004503868562116  -0.039695442438542 0
force O  -0.006209768275288   0.004854244797456  -0.040611975495976 0
force O   0.004898545140834  -0.006174316574993  -0.040654234597818 0
force O   0.002242531815535   0.002267732081525  -0.030802901438801 0
force O   0.001585433503898   0.001589948481949   0.487385187112425 0
force O   0.000154785728587  -0.000270001976225   0.421178288113124 0
force O  -0.000287238991114   0.000150025675329   0.421131646064541 0
force O  -0.000139256090269  -0.000164135147204   0.416266604625651 0
force O  -0.010711106443756  -0.011941514107292  -0.044635127290492 1
force H   0.000650939746159   0.000653911221702  -0.001919266703383 1

# Energy components:
   Eewald =     4793.6548019899555584
       EH =     6226.4627162940460039
     Eloc =   -12759.3411890932402457
      Enl =     -390.5856532017647851
   Epulay =       -0.0003758999111746
      Exc =     -212.0366710612014742
       KE =      729.5198674751550243
-------------------------------------
     Etot =    -1612.3265034969608678
       TS =        0.0101315481519570
-------------------------------------
        F =    -1612.3366350451128710

IonicMinimize: Iter:   6  F: -1612.336635045112871  |grad|_K:  7.017e-04  alpha:  1.000e+00  linmin: -7.834e-03  t[s]:  40373.15
IonicMinimize: Converged (|Delta F|<1.000000e-04 for 3 iters).

#--- Lowdin population analysis ---
# oxidation-state Cr +2.819 +2.790 +2.790 +2.757 +2.635 +2.632 +2.632 +2.636 +2.634 +2.629 +2.629 +2.629 +2.725 +2.725 +2.725 +2.725
# oxidation-state O -0.709 -0.698 -0.698 -0.697 -0.708 -0.679 -0.679 -0.679 -0.681 -0.682 -0.682 -0.681 -0.718 -0.715 -0.715 -0.714 -0.645
# oxidation-state H +0.377


Dumping 'OH.ionpos' ... done
Dumping 'OH.lattice' ... done
Dumping 'OH.Ecomponents' ... done
End date and time: Fri May  2 13:08:16 2025  (Duration: 0-11:12:56.23)
Done!
